10
Lattice="5.87940641 1.8936522339830572e-15 1.1129488109227956e-15 3.226158737651723 4.9152130710094895 4.468149961477016e-16 3.226158737651722 1.7414907629919851 4.596360457561627" Properties=species:S:1:pos:R:3:spacegroup_kinds:I:1:forces:R:3 spacegroup="P 1" unit_cell=conventional occupancy="_JSON {\"0\": {\"In\": 1}, \"1\": {\"In\": 1}, \"2\": {\"In\": 1}, \"3\": {\"In\": 1}, \"4\": {\"O\": 1}, \"5\": {\"O\": 1}, \"6\": {\"O\": 1}, \"7\": {\"O\": 1}, \"8\": {\"O\": 1}, \"9\": {\"O\": 1}}" n_minim_iter=1 energy=-11287.36971519359 stress="-1.0139604914896141e-08 -7.500328177134805e-09 -5.178902901170692e-09 -7.500328177134805e-09 -2.937754719823881e-10 -2.7955612392108204e-09 -5.178902901170692e-09 -2.7955612392108204e-09 1.824701173598129e-09" free_energy=-11287.36971519359 pbc="T T T"
In      10.57093869       5.70622638       3.94006913        0       0.00273705       0.00147747       0.00102017
In       7.92664715       4.27882938       2.95447156        1      -0.00273705      -0.00147747      -0.00102017
In       4.40507675       2.37787446       1.64188890        2       0.00273705       0.00147747       0.00102017
In       1.76078520       0.95047747       0.65629133        3      -0.00273705      -0.00147747      -0.00102017
O        6.02263418       2.30932706       0.21474656        4      -0.00000000       0.00931398      -0.01348902
O        7.09636402       5.12094210       1.14909012        5      -0.00778653       0.01442476       0.00000000
O        8.17506308       2.18091285       2.51292679        6       0.00778653      -0.00511078      -0.01348902
O        4.15666081       4.47579100       2.08343367        7      -0.00778653       0.00511078       0.01348902
O        6.30908971       4.34737678       4.38161390        8       0.00000000      -0.00931398       0.01348902
O        5.23535988       1.53576175       3.44727035        9       0.00778653      -0.01442476       0.00000000
10
Lattice="5.879406975609472 4.183852273113492e-07 2.888891201263642e-07 3.2261593977861307 4.9152133142847125 2.888891194602311e-07 3.226159397786129 1.74149111933464 4.596360582700226" Properties=species:S:1:pos:R:3:spacegroup_kinds:I:1:forces:R:3 spacegroup="P 1" unit_cell=conventional occupancy="_JSON {\"0\": {\"In\": 1}, \"1\": {\"In\": 1}, \"2\": {\"In\": 1}, \"3\": {\"In\": 1}, \"4\": {\"O\": 1}, \"5\": {\"O\": 1}, \"6\": {\"O\": 1}, \"7\": {\"O\": 1}, \"8\": {\"O\": 1}, \"9\": {\"O\": 1}}" n_minim_iter=2 energy=-11287.36979433259 stress="4.632451450488246e-05 -5.721832716979675e-05 -3.9508450887672585e-05 -5.721832716979675e-05 0.0001214363777177577 -2.132678767606734e-05 -3.9508450887672585e-05 -2.132678767606734e-05 0.00013759716589674718" free_energy=-11287.36979433259 pbc="T T T"
In      10.57113581       5.70633279       3.94014260        0       0.00517297       0.00279239       0.00192810
In       7.92645286       4.27872450       2.95439914        1      -0.00517297      -0.00279239      -0.00192810
In       4.40527292       2.37798036       1.64196202        2       0.00517297       0.00279239       0.00192810
In       1.76058997       0.95037208       0.65621856        3      -0.00517297      -0.00279239      -0.00192810
O        6.02263494       2.30999279       0.21378341        4      -0.00000000       0.00277322      -0.00401633
O        7.09580894       5.12197299       1.14909058        5      -0.00231842       0.00429494      -0.00000000
O        8.17562033       2.18054844       2.51196370        6       0.00231842      -0.00152173      -0.00401633
O        4.15610545       4.47615642       2.08439746        7      -0.00231842       0.00152173       0.00401633
O        6.30909085       4.34671208       4.38257775        8      -0.00000000      -0.00277322       0.00401633
O        5.23591684       1.53473188       3.44727058        9       0.00231842      -0.00429494       0.00000000
