10
Lattice="5.559368314451636 -0.010339226505817301 -0.007139090615736039 3.0419031982221543 4.653332987008279 -0.007139090615741867 3.041903198222148 1.6420290358916396 4.3539981051767835" Properties=species:S:1:pos:R:3:spacegroup_kinds:I:1:forces:R:3 spacegroup="P 1" unit_cell=conventional occupancy="_JSON {\"0\": {\"In\": 1}, \"1\": {\"In\": 1}, \"2\": {\"In\": 1}, \"3\": {\"In\": 1}, \"4\": {\"O\": 1}, \"5\": {\"O\": 1}, \"6\": {\"O\": 1}, \"7\": {\"O\": 1}, \"8\": {\"O\": 1}, \"9\": {\"O\": 1}}" n_minim_iter=1 energy=-11285.74870517766 stress="-0.15190392435937344 0.0014440534141295217 0.0009970985906815836 0.0014440534141295217 -0.153799567731149 0.0005382369952930108 0.0009970985906815836 0.0005382369952930108 -0.1542074272820786" free_energy=-11285.74870517766 pbc="T T T"
In      10.06511542       5.43318137       3.75153539        0       0.22928923       0.12377106       0.08546218
In       7.39964665       3.99435284       2.75804450        1      -0.22928923      -0.12377106      -0.08546218
In       4.24352807       2.29066997       1.58167542        2       0.22928923       0.12377106       0.08546218
In       1.57805930       0.85184144       0.58818454        3      -0.22928923      -0.12377106      -0.08546218
O        5.69047784       2.24317415       0.10076400        4      -0.00000000       0.08359142      -0.12106172
O        6.64538045       4.94137365       1.07779089        5      -0.06988284       0.12945986       0.00000000
O        7.77747843       2.01556760       2.27776306        6       0.06988284      -0.04586844      -0.12106172
O        3.86569629       4.26945521       2.06195687        7      -0.06988284       0.04586844       0.12106172
O        5.95269688       4.04184866       4.23895593        8       0.00000000      -0.08359142       0.12106172
O        4.99779427       1.34364915       3.26192904        9       0.06988284      -0.12945986       0.00000000
10
Lattice="5.44072847459933 -0.13540921213934073 -0.09349815821573823 2.872243794773979 4.622778122777528 -0.0934981582157441 2.8722437947739725 1.5504463494876868 4.356022910336975" Properties=species:S:1:pos:R:3:spacegroup_kinds:I:1:forces:R:3 spacegroup="P 1" unit_cell=conventional occupancy="_JSON {\"0\": {\"In\": 1}, \"1\": {\"In\": 1}, \"2\": {\"In\": 1}, \"3\": {\"In\": 1}, \"4\": {\"O\": 1}, \"5\": {\"O\": 1}, \"6\": {\"O\": 1}, \"7\": {\"O\": 1}, \"8\": {\"O\": 1}, \"9\": {\"O\": 1}}" n_minim_iter=2 energy=-11285.81861517169 stress="-0.1219779382911909 -0.0006122826582733076 -0.00042277257181005495 -0.0006122826582733076 -0.12117418023649384 -0.00022821398093223513 -0.00042277257181005495 -0.00022821398093223513 -0.12100124665425276" free_energy=-11285.81861517169 pbc="T T T"
In       9.69991645       5.23604580       3.61541605        0       0.45021628       0.24302818       0.16780754
In       7.07790766       3.82067710       2.63812385        1      -0.45021628      -0.24302818      -0.16780754
In       4.10730842       2.21713817       1.53090275        2       0.45021628       0.24302818       0.16780754
In       1.48529962       0.80176947       0.55361055        3      -0.45021628      -0.24302818      -0.16780754
O        5.51666826       2.14444209      -0.02217117        4      -0.00000000      -0.19020675       0.27546796
O        6.36533541       4.84141408       0.94875849        5       0.15901379      -0.29457735      -0.00000000
O        7.54024490       1.83138946       2.15584028        6      -0.15901379       0.10437060       0.27546796
O        3.64497117       4.20642581       2.01318632        7       0.15901379      -0.10437060      -0.27546796
O        5.66854782       3.89337318       4.19119777        8      -0.00000000       0.19020675      -0.27546796
O        4.81988066       1.19640119       3.22026811        9      -0.15901379       0.29457735      -0.00000000
10
Lattice="5.400445901081836 -0.17899781704302303 -0.12359547739587151 2.813699575664929 4.6130197102246155 -0.12359547739587753 2.8136995756649195 1.518843993529467 4.357561200060536" Properties=species:S:1:pos:R:3:spacegroup_kinds:I:1:forces:R:3 spacegroup="P 1" unit_cell=conventional occupancy="_JSON {\"0\": {\"In\": 1}, \"1\": {\"In\": 1}, \"2\": {\"In\": 1}, \"3\": {\"In\": 1}, \"4\": {\"O\": 1}, \"5\": {\"O\": 1}, \"6\": {\"O\": 1}, \"7\": {\"O\": 1}, \"8\": {\"O\": 1}, \"9\": {\"O\": 1}}" n_minim_iter=3 energy=-11285.831266356787 stress="-0.11141068647845072 -0.003512173044759065 -0.0024251061344555797 -0.003512173044759065 -0.10680017312234731 -0.001309080016150529 -0.0024251061344555797 -0.001309080016150529 -0.10580819228125796" free_energy=-11285.831266356787 pbc="T T T"
In       9.57723644       5.16982274       3.56968996        0       0.41806388       0.22567222       0.15582349
In       6.96453114       3.75947610       2.59586542        1      -0.41806388      -0.22567222      -0.15582349
In       4.06331392       2.19338980       1.51450483        2       0.41806388       0.22567222       0.15582349
In       1.45060862       0.78304315       0.54068029        3      -0.41806388      -0.22567222      -0.15582349
O        5.45718422       2.10962242      -0.06377697        4      -0.00000000      -0.27752664       0.40192945
O        6.26971400       4.80622130       0.90399709        5       0.23201365      -0.42981157       0.00000000
O        7.45835401       1.76805054       2.11500363        6      -0.23201365       0.15228493       0.40192945
O        3.56949105       4.18481536       1.99536662        7       0.23201365      -0.15228493      -0.40192945
O        5.57066084       3.84324347       4.17414722        8      -0.00000000       0.27752664      -0.40192945
O        4.75813106       1.14664459       3.20637316        9      -0.23201365       0.42981157      -0.00000000
10
Lattice="5.398575916522135 -0.18103610529193584 -0.12500288678977609 2.8109694551475264 4.612574847100021 -0.12500288678978233 2.8109694551475175 1.517370265777816 4.357643849414376" Properties=species:S:1:pos:R:3:spacegroup_kinds:I:1:forces:R:3 spacegroup="P 1" unit_cell=conventional occupancy="_JSON {\"0\": {\"In\": 1}, \"1\": {\"In\": 1}, \"2\": {\"In\": 1}, \"3\": {\"In\": 1}, \"4\": {\"O\": 1}, \"5\": {\"O\": 1}, \"6\": {\"O\": 1}, \"7\": {\"O\": 1}, \"8\": {\"O\": 1}, \"9\": {\"O\": 1}}" n_minim_iter=4 energy=-11285.87371026448 stress="-0.09538228748904348 0.0023394565439737156 0.0016153618696155378 0.0023394565439737156 -0.09845334791364684 0.0008719774826248162 0.0016153618696155378 0.0008719774826248162 -0.09911410580919806" free_energy=-11285.87371026448 pbc="T T T"
In       9.60147138       5.18290484       3.57872296        0      -0.04506280      -0.02432504      -0.01679610
In       6.92930087       3.74045869       2.58273416        1       0.04506280       0.02432504       0.01679610
In       4.09121396       2.20845033       1.52490392        2      -0.04506280      -0.02432504      -0.01679610
In       1.41904346       0.76600418       0.52891512        3       0.04506280       0.02432504       0.01679610
O        5.45441667       2.10546324      -0.06204878        4      -0.00000000      -0.16968268       0.24574386
O        6.26737949       4.80065948       0.90190663        5       0.14185557      -0.26279127      -0.00000000
O        7.45242330       1.76648552       2.11677315        6      -0.14185557       0.09310859       0.24574386
O        3.56809153       4.18242350       1.99086493        7       0.14185557      -0.09310859      -0.24574386
O        5.56609817       3.84344578       4.16968686        8      -0.00000000       0.16968268      -0.24574386
O        4.75313534       1.14824953       3.20573145        9      -0.14185557       0.26279127      -0.00000000
10
Lattice="5.235697895968 -0.36414353198927213 -0.2514359919038405 2.5685160054490552 4.576883055037067 -0.251435991903847 2.568516005449044 1.3864931213342786 4.3690634444927525" Properties=species:S:1:pos:R:3:spacegroup_kinds:I:1:forces:R:3 spacegroup="P 1" unit_cell=conventional occupancy="_JSON {\"0\": {\"In\": 1}, \"1\": {\"In\": 1}, \"2\": {\"In\": 1}, \"3\": {\"In\": 1}, \"4\": {\"O\": 1}, \"5\": {\"O\": 1}, \"6\": {\"O\": 1}, \"7\": {\"O\": 1}, \"8\": {\"O\": 1}, \"9\": {\"O\": 1}}" n_minim_iter=5 energy=-11286.057137919393 stress="-0.08329675371925133 -0.0016582811534839722 -0.0011450198343799648 -0.0016582811534839722 -0.08111988848254965 -0.000618085353907738 -0.0011450198343799648 -0.000618085353907738 -0.08065152228506799" free_energy=-11286.057137919393 pbc="T T T"
In       9.02904640       4.87390801       3.36536499        0      -0.14532084      -0.07844465      -0.05416493
In       6.53004847       3.52494097       2.43392220        1       0.14532084       0.07844465       0.05416493
In       3.84268145       2.07429169       1.43226926        2      -0.14532084      -0.07844465      -0.05416493
In       1.34368352       0.72532465       0.50082647        3       0.14532084       0.07844465       0.05416493
O        5.21103143       1.88108317      -0.11986566        4       0.00000000      -0.00250429       0.00362685
O        5.94072823       4.53351755       0.71511188        5       0.00209360      -0.00387845       0.00000000
O        7.04985063       1.54699010       2.06466606        6      -0.00209360       0.00137416       0.00362685
O        3.32287928       4.05224256       1.80152540        7       0.00209360      -0.00137416      -0.00362685
O        5.16169849       3.71814949       3.98605713        8      -0.00000000       0.00250429      -0.00362685
O        4.43200169       1.06571510       3.15107959        9      -0.00209360       0.00387845      -0.00000000
10
Lattice="5.2510858741168445 -0.3463375808054775 -0.23914123282015834 2.5918455891850476 4.579976967087244 -0.23914123282016558 2.591845589185036 1.3990865049475871 4.367600542627265" Properties=species:S:1:pos:R:3:spacegroup_kinds:I:1:forces:R:3 spacegroup="P 1" unit_cell=conventional occupancy="_JSON {\"0\": {\"In\": 1}, \"1\": {\"In\": 1}, \"2\": {\"In\": 1}, \"3\": {\"In\": 1}, \"4\": {\"O\": 1}, \"5\": {\"O\": 1}, \"6\": {\"O\": 1}, \"7\": {\"O\": 1}, \"8\": {\"O\": 1}, \"9\": {\"O\": 1}}" n_minim_iter=6 energy=-11286.062341456163 stress="-0.08581821166625825 0.002507453637845707 0.0017313615020248853 0.002507453637845707 -0.08910980588448755 0.0009345944539051475 0.0017313615020248853 0.0009345944539051475 -0.08981801300771183" free_energy=-11286.062341456163 pbc="T T T"
In       9.07504021       4.89873562       3.38250811        0      -0.09989961      -0.05392613      -0.03723523
In       6.57712537       3.55035323       2.45146901        1       0.09989961       0.05392613       0.03723523
In       3.85765169       2.08237267       1.43784907        2      -0.09989961      -0.05392613      -0.03723523
In       1.35973685       0.73399028       0.50680998        3       0.09989961       0.05392613       0.03723523
O        5.23423720       1.89582069      -0.10425985        4      -0.00000000       0.01956598      -0.02833653
O        5.97772121       4.54840896       0.73318829        5      -0.01635726       0.03030226      -0.00000000
O        7.08259878       1.57195615       2.07954042        6       0.01635726      -0.01073628      -0.02833653
O        3.35217828       4.06076975       1.80977766        7      -0.01635726       0.01073628       0.02833653
O        5.20053986       3.73690521       3.99357793        8       0.00000000      -0.01956598       0.02833653
O        4.45705585       1.08431694       3.15612979        9       0.01635726      -0.03030226      -0.00000000
10
Lattice="5.243726740305714 -0.35483883610452055 -0.2450112301447461 2.5807003798828436 4.578489519031112 -0.24501123014475287 2.5807003798828303 1.3930702854649932 4.368289362957686" Properties=species:S:1:pos:R:3:spacegroup_kinds:I:1:forces:R:3 spacegroup="P 1" unit_cell=conventional occupancy="_JSON {\"0\": {\"In\": 1}, \"1\": {\"In\": 1}, \"2\": {\"In\": 1}, \"3\": {\"In\": 1}, \"4\": {\"O\": 1}, \"5\": {\"O\": 1}, \"6\": {\"O\": 1}, \"7\": {\"O\": 1}, \"8\": {\"O\": 1}, \"9\": {\"O\": 1}}" n_minim_iter=7 energy=-11286.064745315469 stress="-0.08923864746685617 0.0006520798264323829 0.0004502519571435345 0.0006520798264323829 -0.0900946482138802 0.00024304744071585555 0.0004502519571435345 0.00024304744071585555 -0.09027882213883612" free_energy=-11286.064745315469 pbc="T T T"
In       9.04196746       4.88088284       3.37018101        0      -0.03008195      -0.01623833      -0.01121234
In       6.56572380       3.54419862       2.44721934        1       0.03008195       0.01623833       0.01121234
In       3.83940371       2.07252236       1.43104756        2      -0.03008195      -0.01623833      -0.01121234
In       1.36316005       0.73583814       0.50808589        3       0.03008195       0.01623833       0.01121234
O        5.22314525       1.88455413      -0.10559158        4       0.00000000       0.02458230      -0.03560145
O        5.96357696       4.53474444       0.72455550        5      -0.02055093       0.03807115      -0.00000000
O        7.06341392       1.56235042       2.07855310        6       0.02055093      -0.01348885      -0.03560145
O        3.34171359       4.05437056       1.79971381        7      -0.02055093       0.01348885       0.03560145
O        5.18198226       3.73216685       3.98385849        8      -0.00000000      -0.02458230       0.03560145
O        4.44155055       1.08197654       3.15371141        9       0.02055093      -0.03807115       0.00000000
10
Lattice="5.244993215902347 -0.3533739546037147 -0.24399975005291397 2.582619970947877 4.578744486462977 -0.24399975005292063 2.5826199709478637 1.3941064868364454 4.368169416781073" Properties=species:S:1:pos:R:3:spacegroup_kinds:I:1:forces:R:3 spacegroup="P 1" unit_cell=conventional occupancy="_JSON {\"0\": {\"In\": 1}, \"1\": {\"In\": 1}, \"2\": {\"In\": 1}, \"3\": {\"In\": 1}, \"4\": {\"O\": 1}, \"5\": {\"O\": 1}, \"6\": {\"O\": 1}, \"7\": {\"O\": 1}, \"8\": {\"O\": 1}, \"9\": {\"O\": 1}}" n_minim_iter=8 energy=-11286.065345673118 stress="-0.090030151135902 7.289645156902518e-05 5.033397546528125e-05 7.289645156902518e-05 -0.09012584404714913 2.7170440204978706e-05 5.033397546528125e-05 2.7170440204978706e-05 -0.09014643297695034" free_energy=-11286.065345673118 pbc="T T T"
In       9.04516694       4.88260993       3.37137354        0       0.00067033       0.00036184       0.00024985
In       6.57018280       3.54660561       2.44888133        1      -0.00067033      -0.00036184      -0.00024985
In       3.84005036       2.07287142       1.43128859        2       0.00067033       0.00036184       0.00024985
In       1.36506622       0.73686710       0.50879638        3      -0.00067033      -0.00036184      -0.00024985
O        5.22505490       1.88818590      -0.10781120        4       0.00000000       0.00035026      -0.00050726
O        5.96459857       4.53971655       0.72604273        5      -0.00029282       0.00054245       0.00000000
O        7.06813121       1.56307712       2.07627351        6       0.00029282      -0.00019219      -0.00050726
O        3.34210196       4.05639991       1.80389641        7      -0.00029282       0.00019219       0.00050726
O        5.18517826       3.73129112       3.98798112        8      -0.00000000      -0.00035026       0.00050726
O        4.44563460       1.07976048       3.15412719        9       0.00029282      -0.00054245       0.00000000
