10
Lattice="5.613346139855929 -0.010439613623838197 -0.0072084065100952305 3.071438086080467 4.698513802761733 -0.007208406510104778 3.0714380860804593 1.6579720624361796 4.396272575267376" Properties=species:S:1:pos:R:3:spacegroup_kinds:I:1:forces:R:3 spacegroup="P 1" unit_cell=conventional occupancy="_JSON {\"0\": {\"In\": 1}, \"1\": {\"In\": 1}, \"2\": {\"In\": 1}, \"3\": {\"In\": 1}, \"4\": {\"O\": 1}, \"5\": {\"O\": 1}, \"6\": {\"O\": 1}, \"7\": {\"O\": 1}, \"8\": {\"O\": 1}, \"9\": {\"O\": 1}}" n_minim_iter=4 energy=-11286.200617778397 stress="-0.11880862038546958 -0.00010707707118783071 -7.393521294672064e-05 -0.00010707707118783071 -0.11866805775943844 -3.991046355538647e-05 -7.393521294672064e-05 -3.991046355538647e-05 -0.11863781482943496" free_energy=-11286.200617778397 pbc="T T T"
In      10.16284110       5.48593400       3.78796034        0      -0.00573195      -0.00309412      -0.00213645
In       7.47149238       4.03313539       2.78482331        1       0.00573195       0.00309412       0.00213645
In       4.28472995       2.31291088       1.59703246        2      -0.00573195      -0.00309412      -0.00213645
In       1.59338122       0.86011226       0.59389543        3       0.00573195       0.00309412       0.00213645
O        5.74572865       2.26495390       0.10174235        4       0.00000000       0.00301468      -0.00436602
O        6.70990274       4.98935116       1.08825554        5      -0.00252028       0.00466890      -0.00000000
O        7.85299265       2.03513744       2.29987864        6       0.00252028      -0.00165422      -0.00436602
O        3.90322967       4.31090882       2.08197712        7      -0.00252028       0.00165422       0.00436602
O        6.01049367       4.08109236       4.28011341        8      -0.00000000      -0.00301468       0.00436602
O        5.04631958       1.35669511       3.29360023        9       0.00252028      -0.00466890      -0.00000000
