10
Lattice="5.728813716244873 0.0002353710089526696 0.0001625203742574523 3.1437220081035675 4.789187675023835 0.000162520374254142 3.1437220081035644 1.6969911537930058 4.478452817319998" Properties=species:S:1:pos:R:3:spacegroup_kinds:I:1:forces:R:3 spacegroup="P 1" unit_cell=conventional occupancy="_JSON {\"0\": {\"In\": 1}, \"1\": {\"In\": 1}, \"2\": {\"In\": 1}, \"3\": {\"In\": 1}, \"4\": {\"O\": 1}, \"5\": {\"O\": 1}, \"6\": {\"O\": 1}, \"7\": {\"O\": 1}, \"8\": {\"O\": 1}, \"9\": {\"O\": 1}}" n_minim_iter=5 energy=-11286.915829453726 stress="-0.08982014568603443 -1.6750911053747832e-06 -1.156626886909874e-06 -1.6750911053747832e-06 -0.08981794675391691 -6.243509020983968e-07 -1.156626886909874e-06 -6.243509020983968e-07 -0.08981747363984585" free_energy=-11286.915829453726 pbc="T T T"
In      10.32330817       5.57255464       3.84777067        0      -0.00529617      -0.00285889      -0.00197402
In       7.70107844       4.15706668       2.87039612        1       0.00529617       0.00285889       0.00197402
In       4.31517930       2.32934754       1.60838174        2      -0.00529617      -0.00285889      -0.00197402
In       1.69294957       0.91385958       0.63100719        3       0.00529617       0.00285889       0.00197402
O        5.86847130       2.27342991       0.17593513        4      -0.00000000       0.00190475      -0.00275856
O        6.89550061       5.02563053       1.11985699        5      -0.00159238       0.00294992      -0.00000000
O        7.98516399       2.11261004       2.41516154        6       0.00159238      -0.00104518      -0.00275856
O        4.03109375       4.37380418       2.06361632        7      -0.00159238       0.00104518       0.00275856
O        6.14778645       4.21298430       4.30284273        8       0.00000000      -0.00190475       0.00275856
O        5.12075714       1.46078368       3.35892088        9       0.00159238      -0.00294992       0.00000000
