10
Lattice="5.67673070872115 0.00023323115406519325 0.00016104283452680846 3.115141135149668 4.745647195255139 0.00016104283452352826 3.1151411351496647 1.6815631075327362 4.43773735626081" Properties=species:S:1:pos:R:3:spacegroup_kinds:I:1:forces:R:3 spacegroup="P 1" unit_cell=conventional occupancy="_JSON {\"0\": {\"In\": 1}, \"1\": {\"In\": 1}, \"2\": {\"In\": 1}, \"3\": {\"In\": 1}, \"4\": {\"O\": 1}, \"5\": {\"O\": 1}, \"6\": {\"O\": 1}, \"7\": {\"O\": 1}, \"8\": {\"O\": 1}, \"9\": {\"O\": 1}}" n_minim_iter=5 energy=-11286.915829453726 stress="-0.08982014568603443 -1.6750911053747832e-06 -1.156626886909874e-06 -1.6750911053747832e-06 -0.08981794675391691 -6.243509020983968e-07 -1.156626886909874e-06 -6.243509020983968e-07 -0.08981747363984585" free_energy=-11286.915829453726 pbc="T T T"
In      10.22945472       5.52189224       3.81278900        0      -0.00529617      -0.00285889      -0.00197402
In       7.63106476       4.11927307       2.84430017        1       0.00529617       0.00285889       0.00197402
In       4.27594823       2.30817048       1.59375928        2      -0.00529617      -0.00285889      -0.00197402
In       1.67755827       0.90555130       0.62527045        3       0.00529617       0.00285889       0.00197402
O        5.81511860       2.25276122       0.17433564        4      -0.00000000       0.00190475      -0.00275856
O        6.83281077       4.97994045       1.10967591        5      -0.00159238       0.00294992      -0.00000000
O        7.91256758       2.09340343       2.39320431        6       0.00159238      -0.00104518      -0.00275856
O        3.99444541       4.33404012       2.04485513        7      -0.00159238       0.00104518       0.00275856
O        6.09189438       4.17468233       4.26372381        8       0.00000000      -0.00190475       0.00275856
O        5.07420222       1.44750310       3.32838354        9       0.00159238      -0.00294992       0.00000000
