40
Lattice="5.843307940279589 1.7784969147220685e-42 -3.9443045261050586e-31 -1.7763568394002513e-15 4.7684599972275565 -8.046733291820488e-31 3.675979516382506e-16 0.0 16.320714059604345" Properties=species:S:1:pos:R:3:spacegroup_kinds:I:1:forces:R:3 spacegroup="P 1" unit_cell=conventional occupancy="_JSON {\"0\": {\"In\": 1}, \"1\": {\"In\": 1}, \"2\": {\"In\": 1}, \"3\": {\"In\": 1}, \"4\": {\"In\": 1}, \"5\": {\"In\": 1}, \"6\": {\"In\": 1}, \"7\": {\"In\": 1}, \"8\": {\"In\": 1}, \"9\": {\"In\": 1}, \"10\": {\"In\": 1}, \"11\": {\"In\": 1}, \"12\": {\"In\": 1}, \"13\": {\"In\": 1}, \"14\": {\"In\": 1}, \"15\": {\"In\": 1}, \"16\": {\"O\": 1}, \"17\": {\"O\": 1}, \"18\": {\"O\": 1}, \"19\": {\"O\": 1}, \"20\": {\"O\": 1}, \"21\": {\"O\": 1}, \"22\": {\"O\": 1}, \"23\": {\"O\": 1}, \"24\": {\"O\": 1}, \"25\": {\"O\": 1}, \"26\": {\"O\": 1}, \"27\": {\"O\": 1}, \"28\": {\"O\": 1}, \"29\": {\"O\": 1}, \"30\": {\"O\": 1}, \"31\": {\"O\": 1}, \"32\": {\"O\": 1}, \"33\": {\"O\": 1}, \"34\": {\"O\": 1}, \"35\": {\"O\": 1}, \"36\": {\"O\": 1}, \"37\": {\"O\": 1}, \"38\": {\"O\": 1}, \"39\": {\"O\": 1}}" n_minim_iter=1 energy=-45152.61140504102 stress="-0.03430013195128918 2.2733282423339082e-13 -3.155508918564303e-13 2.2733282423339082e-13 -0.035080300412261234 -1.2816922230591592e-13 -3.155508918564303e-13 -1.2816922230591592e-13 -0.027310124433146548" free_energy=-45152.61140504102 pbc="T T T"
In       2.86510449       3.57575333       9.26935029        0       0.03225443      -0.00000000       0.15203663
In      -0.05654949       3.57575333       7.05169324        1       0.03225443       0.00000000      -0.15203663
In       2.97805923       1.19152333      15.21205027        2      -0.03225443       0.00000000      -0.15203663
In       5.89971320       1.19152333       1.10899326        3      -0.03225443       0.00000000       0.15203663
In       2.97805923       1.19152333       7.05169324        4      -0.03225443       0.00000000      -0.15203663
In       5.89971320       1.19152333       9.26935029        5      -0.03225443      -0.00000000       0.15203663
In       2.86510449       3.57575333       1.10899326        6       0.03225443      -0.00000000       0.15203663
In      -0.05654949       3.57575333      15.21205027        7       0.03225443      -0.00000000      -0.15203663
In       2.97805923       3.57575333      13.34952881        8      -0.03225443      -0.00000000       0.15203663
In       5.89971320       3.57575333       2.97151472        9      -0.03225443      -0.00000000      -0.15203663
In       2.86510449       1.19152333      11.13187175       10       0.03225443      -0.00000000      -0.15203663
In      -0.05654949       1.19152333       5.18917178       11       0.03225443       0.00000000       0.15203663
In       2.86510449       1.19152333       2.97151472       12       0.03225443      -0.00000000      -0.15203663
In      -0.05654949       1.19152333      13.34952881       13       0.03225443      -0.00000000       0.15203663
In       2.97805923       3.57575333       5.18917178       14      -0.03225443      -0.00000000       0.15203663
In       5.89971320       3.57575333      11.13187175       15      -0.03225443       0.00000000      -0.15203663
O        5.09591960       3.57575333      13.03710881       16      -0.05157877       0.00000000       0.05203252
O        2.17426563       3.57575333       3.28393472       17      -0.05157877       0.00000000      -0.05203252
O        0.74724412       1.19152333      11.44429175       18       0.05157877      -0.00000000      -0.05203252
O        3.66889809       1.19152333       4.87675178       19       0.05157877      -0.00000000       0.05203252
O        0.74724412       1.19152333       3.28393472       20       0.05157877      -0.00000000      -0.05203252
O        3.66889809       1.19152333      13.03710881       21       0.05157877      -0.00000000       0.05203252
O        5.09591960       3.57575333       4.87675178       22      -0.05157877       0.00000000       0.05203252
O        2.17426563       3.57575333      11.44429175       23      -0.05157877       0.00000000      -0.05203252
O        4.38240884       2.38363833      10.20061102       24       0.00000000       0.00000000      -0.00000000
O        1.46075487       4.76786833       6.12043251       25      -0.00000000       0.00000000      -0.00000000
O        1.46075487      -0.00059167      14.28078954       26      -0.00000000       0.00000000       0.00000000
O        4.38240884       2.38363833       2.04025399       27      -0.00000000      -0.00000000      -0.00000000
O        1.46075487       2.38363833       6.12043251       28      -0.00000000      -0.00000000      -0.00000000
O        4.38240884      -0.00059167      10.20061102       29       0.00000000      -0.00000000      -0.00000000
O        4.38240884       4.76786833       2.04025399       30       0.00000000       0.00000000      -0.00000000
O        1.46075487       2.38363833      14.28078954       31       0.00000000      -0.00000000      -0.00000000
O        3.66889809       3.57575333      15.52447027       32       0.05157877      -0.00000000      -0.05203252
O        0.74724412       3.57575333       0.79657326       33       0.05157877      -0.00000000       0.05203252
O        2.17426563       1.19152333       8.95693029       34      -0.05157877       0.00000000       0.05203252
O        5.09591960       1.19152333       7.36411324       35      -0.05157877      -0.00000000      -0.05203252
O        2.17426563       1.19152333       0.79657326       36      -0.05157877       0.00000000       0.05203252
O        5.09591960       1.19152333      15.52447027       37      -0.05157877       0.00000000      -0.05203252
O        3.66889809       3.57575333       7.36411324       38       0.05157877      -0.00000000      -0.05203252
O        0.74724412       3.57575333       8.95693029       39       0.05157877       0.00000000       0.05203252
40
Lattice="5.850133061306717 4.2807666528753247e-19 -2.1478640313693902e-17 -1.7780815147977483e-15 4.776130583403329 1.2452276627719023e-16 3.101647980243026e-16 4.0634113202550323e-16 16.275492423477196" Properties=species:S:1:pos:R:3:spacegroup_kinds:I:1:forces:R:3 spacegroup="P 1" unit_cell=conventional occupancy="_JSON {\"0\": {\"In\": 1}, \"1\": {\"In\": 1}, \"2\": {\"In\": 1}, \"3\": {\"In\": 1}, \"4\": {\"In\": 1}, \"5\": {\"In\": 1}, \"6\": {\"In\": 1}, \"7\": {\"In\": 1}, \"8\": {\"In\": 1}, \"9\": {\"In\": 1}, \"10\": {\"In\": 1}, \"11\": {\"In\": 1}, \"12\": {\"In\": 1}, \"13\": {\"In\": 1}, \"14\": {\"In\": 1}, \"15\": {\"In\": 1}, \"16\": {\"O\": 1}, \"17\": {\"O\": 1}, \"18\": {\"O\": 1}, \"19\": {\"O\": 1}, \"20\": {\"O\": 1}, \"21\": {\"O\": 1}, \"22\": {\"O\": 1}, \"23\": {\"O\": 1}, \"24\": {\"O\": 1}, \"25\": {\"O\": 1}, \"26\": {\"O\": 1}, \"27\": {\"O\": 1}, \"28\": {\"O\": 1}, \"29\": {\"O\": 1}, \"30\": {\"O\": 1}, \"31\": {\"O\": 1}, \"32\": {\"O\": 1}, \"33\": {\"O\": 1}, \"34\": {\"O\": 1}, \"35\": {\"O\": 1}, \"36\": {\"O\": 1}, \"37\": {\"O\": 1}, \"38\": {\"O\": 1}, \"39\": {\"O\": 1}}" n_minim_iter=2 energy=-45152.61662714705 stress="-0.03088996055905247 4.7424721325551527e-14 4.3948109414330685e-13 4.7424721325551527e-14 -0.032528135296254625 4.5589935545965164e-14 4.3948109414330685e-13 4.5589935545965164e-14 -0.0320906829421251" free_energy=-45152.61662714705 pbc="T T T"
In       2.86849104       3.58150532       9.24385468        0      -0.00988128      -0.00000000       0.19359639
In      -0.05657549       3.58150532       7.03196630        1      -0.00988128       0.00000000      -0.19359639
In       2.98149763       1.19344003      15.16971251        2       0.00988128       0.00000000      -0.19359639
In       5.90656416       1.19344003       1.10610847        3       0.00988128       0.00000000       0.19359639
In       2.98149763       1.19344003       7.03196630        4       0.00988128      -0.00000000      -0.19359639
In       5.90656416       1.19344003       9.24385468        5       0.00988128      -0.00000000       0.19359639
In       2.86849104       3.58150532       1.10610847        6      -0.00988128      -0.00000000       0.19359639
In      -0.05657549       3.58150532      15.16971251        7      -0.00988128      -0.00000000      -0.19359639
In       2.98149763       3.58150532      13.31272779        8       0.00988128       0.00000000       0.19359639
In       5.90656416       3.58150532       2.96309319        9       0.00988128       0.00000000      -0.19359639
In       2.86849104       1.19344003      11.10083940       10      -0.00988128       0.00000000      -0.19359639
In      -0.05657549       1.19344003       5.17498158       11      -0.00988128      -0.00000000       0.19359639
In       2.86849104       1.19344003       2.96309319       12      -0.00988128      -0.00000000      -0.19359639
In      -0.05657549       1.19344003      13.31272779       13      -0.00988128      -0.00000000       0.19359639
In       2.98149763       3.58150532       5.17498158       14       0.00988128       0.00000000       0.19359639
In       5.90656416       3.58150532      11.10083940       15       0.00988128      -0.00000000      -0.19359639
O        5.10180771       3.58150532      13.00104977       16      -0.06001457      -0.00000000       0.12838192
O        2.17674118       3.58150532       3.27477121       17      -0.06001457       0.00000000      -0.12838192
O        0.74818095       1.19344003      11.41251742       18       0.06001457       0.00000000      -0.12838192
O        3.67324748       1.19344003       4.86330356       19       0.06001457      -0.00000000       0.12838192
O        0.74818095       1.19344003       3.27477121       20       0.06001457       0.00000000      -0.12838192
O        3.67324748       1.19344003      13.00104977       21       0.06001457       0.00000000       0.12838192
O        5.10180771       3.58150532       4.86330356       22      -0.06001457       0.00000000       0.12838192
O        2.17674118       3.58150532      11.41251742       23      -0.06001457       0.00000000      -0.12838192
O        4.38752760       2.38747267      10.17234704       24      -0.00000000       0.00000000       0.00000000
O        1.46246107       4.77553797       6.10347394       25      -0.00000000      -0.00000000       0.00000000
O        1.46246107      -0.00059262      14.24122015       26       0.00000000      -0.00000000      -0.00000000
O        4.38752760       2.38747267       2.03460083       27      -0.00000000       0.00000000       0.00000000
O        1.46246107       2.38747267       6.10347394       28      -0.00000000       0.00000000       0.00000000
O        4.38752760      -0.00059262      10.17234704       29      -0.00000000       0.00000000       0.00000000
O        4.38752760       4.77553797       2.03460083       30      -0.00000000       0.00000000      -0.00000000
O        1.46246107       2.38747267      14.24122015       31       0.00000000       0.00000000       0.00000000
O        3.67324748       3.58150532      15.48139053       32       0.06001457      -0.00000000      -0.12838192
O        0.74818095       3.58150532       0.79443045       33       0.06001457       0.00000000       0.12838192
O        2.17674118       1.19344003       8.93217667       34      -0.06001457      -0.00000000       0.12838192
O        5.10180771       1.19344003       7.34364431       35      -0.06001457      -0.00000000      -0.12838192
O        2.17674118       1.19344003       0.79443045       36      -0.06001457      -0.00000000       0.12838192
O        5.10180771       1.19344003      15.48139053       37      -0.06001457      -0.00000000      -0.12838192
O        3.67324748       3.58150532       7.34364431       38       0.06001457      -0.00000000      -0.12838192
O        0.74818095       3.58150532       8.93217667       39       0.06001457       0.00000000       0.12838192
40
Lattice="5.840900697789799 -5.68811534615463e-18 -2.2433906271395844e-17 -1.7802632463626784e-15 4.786986474093643 1.090685818531847e-16 3.0695794614665975e-16 3.544347253517956e-16 16.264250348394974" Properties=species:S:1:pos:R:3:spacegroup_kinds:I:1:forces:R:3 spacegroup="P 1" unit_cell=conventional occupancy="_JSON {\"0\": {\"In\": 1}, \"1\": {\"In\": 1}, \"2\": {\"In\": 1}, \"3\": {\"In\": 1}, \"4\": {\"In\": 1}, \"5\": {\"In\": 1}, \"6\": {\"In\": 1}, \"7\": {\"In\": 1}, \"8\": {\"In\": 1}, \"9\": {\"In\": 1}, \"10\": {\"In\": 1}, \"11\": {\"In\": 1}, \"12\": {\"In\": 1}, \"13\": {\"In\": 1}, \"14\": {\"In\": 1}, \"15\": {\"In\": 1}, \"16\": {\"O\": 1}, \"17\": {\"O\": 1}, \"18\": {\"O\": 1}, \"19\": {\"O\": 1}, \"20\": {\"O\": 1}, \"21\": {\"O\": 1}, \"22\": {\"O\": 1}, \"23\": {\"O\": 1}, \"24\": {\"O\": 1}, \"25\": {\"O\": 1}, \"26\": {\"O\": 1}, \"27\": {\"O\": 1}, \"28\": {\"O\": 1}, \"29\": {\"O\": 1}, \"30\": {\"O\": 1}, \"31\": {\"O\": 1}, \"32\": {\"O\": 1}, \"33\": {\"O\": 1}, \"34\": {\"O\": 1}, \"35\": {\"O\": 1}, \"36\": {\"O\": 1}, \"37\": {\"O\": 1}, \"38\": {\"O\": 1}, \"39\": {\"O\": 1}}" n_minim_iter=3 energy=-45152.61971459762 stress="-0.033840736819005734 1.3732376564445552e-13 2.1814864973796857e-13 1.3732376564445552e-13 -0.029101286298634746 2.528364450633202e-13 2.1814864973796857e-13 2.528364450633202e-13 -0.031690526411201" free_energy=-45152.61971459762 pbc="T T T"
In       2.86393381       3.58964589       9.23849751        0       0.00731826      -0.00000000       0.17585989
In      -0.05651653       3.58964589       7.02608117        1       0.00731826      -0.00000000      -0.17585989
In       2.97682271       1.19615265      15.15820634        2      -0.00731826      -0.00000000      -0.17585989
In       5.89727306       1.19615265       1.10637234        3      -0.00731826       0.00000000       0.17585989
In       2.97682271       1.19615265       7.02608117        4      -0.00731826      -0.00000000      -0.17585989
In       5.89727306       1.19615265       9.23849751        5      -0.00731826       0.00000000       0.17585989
In       2.86393381       3.58964589       1.10637234        6       0.00731826      -0.00000000       0.17585989
In      -0.05651653       3.58964589      15.15820634        7       0.00731826      -0.00000000      -0.17585989
In       2.97682271       3.58964589      13.30456010        8      -0.00731826       0.00000000       0.17585989
In       5.89727306       3.58964589       2.96001858        9      -0.00731826      -0.00000000      -0.17585989
In       2.86393381       1.19615265      11.09214375       10       0.00731826       0.00000000      -0.17585989
In      -0.05651653       1.19615265       5.17243492       11       0.00731826      -0.00000000       0.17585989
In       2.86393381       1.19615265       2.96001858       12       0.00731826      -0.00000000      -0.17585989
In      -0.05651653       1.19615265      13.30456010       13       0.00731826      -0.00000000       0.17585989
In       2.97682271       3.58964589       5.17243492       14      -0.00731826      -0.00000000       0.17585989
In       5.89727306       3.58964589      11.09214375       15      -0.00731826      -0.00000000      -0.17585989
O        5.09343304       3.58964589      12.99272378       16      -0.03470989      -0.00000000       0.10966478
O        2.17298269       3.58964589       3.27185490       17      -0.03470989       0.00000000      -0.10966478
O        0.74732349       1.19615265      11.40398007       18       0.03470989      -0.00000000      -0.10966478
O        3.66777384       1.19615265       4.86059860       19       0.03470989       0.00000000       0.10966478
O        0.74732349       1.19615265       3.27185490       20       0.03470989      -0.00000000      -0.10966478
O        3.66777384       1.19615265      12.99272378       21       0.03470989       0.00000000       0.10966478
O        5.09343304       3.58964589       4.86059860       22      -0.03470989       0.00000000       0.10966478
O        2.17298269       3.58964589      11.40398007       23      -0.03470989       0.00000000      -0.10966478
O        4.38060344       2.39289927      10.16532063       24       0.00000000       0.00000000       0.00000000
O        1.46015309       4.78639251       6.09925804       25       0.00000000      -0.00000000       0.00000000
O        1.46015309      -0.00059396      14.23138322       26       0.00000000       0.00000000      -0.00000000
O        4.38060344       2.39289927       2.03319546       27       0.00000000      -0.00000000      -0.00000000
O        1.46015309       2.39289927       6.09925804       28       0.00000000       0.00000000       0.00000000
O        4.38060344      -0.00059396      10.16532063       29      -0.00000000       0.00000000       0.00000000
O        4.38060344       4.78639251       2.03319546       30       0.00000000       0.00000000      -0.00000000
O        1.46015309       2.39289927      14.23138322       31      -0.00000000      -0.00000000      -0.00000000
O        3.66777384       3.58964589      15.47004266       32       0.03470989       0.00000000      -0.10966478
O        0.74732349       3.58964589       0.79453602       33       0.03470989       0.00000000       0.10966478
O        2.17298269       1.19615265       8.92666119       34      -0.03470989      -0.00000000       0.10966478
O        5.09343304       1.19615265       7.33791749       35      -0.03470989       0.00000000      -0.10966478
O        2.17298269       1.19615265       0.79453602       36      -0.03470989      -0.00000000       0.10966478
O        5.09343304       1.19615265      15.47004266       37      -0.03470989       0.00000000      -0.10966478
O        3.66777384       3.58964589       7.33791749       38       0.03470989       0.00000000      -0.10966478
O        0.74732349       3.58964589       8.92666119       39       0.03470989      -0.00000000       0.10966478
40
Lattice="5.864032613744782 2.7059599827395015e-18 -2.741328072329829e-17 -1.7804425587534828e-15 4.787832787838345 1.1771306882898527e-16 2.9407342432077073e-16 3.8567093890364086e-16 16.197228991668013" Properties=species:S:1:pos:R:3:spacegroup_kinds:I:1:forces:R:3 spacegroup="P 1" unit_cell=conventional occupancy="_JSON {\"0\": {\"In\": 1}, \"1\": {\"In\": 1}, \"2\": {\"In\": 1}, \"3\": {\"In\": 1}, \"4\": {\"In\": 1}, \"5\": {\"In\": 1}, \"6\": {\"In\": 1}, \"7\": {\"In\": 1}, \"8\": {\"In\": 1}, \"9\": {\"In\": 1}, \"10\": {\"In\": 1}, \"11\": {\"In\": 1}, \"12\": {\"In\": 1}, \"13\": {\"In\": 1}, \"14\": {\"In\": 1}, \"15\": {\"In\": 1}, \"16\": {\"O\": 1}, \"17\": {\"O\": 1}, \"18\": {\"O\": 1}, \"19\": {\"O\": 1}, \"20\": {\"O\": 1}, \"21\": {\"O\": 1}, \"22\": {\"O\": 1}, \"23\": {\"O\": 1}, \"24\": {\"O\": 1}, \"25\": {\"O\": 1}, \"26\": {\"O\": 1}, \"27\": {\"O\": 1}, \"28\": {\"O\": 1}, \"29\": {\"O\": 1}, \"30\": {\"O\": 1}, \"31\": {\"O\": 1}, \"32\": {\"O\": 1}, \"33\": {\"O\": 1}, \"34\": {\"O\": 1}, \"35\": {\"O\": 1}, \"36\": {\"O\": 1}, \"37\": {\"O\": 1}, \"38\": {\"O\": 1}, \"39\": {\"O\": 1}}" n_minim_iter=4 energy=-45152.634759867644 stress="-0.02693965633453866 -3.8830774960167677e-14 -3.6439349048714333e-13 -3.8830774960167677e-14 -0.028346029723307267 1.9840102259134e-14 -3.6439349048714333e-13 1.9840102259134e-14 -0.029139441617763537" free_energy=-45152.634759867644 pbc="T T T"
In       2.87517096       3.59028052       9.21009915        0      -0.00564991       0.00000000      -0.03724440
In      -0.05684535       3.59028052       6.98745682        1      -0.00564991       0.00000000       0.03724440
In       2.98871692       1.19636413      15.08607131        2       0.00564991       0.00000000       0.03724440
In       5.92073322       1.19636413       1.11148465        3       0.00564991       0.00000000      -0.03724440
In       2.98871692       1.19636413       6.98745682        4       0.00564991      -0.00000000       0.03724440
In       5.92073322       1.19636413       9.21009915        5       0.00564991       0.00000000      -0.03724440
In       2.87517096       3.59028052       1.11148465        6      -0.00564991       0.00000000      -0.03724440
In      -0.05684535       3.59028052      15.08607131        7      -0.00564991      -0.00000000       0.03724440
In       2.98871692       3.59028052      13.25940640        8       0.00564991       0.00000000      -0.03724440
In       5.92073322       3.59028052       2.93814957        9       0.00564991       0.00000000       0.03724440
In       2.87517096       1.19636413      11.03676407       10      -0.00564991       0.00000000       0.03724440
In      -0.05684535       1.19636413       5.16079190       11      -0.00564991       0.00000000      -0.03724440
In       2.87517096       1.19636413       2.93814957       12      -0.00564991       0.00000000       0.03724440
In      -0.05684535       1.19636413      13.25940640       13      -0.00564991       0.00000000      -0.03724440
In       2.98871692       3.59028052       5.16079190       14       0.00564991      -0.00000000      -0.03724440
In       5.92073322       3.59028052      11.03676407       15       0.00564991      -0.00000000       0.03724440
O        5.11082822       3.59028052      12.94530306       16       0.04815358      -0.00000000      -0.01894483
O        2.17881192       3.59028052       3.25225291       17       0.04815358       0.00000000       0.01894483
O        0.75305965       1.19636413      11.35086741       18      -0.04815358       0.00000000       0.01894483
O        3.68507596       1.19636413       4.84668856       19      -0.04815358       0.00000000      -0.01894483
O        0.75305965       1.19636413       3.25225291       20      -0.04815358      -0.00000000       0.01894483
O        3.68507596       1.19636413      12.94530306       21      -0.04815358       0.00000000      -0.01894483
O        5.11082822       3.59028052       4.84668856       22       0.04815358      -0.00000000      -0.01894483
O        2.17881192       3.59028052      11.35086741       23       0.04815358       0.00000000       0.01894483
O        4.39795209       2.39332232      10.12343161       24      -0.00000000      -0.00000000       0.00000000
O        1.46593578       4.78723872       6.07412436       25      -0.00000000       0.00000000      -0.00000000
O        1.46593578      -0.00059407      14.17273886       26      -0.00000000      -0.00000000       0.00000000
O        4.39795209       2.39332232       2.02481711       27      -0.00000000      -0.00000000       0.00000000
O        1.46593578       2.39332232       6.07412436       28      -0.00000000      -0.00000000      -0.00000000
O        4.39795209      -0.00059407      10.12343161       29      -0.00000000       0.00000000      -0.00000000
O        4.39795209       4.78723872       2.02481711       30      -0.00000000      -0.00000000       0.00000000
O        1.46593578       2.39332232      14.17273886       31      -0.00000000      -0.00000000       0.00000000
O        3.68507596       3.59028052      15.40017465       32      -0.04815358      -0.00000000       0.01894483
O        0.75305965       3.59028052       0.79738131       33      -0.04815358       0.00000000      -0.01894483
O        2.17881192       1.19636413       8.89599581       34       0.04815358      -0.00000000      -0.01894483
O        5.11082822       1.19636413       7.30156016       35       0.04815358      -0.00000000       0.01894483
O        2.17881192       1.19636413       0.79738131       36       0.04815358      -0.00000000      -0.01894483
O        5.11082822       1.19636413      15.40017465       37       0.04815358       0.00000000       0.01894483
O        3.68507596       3.59028052       7.30156016       38      -0.04815358      -0.00000000       0.01894483
O        0.75305965       3.59028052       8.89599581       39      -0.04815358      -0.00000000      -0.01894483
40
Lattice="5.85755452244146 7.26112964842495e-19 -2.7167754757043916e-17 -1.780089481786928e-15 4.786453420745835 8.067594478386926e-17 2.9449558770373704e-16 2.583111780048694e-16 16.219815023595526" Properties=species:S:1:pos:R:3:spacegroup_kinds:I:1:forces:R:3 spacegroup="P 1" unit_cell=conventional occupancy="_JSON {\"0\": {\"In\": 1}, \"1\": {\"In\": 1}, \"2\": {\"In\": 1}, \"3\": {\"In\": 1}, \"4\": {\"In\": 1}, \"5\": {\"In\": 1}, \"6\": {\"In\": 1}, \"7\": {\"In\": 1}, \"8\": {\"In\": 1}, \"9\": {\"In\": 1}, \"10\": {\"In\": 1}, \"11\": {\"In\": 1}, \"12\": {\"In\": 1}, \"13\": {\"In\": 1}, \"14\": {\"In\": 1}, \"15\": {\"In\": 1}, \"16\": {\"O\": 1}, \"17\": {\"O\": 1}, \"18\": {\"O\": 1}, \"19\": {\"O\": 1}, \"20\": {\"O\": 1}, \"21\": {\"O\": 1}, \"22\": {\"O\": 1}, \"23\": {\"O\": 1}, \"24\": {\"O\": 1}, \"25\": {\"O\": 1}, \"26\": {\"O\": 1}, \"27\": {\"O\": 1}, \"28\": {\"O\": 1}, \"29\": {\"O\": 1}, \"30\": {\"O\": 1}, \"31\": {\"O\": 1}, \"32\": {\"O\": 1}, \"33\": {\"O\": 1}, \"34\": {\"O\": 1}, \"35\": {\"O\": 1}, \"36\": {\"O\": 1}, \"37\": {\"O\": 1}, \"38\": {\"O\": 1}, \"39\": {\"O\": 1}}" n_minim_iter=5 energy=-45152.63665453857 stress="-0.02898507436696716 4.1712677709498586e-14 -1.0870018444050886e-13 4.1712677709498586e-14 -0.029015900864982475 1.6269937052264827e-13 -1.0870018444050886e-13 1.6269937052264827e-13 -0.028857942756898798" free_energy=-45152.63665453857 pbc="T T T"
In       2.87206165       3.58924617       9.22076125        0      -0.00040436      -0.00000000       0.00638426
In      -0.05671561       3.58924617       6.99938120        1      -0.00040436       0.00000000      -0.00638426
In       2.98534830       1.19601946      15.10928872        2       0.00040436      -0.00000000      -0.00638426
In       5.91412556       1.19601946       1.11085374        3       0.00040436      -0.00000000       0.00638426
In       2.98534830       1.19601946       6.99938120        4       0.00040436       0.00000000      -0.00638426
In       5.91412556       1.19601946       9.22076125        5       0.00040436      -0.00000000       0.00638426
In       2.87206165       3.58924617       1.11085374        6      -0.00040436      -0.00000000       0.00638426
In      -0.05671561       3.58924617      15.10928872        7      -0.00040436       0.00000000      -0.00638426
In       2.98534830       3.58924617      13.27571501        8       0.00040436       0.00000000       0.00638426
In       5.91412556       3.58924617       2.94442745        9       0.00040436      -0.00000000      -0.00638426
In       2.87206165       1.19601946      11.05433496       10      -0.00040436      -0.00000000      -0.00638426
In      -0.05671561       1.19601946       5.16580749       11      -0.00040436      -0.00000000       0.00638426
In       2.87206165       1.19601946       2.94442745       12      -0.00040436       0.00000000      -0.00638426
In      -0.05671561       1.19601946      13.27571501       13      -0.00040436       0.00000000       0.00638426
In       2.98534830       3.58924617       5.16580749       14       0.00040436       0.00000000       0.00638426
In       5.91412556       3.58924617      11.05433496       15       0.00040436      -0.00000000      -0.00638426
O        5.10625497       3.58924617      12.96192106       16       0.02202549       0.00000000       0.00121915
O        2.17747771       3.58924617       3.25822140       17       0.02202549      -0.00000000      -0.00121915
O        0.75115497       1.19601946      11.36812891       18      -0.02202549      -0.00000000      -0.00121915
O        3.67993223       1.19601946       4.85201355       19      -0.02202549       0.00000000       0.00121915
O        0.75115497       1.19601946       3.25822140       20      -0.02202549       0.00000000      -0.00121915
O        3.67993223       1.19601946      12.96192106       21      -0.02202549       0.00000000       0.00121915
O        5.10625497       3.58924617       4.85201355       22       0.02202549      -0.00000000       0.00121915
O        2.17747771       3.58924617      11.36812891       23       0.02202549      -0.00000000      -0.00121915
O        4.39309360       2.39263281      10.13754811       24       0.00000000       0.00000000       0.00000000
O        1.46431634       4.78585952       6.08259435       25      -0.00000000      -0.00000000       0.00000000
O        1.46431634      -0.00059390      14.19250186       26      -0.00000000      -0.00000000       0.00000000
O        4.39309360       2.39263281       2.02764059       27       0.00000000       0.00000000       0.00000000
O        1.46431634       2.39263281       6.08259435       28       0.00000000       0.00000000      -0.00000000
O        4.39309360      -0.00059390      10.13754811       29      -0.00000000       0.00000000       0.00000000
O        4.39309360       4.78585952       2.02764059       30      -0.00000000      -0.00000000       0.00000000
O        1.46431634       2.39263281      14.19250186       31       0.00000000      -0.00000000       0.00000000
O        3.67993223       3.58924617      15.42308267       32      -0.02202549      -0.00000000      -0.00121915
O        0.75115497       3.58924617       0.79705979       33      -0.02202549      -0.00000000       0.00121915
O        2.17747771       1.19601946       8.90696730       34       0.02202549       0.00000000       0.00121915
O        5.10625497       1.19601946       7.31317515       35       0.02202549       0.00000000      -0.00121915
O        2.17747771       1.19601946       0.79705979       36       0.02202549       0.00000000       0.00121915
O        5.10625497       1.19601946      15.42308267       37       0.02202549       0.00000000      -0.00121915
O        3.67993223       3.58924617       7.31317515       38      -0.02202549      -0.00000000      -0.00121915
O        0.75115497       3.58924617       8.90696730       39      -0.02202549       0.00000000       0.00121915
40