40
Lattice="5.898436742659328 1.7952761784450752e-42 0.0 -4.2042042056131523e-44 4.813448125789248 0.0 0.0 0.0 16.47469215373935" Properties=species:S:1:pos:R:3:spacegroup_kinds:I:1:forces:R:3 spacegroup="P 1" unit_cell=conventional occupancy="_JSON {\"0\": {\"In\": 1}, \"1\": {\"In\": 1}, \"2\": {\"In\": 1}, \"3\": {\"In\": 1}, \"4\": {\"In\": 1}, \"5\": {\"In\": 1}, \"6\": {\"In\": 1}, \"7\": {\"In\": 1}, \"8\": {\"In\": 1}, \"9\": {\"In\": 1}, \"10\": {\"In\": 1}, \"11\": {\"In\": 1}, \"12\": {\"In\": 1}, \"13\": {\"In\": 1}, \"14\": {\"In\": 1}, \"15\": {\"In\": 1}, \"16\": {\"O\": 1}, \"17\": {\"O\": 1}, \"18\": {\"O\": 1}, \"19\": {\"O\": 1}, \"20\": {\"O\": 1}, \"21\": {\"O\": 1}, \"22\": {\"O\": 1}, \"23\": {\"O\": 1}, \"24\": {\"O\": 1}, \"25\": {\"O\": 1}, \"26\": {\"O\": 1}, \"27\": {\"O\": 1}, \"28\": {\"O\": 1}, \"29\": {\"O\": 1}, \"30\": {\"O\": 1}, \"31\": {\"O\": 1}, \"32\": {\"O\": 1}, \"33\": {\"O\": 1}, \"34\": {\"O\": 1}, \"35\": {\"O\": 1}, \"36\": {\"O\": 1}, \"37\": {\"O\": 1}, \"38\": {\"O\": 1}, \"39\": {\"O\": 1}}" n_minim_iter=43 energy=-45152.93659361327 stress="-0.01757076907945411 1.5919241474633258e-13 -5.832399660378823e-14 1.5919241474633258e-13 -0.017592227331648103 1.0125911399994061e-13 -5.832399660378823e-14 1.0125911399994061e-13 -0.017485426482854085" free_energy=-45152.93659361327 pbc="T T T"
In       2.89213537       3.60948885       9.35680216        0       0.00046207       0.00461493      -0.00587736
In      -0.05708300       3.61068334       7.11789000        1       0.00046207      -0.00461493       0.00587736
In       3.00630137       1.20276478      15.35523607        2      -0.00046207       0.00461493       0.00587736
In       5.95551975       1.20395928       1.11945608        3      -0.00046207      -0.00461493      -0.00587736
In       3.00630137       1.20395928       7.11789000        4      -0.00046207      -0.00461493       0.00587736
In       5.95551975       1.20276478       9.35680216        5      -0.00046207       0.00461493      -0.00587736
In       2.89213537       3.61068334       1.11945608        6       0.00046207      -0.00461493      -0.00587736
In      -0.05708300       3.60948885      15.35523607        7       0.00046207       0.00461493       0.00587736
In       3.00615579       3.60964355      13.47514262        8       0.00200103       0.00080437       0.00043765
In       5.95537416       3.61052864       2.99954953        9       0.00200103      -0.00080437      -0.00043765
In       2.89228096       1.20291948      11.23689561       10      -0.00200103       0.00080437      -0.00043765
In      -0.05693741       1.20380458       5.23779654       11      -0.00200103      -0.00080437       0.00043765
In       2.89228096       1.20380458       2.99954953       12      -0.00200103      -0.00080437      -0.00043765
In      -0.05693741       1.20291948      13.47514262       13      -0.00200103       0.00080437       0.00043765
In       3.00615579       3.61052864       5.23779654       14       0.00200103      -0.00080437       0.00043765
In       5.95537416       3.60964355      11.23689561       15       0.00200103       0.00080437      -0.00043765
O        5.14415944       3.61021170      13.16000424       16      -0.00269592      -0.00049776       0.00045050
O        2.19494107       3.60996049       3.31468791       17      -0.00269592       0.00049776      -0.00045050
O        0.75427730       1.20348764      11.55203399       18       0.00269592      -0.00049776      -0.00045050
O        3.70349567       1.20323643       4.92265817       19       0.00269592       0.00049776       0.00045050
O        0.75427730       1.20323643       3.31468791       20       0.00269592       0.00049776      -0.00045050
O        3.70349567       1.20348764      13.16000424       21       0.00269592      -0.00049776       0.00045050
O        5.14415944       3.60996049       4.92265817       22      -0.00269592       0.00049776       0.00045050
O        2.19494107       3.61021170      11.55203399       23      -0.00269592      -0.00049776      -0.00045050
O        4.42384067       2.40661100      10.29676848       24       0.00100384      -0.00229821       0.00022718
O        1.47462230       4.81356119       6.17792367       25       0.00100384       0.00229821      -0.00022718
O        1.47459607      -0.00011307      14.41526975       26      -0.00100384      -0.00229821      -0.00022718
O        4.42381444       2.40683713       2.05942240       27      -0.00100384       0.00229821       0.00022718
O        1.47459607       2.40683713       6.17792367       28      -0.00100384       0.00229821      -0.00022718
O        4.42381444      -0.00011307      10.29676848       29      -0.00100384      -0.00229821       0.00022718
O        4.42384067       4.81356119       2.05942240       30       0.00100384       0.00229821       0.00022718
O        1.47462230       2.40661100      14.41526975       31       0.00100384      -0.00229821      -0.00022718
O        3.70367467       3.61062040      15.67083277       32      -0.00240095      -0.00201980      -0.00000959
O        0.75445630       3.60955179       0.80385939       33      -0.00240095       0.00201980       0.00000959
O        2.19476207       1.20389634       9.04120547       34       0.00240095      -0.00201980       0.00000959
O        5.14398044       1.20282772       7.43348669       35       0.00240095       0.00201980      -0.00000959
O        2.19476207       1.20282772       0.80385939       36       0.00240095       0.00201980       0.00000959
O        5.14398044       1.20389634      15.67083277       37       0.00240095      -0.00201980      -0.00000959
O        3.70367467       3.60955179       7.43348669       38      -0.00240095       0.00201980      -0.00000959
O        0.75445630       3.61062040       9.04120547       39      -0.00240095      -0.00201980       0.00000959
