40
Lattice="5.530968698834408 -1.674124847287075e-42 0.0 3.172312394828873e-42 5.7380058277559 0.0 0.0 0.0 15.96652666830603" Properties=species:S:1:pos:R:3:spacegroup_kinds:I:1:forces:R:3 spacegroup="P 1" unit_cell=conventional occupancy="_JSON {\"0\": {\"In\": 1}, \"1\": {\"In\": 1}, \"2\": {\"In\": 1}, \"3\": {\"In\": 1}, \"4\": {\"In\": 1}, \"5\": {\"In\": 1}, \"6\": {\"In\": 1}, \"7\": {\"In\": 1}, \"8\": {\"In\": 1}, \"9\": {\"In\": 1}, \"10\": {\"In\": 1}, \"11\": {\"In\": 1}, \"12\": {\"In\": 1}, \"13\": {\"In\": 1}, \"14\": {\"In\": 1}, \"15\": {\"In\": 1}, \"16\": {\"O\": 1}, \"17\": {\"O\": 1}, \"18\": {\"O\": 1}, \"19\": {\"O\": 1}, \"20\": {\"O\": 1}, \"21\": {\"O\": 1}, \"22\": {\"O\": 1}, \"23\": {\"O\": 1}, \"24\": {\"O\": 1}, \"25\": {\"O\": 1}, \"26\": {\"O\": 1}, \"27\": {\"O\": 1}, \"28\": {\"O\": 1}, \"29\": {\"O\": 1}, \"30\": {\"O\": 1}, \"31\": {\"O\": 1}, \"32\": {\"O\": 1}, \"33\": {\"O\": 1}, \"34\": {\"O\": 1}, \"35\": {\"O\": 1}, \"36\": {\"O\": 1}, \"37\": {\"O\": 1}, \"38\": {\"O\": 1}, \"39\": {\"O\": 1}}" n_minim_iter=16 energy=-45150.258545011966 stress="-0.004755186720411145 4.381829033841541e-13 -5.158173396394477e-14 4.381829033841541e-13 -0.004783364327988262 -4.2258950906073623e-13 -5.158173396394477e-14 -4.2258950906073623e-13 -0.004792818873044999" free_energy=-45150.258545011966 pbc="T T T"
In       2.76108200       4.60434436       9.12308705        0      -0.00006766      -0.00074549      -0.00002307
In      -0.00440235       4.00266438       6.84343962        1      -0.00006766       0.00074549       0.00002307
In       2.76988670       1.73534145      14.82670295        2       0.00006766      -0.00074549       0.00002307
In       5.53537105       1.13366147       1.13982372        3       0.00006766       0.00074549      -0.00002307
In       2.76988670       1.13366147       6.84343962        4       0.00006766       0.00074549       0.00002307
In       5.53537105       1.73534145       9.12308705        5       0.00006766      -0.00074549      -0.00002307
In       2.76108200       4.00266438       1.13982372        6      -0.00006766       0.00074549      -0.00002307
In      -0.00440235       4.60434436      14.82670295        7      -0.00006766      -0.00074549       0.00002307
In       2.75699124       4.31491169      13.06897529        8       0.00355897       0.00099906      -0.00204567
In       5.52247559       4.29209706       2.89755138        9       0.00355897      -0.00099906       0.00204567
In       2.77397745       1.44590877      10.88081472       10      -0.00355897       0.00099906       0.00204567
In       0.00849310       1.42309414       5.08571195       11      -0.00355897      -0.00099906      -0.00204567
In       2.77397745       1.42309414       2.89755138       12      -0.00355897      -0.00099906       0.00204567
In       0.00849310       1.44590877      13.06897529       13      -0.00355897       0.00099906      -0.00204567
In       2.75699124       4.29209706       5.08571195       14       0.00355897      -0.00099906      -0.00204567
In       5.52247559       4.31491169      10.88081472       15       0.00355897       0.00099906       0.00204567
O        4.75474265       5.08797048      12.74202771       16      -0.00353412      -0.00131766       0.00027087
O        1.98925830       3.51903826       3.22449895       17      -0.00353412       0.00131766      -0.00027087
O        0.77622604       2.21896757      11.20776229       18       0.00353412      -0.00131766      -0.00027087
O        3.54171039       0.65003534       4.75876438       19       0.00353412       0.00131766       0.00027087
O        0.77622604       0.65003534       3.22449895       20       0.00353412       0.00131766      -0.00027087
O        3.54171039       2.21896757      12.74202771       21       0.00353412      -0.00131766       0.00027087
O        4.75474265       3.51903826       4.75876438       22      -0.00353412       0.00131766       0.00027087
O        1.98925830       5.08797048      11.20776229       23      -0.00353412      -0.00131766      -0.00027087
O        3.91502560       3.04551949       9.97407902       24       0.00045812       0.00028951      -0.00055777
O        1.14954125       5.56148925       5.99244765       25       0.00045812      -0.00028951       0.00055777
O        1.61594310       0.17651658      13.97571099       26      -0.00045812       0.00028951       0.00055777
O        4.38142745       2.69248634       1.99081568       27      -0.00045812      -0.00028951      -0.00055777
O        1.61594310       2.69248634       5.99244765       28      -0.00045812      -0.00028951       0.00055777
O        4.38142745       0.17651658       9.97407902       29      -0.00045812       0.00028951      -0.00055777
O        3.91502560       5.56148925       1.99081568       30       0.00045812      -0.00028951      -0.00055777
O        1.14954125       3.04551949      13.97571099       31       0.00045812       0.00028951       0.00055777
O        3.56978770       3.80147153      15.13244912       32      -0.00153364      -0.00000635       0.00175212
O        0.80430335       4.80553721       0.83407755       33      -0.00153364       0.00000635      -0.00175212
O        1.96118100       0.93246862       8.81734089       34       0.00153364      -0.00000635      -0.00175212
O        4.72666535       1.93653430       7.14918578       35       0.00153364       0.00000635       0.00175212
O        1.96118100       1.93653430       0.83407755       36       0.00153364       0.00000635      -0.00175212
O        4.72666535       0.93246862      15.13244912       37       0.00153364      -0.00000635       0.00175212
O        3.56978770       4.80553721       7.14918578       38      -0.00153364       0.00000635       0.00175212
O        0.80430335       3.80147153       8.81734089       39      -0.00153364      -0.00000635      -0.00175212
