40
Lattice="5.893932198718289 -1.3043454380062979e-43 0.0 1.1846031110536088e-42 6.159989473370523 0.0 0.0 0.0 17.17766627713397" Properties=species:S:1:pos:R:3:spacegroup_kinds:I:1:forces:R:3 spacegroup="P 1" unit_cell=conventional occupancy="_JSON {\"0\": {\"In\": 1}, \"1\": {\"In\": 1}, \"2\": {\"In\": 1}, \"3\": {\"In\": 1}, \"4\": {\"In\": 1}, \"5\": {\"In\": 1}, \"6\": {\"In\": 1}, \"7\": {\"In\": 1}, \"8\": {\"In\": 1}, \"9\": {\"In\": 1}, \"10\": {\"In\": 1}, \"11\": {\"In\": 1}, \"12\": {\"In\": 1}, \"13\": {\"In\": 1}, \"14\": {\"In\": 1}, \"15\": {\"In\": 1}, \"16\": {\"O\": 1}, \"17\": {\"O\": 1}, \"18\": {\"O\": 1}, \"19\": {\"O\": 1}, \"20\": {\"O\": 1}, \"21\": {\"O\": 1}, \"22\": {\"O\": 1}, \"23\": {\"O\": 1}, \"24\": {\"O\": 1}, \"25\": {\"O\": 1}, \"26\": {\"O\": 1}, \"27\": {\"O\": 1}, \"28\": {\"O\": 1}, \"29\": {\"O\": 1}, \"30\": {\"O\": 1}, \"31\": {\"O\": 1}, \"32\": {\"O\": 1}, \"33\": {\"O\": 1}, \"34\": {\"O\": 1}, \"35\": {\"O\": 1}, \"36\": {\"O\": 1}, \"37\": {\"O\": 1}, \"38\": {\"O\": 1}, \"39\": {\"O\": 1}}" n_minim_iter=15 energy=-45149.75853411555 stress="0.020126228879604118 5.4572559801430193e-14 4.38444047166773e-13 5.4572559801430193e-14 0.020072913125843528 -4.5060855741584787e-13 4.38444047166773e-13 -4.5060855741584787e-13 0.020104550625233263" free_energy=-45149.75853411555 pbc="T T T"
In       2.63417072       5.17266983       9.96710397        0       0.00023992      -0.00001956      -0.00221357
In      -0.31279538       4.06731438       7.21056231        1       0.00023992       0.00001956       0.00221357
In       3.25976148       2.09267509      15.79939545        2      -0.00023992      -0.00001956       0.00221357
In       6.20672758       0.98731965       1.37827083        3      -0.00023992       0.00001956      -0.00221357
In       3.25976148       0.98731965       7.21056231        4      -0.00023992       0.00001956       0.00221357
In       6.20672758       2.09267509       9.96710397        5      -0.00023992      -0.00001956      -0.00221357
In       2.63417072       4.06731438       1.37827083        6       0.00023992       0.00001956      -0.00221357
In      -0.31279538       5.17266983      15.79939545        7       0.00023992      -0.00001956       0.00221357
In       2.61398481       4.78360000      13.90528736        8      -0.00110677      -0.00592019      -0.00316409
In       5.56095091       4.45638421       3.27237891        9      -0.00110677       0.00592019       0.00316409
In       3.27994739       1.70360526      11.86121205       10       0.00110677      -0.00592019       0.00316409
In       0.33298129       1.37638947       5.31645422       11       0.00110677       0.00592019      -0.00316409
In       3.27994739       1.37638947       3.27237891       12       0.00110677       0.00592019       0.00316409
In       0.33298129       1.70360526      13.90528736       13       0.00110677      -0.00592019      -0.00316409
In       2.61398481       4.45638421       5.31645422       14      -0.00110677       0.00592019      -0.00316409
In       5.56095091       4.78360000      11.86121205       15      -0.00110677      -0.00592019       0.00316409
O        4.77551823       5.77773096      13.62603517       16       0.00559462       0.00501589       0.00159367
O        1.82855213       3.46225325       3.55163110       17       0.00559462      -0.00501589      -0.00159367
O        1.11841397       2.69773622      12.14046424       18      -0.00559462       0.00501589      -0.00159367
O        4.06538007       0.38225852       5.03720204       19      -0.00559462      -0.00501589       0.00159367
O        1.11841397       0.38225852       3.55163110       20      -0.00559462      -0.00501589      -0.00159367
O        4.06538007       2.69773622      13.62603517       21      -0.00559462       0.00501589       0.00159367
O        4.77551823       3.46225325       5.03720204       22       0.00559462      -0.00501589       0.00159367
O        1.82855213       5.77773096      12.14046424       23       0.00559462       0.00501589      -0.00159367
O        4.08661798       3.54232997      10.80101813       24      -0.00120536      -0.00334482      -0.00171897
O        1.13965188       5.69765424       6.37664815       25      -0.00120536       0.00334482       0.00171898
O        1.80731422       0.46233523      14.96548129       26       0.00120536      -0.00334482       0.00171898
O        4.75428032       2.61765950       2.21218499       27       0.00120536       0.00334482      -0.00171898
O        1.80731422       2.61765950       6.37664815       28       0.00120536       0.00334482       0.00171897
O        4.75428032       0.46233523      10.80101813       29       0.00120536      -0.00334482      -0.00171898
O        4.08661798       5.69765424       2.21218499       30      -0.00120536       0.00334482      -0.00171898
O        1.13965188       3.54232997      14.96548129       31      -0.00120536      -0.00334482       0.00171897
O        3.68364010       4.16908124      16.34209581       32       0.00123372      -0.00022943       0.00065132
O        0.73667401       5.07090297       0.83557047       33       0.00123372       0.00022943      -0.00065132
O        2.21029209       1.08908650       9.42440361       34      -0.00123372      -0.00022943      -0.00065132
O        5.15725819       1.99090823       7.75326267       35      -0.00123372       0.00022943       0.00065132
O        2.21029209       1.99090823       0.83557047       36      -0.00123372       0.00022943      -0.00065132
O        5.15725819       1.08908650      16.34209581       37      -0.00123372      -0.00022943       0.00065132
O        3.68364010       5.07090297       7.75326267       38       0.00123372       0.00022943       0.00065132
O        0.73667401       4.16908124       9.42440361       39       0.00123372      -0.00022943      -0.00065132
