40
Lattice="5.4869257857623275 -1.3940899743556135e-42 0.0 1.5331560604282747e-42 5.698788821849676 0.0 0.0 0.0 15.789921689113529" Properties=species:S:1:pos:R:3:spacegroup_kinds:I:1:forces:R:3 spacegroup="P 1" unit_cell=conventional occupancy="_JSON {\"0\": {\"In\": 1}, \"1\": {\"In\": 1}, \"2\": {\"In\": 1}, \"3\": {\"In\": 1}, \"4\": {\"In\": 1}, \"5\": {\"In\": 1}, \"6\": {\"In\": 1}, \"7\": {\"In\": 1}, \"8\": {\"In\": 1}, \"9\": {\"In\": 1}, \"10\": {\"In\": 1}, \"11\": {\"In\": 1}, \"12\": {\"In\": 1}, \"13\": {\"In\": 1}, \"14\": {\"In\": 1}, \"15\": {\"In\": 1}, \"16\": {\"O\": 1}, \"17\": {\"O\": 1}, \"18\": {\"O\": 1}, \"19\": {\"O\": 1}, \"20\": {\"O\": 1}, \"21\": {\"O\": 1}, \"22\": {\"O\": 1}, \"23\": {\"O\": 1}, \"24\": {\"O\": 1}, \"25\": {\"O\": 1}, \"26\": {\"O\": 1}, \"27\": {\"O\": 1}, \"28\": {\"O\": 1}, \"29\": {\"O\": 1}, \"30\": {\"O\": 1}, \"31\": {\"O\": 1}, \"32\": {\"O\": 1}, \"33\": {\"O\": 1}, \"34\": {\"O\": 1}, \"35\": {\"O\": 1}, \"36\": {\"O\": 1}, \"37\": {\"O\": 1}, \"38\": {\"O\": 1}, \"39\": {\"O\": 1}}" n_minim_iter=10 energy=-45150.17401605933 stress="-0.0077938117034813134 3.8439933525255395e-14 1.8088391331909649e-13 3.8439933525255395e-14 -0.00791568771750627 4.446673688849398e-13 1.8088391331909649e-13 4.446673688849398e-13 -0.00784293293283302" free_energy=-45150.17401605933 pbc="T T T"
In       2.74203891       4.57001225       9.02941426        0      -0.00087986       0.00468567      -0.00015334
In      -0.00142398       3.97817098       6.76050743        1      -0.00087986      -0.00468567       0.00015334
In       2.74488688       1.72061784      14.65546827        2       0.00087986       0.00468567       0.00015334
In       5.48834977       1.12877657       1.13445342        3       0.00087986      -0.00468567      -0.00015334
In       2.74488688       1.12877657       6.76050743        4       0.00087986      -0.00468567       0.00015334
In       5.48834977       1.72061784       9.02941426        5       0.00087986       0.00468567      -0.00015334
In       2.74203891       3.97817098       1.13445342        6      -0.00087986      -0.00468567      -0.00015334
In      -0.00142398       4.57001225      14.65546827        7      -0.00087986       0.00468567       0.00015334
In       2.74169426       4.28941861      12.92055976        8       0.00080601       0.00587211      -0.00155745
In       5.48515715       4.25876462       2.86936193        9       0.00080601      -0.00587211       0.00155745
In       2.74523153       1.44002420      10.76432277       10      -0.00080601       0.00587211       0.00155745
In       0.00176864       1.40937021       5.02559892       11      -0.00080601      -0.00587211      -0.00155745
In       2.74523153       1.40937021       2.86936193       12      -0.00080601      -0.00587211       0.00155745
In       0.00176864       1.44002420      12.92055976       13      -0.00080601       0.00587211      -0.00155745
In       2.74169426       4.25876462       5.02559892       14       0.00080601      -0.00587211      -0.00155745
In       5.48515715       4.28941861      10.76432277       15       0.00080601       0.00587211       0.00155745
O        4.71709538       5.06297222      12.60001814       16       0.00051523       0.00160536      -0.00123309
O        1.97363248       3.48521101       3.18990355       17       0.00051523      -0.00160536       0.00123309
O        0.76983041       2.21357781      11.08486440       18      -0.00051523       0.00160536       0.00123309
O        3.51329330       0.63581660       4.70505729       19      -0.00051523      -0.00160536      -0.00123309
O        0.76983041       0.63581660       3.18990355       20      -0.00051523      -0.00160536       0.00123309
O        3.51329330       2.21357781      12.60001814       21      -0.00051523       0.00160536      -0.00123309
O        4.71709538       3.48521101       4.70505729       22       0.00051523      -0.00160536      -0.00123309
O        1.97363248       5.06297222      11.08486440       23       0.00051523       0.00160536       0.00123309
O        3.89392983       3.02549309       9.88008296       24      -0.00286503       0.00765717      -0.00289519
O        1.15046694       5.52269014       5.90983873       25      -0.00286503      -0.00765717       0.00289519
O        1.59299595       0.17609868      13.80479957       26       0.00286503       0.00765717       0.00289519
O        4.33645885       2.67329573       1.98512212       27       0.00286503      -0.00765717      -0.00289519
O        1.59299595       2.67329573       5.90983873       28       0.00286503      -0.00765717       0.00289519
O        4.33645885       0.17609868       9.88008296       29       0.00286503       0.00765717      -0.00289519
O        3.89392983       5.52269014       1.98512212       30      -0.00286503      -0.00765717      -0.00289519
O        1.15046694       3.02549309      13.80479957       31      -0.00286503       0.00765717       0.00289519
O        3.53623959       3.77527905      14.96082687       32       0.00151746       0.00237993      -0.00534458
O        0.79277669       4.77290419       0.82909482       33       0.00151746      -0.00237993       0.00534458
O        1.95068620       0.92588464       8.72405566       34      -0.00151746       0.00237993       0.00534458
O        4.69414909       1.92350977       7.06586603       35      -0.00151746      -0.00237993      -0.00534458
O        1.95068620       1.92350977       0.82909482       36      -0.00151746      -0.00237993       0.00534458
O        4.69414909       0.92588464      14.96082687       37      -0.00151746       0.00237993      -0.00534458
O        3.53623959       4.77290419       7.06586603       38       0.00151746      -0.00237993      -0.00534458
O        0.79277669       3.77527905       8.72405566       39       0.00151746       0.00237993       0.00534458
