40
Lattice="5.873254618076931 5.0242264145807755e-16 -1.4512784192685813e-15 -2.2370993917560027e-16 4.087244312673437 3.235183514264281e-15 7.025503428018535e-17 -1.0413974607364866e-14 16.237525909493613" Properties=species:S:1:pos:R:3:spacegroup_kinds:I:1:forces:R:3 spacegroup="P 1" unit_cell=conventional occupancy="_JSON {\"0\": {\"In\": 1}, \"1\": {\"In\": 1}, \"2\": {\"In\": 1}, \"3\": {\"In\": 1}, \"4\": {\"In\": 1}, \"5\": {\"In\": 1}, \"6\": {\"In\": 1}, \"7\": {\"In\": 1}, \"8\": {\"In\": 1}, \"9\": {\"In\": 1}, \"10\": {\"In\": 1}, \"11\": {\"In\": 1}, \"12\": {\"In\": 1}, \"13\": {\"In\": 1}, \"14\": {\"In\": 1}, \"15\": {\"In\": 1}, \"16\": {\"O\": 1}, \"17\": {\"O\": 1}, \"18\": {\"O\": 1}, \"19\": {\"O\": 1}, \"20\": {\"O\": 1}, \"21\": {\"O\": 1}, \"22\": {\"O\": 1}, \"23\": {\"O\": 1}, \"24\": {\"O\": 1}, \"25\": {\"O\": 1}, \"26\": {\"O\": 1}, \"27\": {\"O\": 1}, \"28\": {\"O\": 1}, \"29\": {\"O\": 1}, \"30\": {\"O\": 1}, \"31\": {\"O\": 1}, \"32\": {\"O\": 1}, \"33\": {\"O\": 1}, \"34\": {\"O\": 1}, \"35\": {\"O\": 1}, \"36\": {\"O\": 1}, \"37\": {\"O\": 1}, \"38\": {\"O\": 1}, \"39\": {\"O\": 1}}" n_minim_iter=8 energy=-45152.16409139668 stress="0.03092875197899015 2.3296612006581214e-14 2.385046152469781e-13 2.3296612006581214e-14 0.031677098667728755 -1.9249264290947053e-13 2.385046152469781e-13 -1.9249264290947053e-13 0.031047612813638343" free_energy=-45152.16409139668 pbc="T T T"
In       2.79366748       3.06492609       9.21217039        0      -0.00674892       0.00000000      -0.00020839
In      -0.14295983       3.06492609       7.02568331        1      -0.00674892      -0.00000000       0.00020839
In       3.07944217       1.02130394      15.14444627        2       0.00674892       0.00000000       0.00020839
In       6.01606948       1.02130394       1.09340743        3       0.00674892       0.00000000      -0.00020839
In       3.07944217       1.02130394       7.02568331        4       0.00674892       0.00000000       0.00020839
In       6.01606948       1.02130394       9.21217039        5       0.00674892       0.00000000      -0.00020839
In       2.79366748       3.06492609       1.09340743        6      -0.00674892       0.00000000      -0.00020839
In      -0.14295983       3.06492609      15.14444627        7      -0.00674892       0.00000000       0.00020839
In       3.07944217       3.06492609      13.27155186        8       0.00674892       0.00000000      -0.00020839
In       6.01606948       3.06492609       2.96630184        9       0.00674892      -0.00000000       0.00020839
In       2.79366748       1.02130394      11.08506479       10      -0.00674892      -0.00000000       0.00020839
In      -0.14295983       1.02130394       5.15278891       11      -0.00674892      -0.00000000      -0.00020839
In       2.79366748       1.02130394       2.96630184       12      -0.00674892      -0.00000000       0.00020839
In      -0.14295983       1.02130394      13.27155186       13      -0.00674892       0.00000000      -0.00020839
In       3.07944217       3.06492609       5.15278891       14       0.00674892       0.00000000      -0.00020839
In       6.01606948       3.06492609      11.08506479       15       0.00674892       0.00000000       0.00020839
O        5.14433539       3.06492609      12.93678772       16      -0.00546400      -0.00000000      -0.00504040
O        2.20770808       3.06492609       3.30106598       17      -0.00546400       0.00000000       0.00504040
O        0.72877427       1.02130394      11.41982893       18       0.00546400      -0.00000000       0.00504040
O        3.66540157       1.02130394       4.81802477       19       0.00546400      -0.00000000      -0.00504040
O        0.72877427       1.02130394       3.30106598       20       0.00546400      -0.00000000       0.00504040
O        3.66540157       1.02130394      12.93678772       21       0.00546400      -0.00000000      -0.00504040
O        5.14433539       3.06492609       4.81802477       22      -0.00546400      -0.00000000      -0.00504040
O        2.20770808       3.06492609      11.41982893       23      -0.00546400      -0.00000000       0.00504040
O        4.40486848       2.04311501      10.14861759       24      -0.00000000      -0.00000000      -0.00000000
O        1.46824117       4.08673717       6.08923611       25      -0.00000000      -0.00000000       0.00000000
O        1.46824117      -0.00050714      14.20799907       26      -0.00000000       0.00000000      -0.00000000
O        4.40486848       2.04311501       2.02985463       27      -0.00000000       0.00000000       0.00000000
O        1.46824117       2.04311501       6.08923611       28      -0.00000000       0.00000000       0.00000000
O        4.40486848      -0.00050714      10.14861759       29      -0.00000000      -0.00000000       0.00000000
O        4.40486848       4.08673717       2.02985463       30      -0.00000000      -0.00000000      -0.00000000
O        1.46824117       2.04311501      14.20799907       31      -0.00000000       0.00000000      -0.00000000
O        3.66540157       3.06492609      15.47921041       32       0.00546400      -0.00000000       0.00504040
O        0.72877427       3.06492609       0.75864329       33       0.00546400      -0.00000000      -0.00504040
O        2.20770808       1.02130394       8.87740624       34      -0.00546400       0.00000000      -0.00504040
O        5.14433539       1.02130394       7.36044746       35      -0.00546400      -0.00000000       0.00504040
O        2.20770808       1.02130394       0.75864329       36      -0.00546400       0.00000000      -0.00504040
O        5.14433539       1.02130394      15.47921041       37      -0.00546400      -0.00000000       0.00504040
O        3.66540157       3.06492609       7.36044746       38       0.00546400       0.00000000       0.00504040
O        0.72877427       3.06492609       8.87740624       39       0.00546400      -0.00000000      -0.00504040
