40
Lattice="5.762726682119639 -2.7816929850066237e-42 0.0 2.9052081479443207e-42 6.018608308504704 0.0 0.0 0.0 17.23224095414294" Properties=species:S:1:pos:R:3:spacegroup_kinds:I:1:forces:R:3 spacegroup="P 1" unit_cell=conventional occupancy="_JSON {\"0\": {\"In\": 1}, \"1\": {\"In\": 1}, \"2\": {\"In\": 1}, \"3\": {\"In\": 1}, \"4\": {\"In\": 1}, \"5\": {\"In\": 1}, \"6\": {\"In\": 1}, \"7\": {\"In\": 1}, \"8\": {\"In\": 1}, \"9\": {\"In\": 1}, \"10\": {\"In\": 1}, \"11\": {\"In\": 1}, \"12\": {\"In\": 1}, \"13\": {\"In\": 1}, \"14\": {\"In\": 1}, \"15\": {\"In\": 1}, \"16\": {\"O\": 1}, \"17\": {\"O\": 1}, \"18\": {\"O\": 1}, \"19\": {\"O\": 1}, \"20\": {\"O\": 1}, \"21\": {\"O\": 1}, \"22\": {\"O\": 1}, \"23\": {\"O\": 1}, \"24\": {\"O\": 1}, \"25\": {\"O\": 1}, \"26\": {\"O\": 1}, \"27\": {\"O\": 1}, \"28\": {\"O\": 1}, \"29\": {\"O\": 1}, \"30\": {\"O\": 1}, \"31\": {\"O\": 1}, \"32\": {\"O\": 1}, \"33\": {\"O\": 1}, \"34\": {\"O\": 1}, \"35\": {\"O\": 1}, \"36\": {\"O\": 1}, \"37\": {\"O\": 1}, \"38\": {\"O\": 1}, \"39\": {\"O\": 1}}" n_minim_iter=1 energy=-45149.6512548235 stress="0.012669265299575946 -1.2271362891689046e-14 2.872718223301635e-13 -1.2271362891689046e-14 0.012600881088802704 -2.757876961184617e-13 2.872718223301635e-13 -2.757876961184617e-13 0.013416635980022318" free_energy=-45149.6512548235 pbc="T T T"
In       2.75988259       5.00085702       9.98348179        0      -0.08329914       0.04867010       0.00893073
In      -0.12148075       4.02705544       7.24875916        1      -0.08329914      -0.04867010      -0.00893073
In       3.00284410       1.99155287      15.86487964        2       0.08329914       0.04867010      -0.00893073
In       5.88420744       1.01775129       1.36736131        3       0.08329914      -0.04867010       0.00893073
In       3.00284410       1.01775129       7.24875916        4       0.08329914      -0.04867010      -0.00893073
In       5.88420744       1.99155287       9.98348179        5       0.08329914       0.04867010       0.00893073
In       2.75988259       4.02705544       1.36736131        6      -0.08329914      -0.04867010       0.00893073
In      -0.12148075       5.00085702      15.86487964        7      -0.08329914       0.04867010      -0.00893073
In       2.75769183       4.65497112      13.98394702        8      -0.10935029       0.00729518      -0.01228080
In       5.63905517       4.37294134       3.24829394        9      -0.10935029      -0.00729518       0.01228080
In       3.00503486       1.64566697      11.86441441       10       0.10935029       0.00729518       0.01228080
In       0.12367151       1.36363719       5.36782654       11       0.10935029      -0.00729518      -0.01228080
In       3.00503486       1.36363719       3.24829394       12       0.10935029      -0.00729518       0.01228080
In       0.12367151       1.64566697      13.98394702       13       0.10935029       0.00729518      -0.01228080
In       2.75769183       4.37294134       5.36782654       14      -0.10935029      -0.00729518      -0.01228080
In       5.63905517       4.65497112      11.86441441       15      -0.10935029       0.00729518       0.01228080
O        4.85586972       5.48989546      13.74875973       16       0.01686648      -0.00789059       0.02173057
O        1.97450638       3.53801700       3.48348122       17       0.01686648       0.00789059      -0.02173057
O        0.90685696       2.48059130      12.09960170       18      -0.01686648      -0.00789059      -0.02173057
O        3.78822030       0.52871285       5.13263926       19      -0.01686648       0.00789059       0.02173057
O        0.90685696       0.52871285       3.48348122       20      -0.01686648       0.00789059      -0.02173057
O        3.78822030       2.48059130      13.74875973       21      -0.01686648      -0.00789059       0.02173057
O        4.85586972       3.53801700       5.13263926       22       0.01686648       0.00789059       0.02173057
O        1.97450638       5.48989546      12.09960170       23       0.01686648      -0.00789059      -0.02173057
O        4.03863537       3.37026890      10.89273154       24       0.03600774       0.01719876       0.04147368
O        1.15727203       5.65764356       6.33950942       25       0.03600774      -0.01719876      -0.04147368
O        1.72409131       0.36096474      14.95562989       26      -0.03600774       0.01719876      -0.04147368
O        4.60545465       2.64833941       2.27661106       27      -0.03600774      -0.01719876       0.04147368
O        1.72409131       2.64833941       6.33950942       28      -0.03600774      -0.01719876      -0.04147368
O        4.60545465       0.36096474      10.89273154       29      -0.03600774       0.01719876       0.04147368
O        4.03863537       5.65764356       2.27661106       30       0.03600774      -0.01719876       0.04147368
O        1.15727203       3.37026890      14.95562989       31       0.03600774       0.01719876      -0.04147368
O        3.65955377       4.10265602      16.33863306       32       0.01955492      -0.05212753      -0.03560457
O        0.77819043       4.92525645       0.89360789       33       0.01955492       0.05212753       0.03560457
O        2.10317291       1.09335186       9.50972837       34      -0.01955492      -0.05212753       0.03560457
O        4.98453625       1.91595229       7.72251259       35      -0.01955492       0.05212753      -0.03560457
O        2.10317291       1.91595229       0.89360789       36      -0.01955492       0.05212753       0.03560457
O        4.98453625       1.09335186      16.33863306       37      -0.01955492      -0.05212753      -0.03560457
O        3.65955377       4.92525645       7.72251259       38       0.01955492       0.05212753      -0.03560457
O        0.77819043       4.10265602       9.50972837       39       0.01955492      -0.05212753       0.03560457
40
Lattice="5.766797738756454 -2.7827510419097367e-42 0.0 2.907127280308065e-42 6.024145391338239 0.0 0.0 0.0 17.20424809313068" Properties=species:S:1:pos:R:3:spacegroup_kinds:I:1:forces:R:3 spacegroup="P 1" unit_cell=conventional occupancy="_JSON {\"0\": {\"In\": 1}, \"1\": {\"In\": 1}, \"2\": {\"In\": 1}, \"3\": {\"In\": 1}, \"4\": {\"In\": 1}, \"5\": {\"In\": 1}, \"6\": {\"In\": 1}, \"7\": {\"In\": 1}, \"8\": {\"In\": 1}, \"9\": {\"In\": 1}, \"10\": {\"In\": 1}, \"11\": {\"In\": 1}, \"12\": {\"In\": 1}, \"13\": {\"In\": 1}, \"14\": {\"In\": 1}, \"15\": {\"In\": 1}, \"16\": {\"O\": 1}, \"17\": {\"O\": 1}, \"18\": {\"O\": 1}, \"19\": {\"O\": 1}, \"20\": {\"O\": 1}, \"21\": {\"O\": 1}, \"22\": {\"O\": 1}, \"23\": {\"O\": 1}, \"24\": {\"O\": 1}, \"25\": {\"O\": 1}, \"26\": {\"O\": 1}, \"27\": {\"O\": 1}, \"28\": {\"O\": 1}, \"29\": {\"O\": 1}, \"30\": {\"O\": 1}, \"31\": {\"O\": 1}, \"32\": {\"O\": 1}, \"33\": {\"O\": 1}, \"34\": {\"O\": 1}, \"35\": {\"O\": 1}, \"36\": {\"O\": 1}, \"37\": {\"O\": 1}, \"38\": {\"O\": 1}, \"39\": {\"O\": 1}}" n_minim_iter=2 energy=-45149.652267922895 stress="0.013022871013396956 -1.236960958353551e-13 1.1553673501222146e-13 -1.236960958353551e-13 0.013017705709425426 1.6126807163981065e-13 1.1553673501222146e-13 1.6126807163981065e-13 0.011755524580478027" free_energy=-45149.652267922895 pbc="T T T"
In       2.76139712       5.00571210       9.96731070        0      -0.08718543       0.04455536       0.01611190
In      -0.12200175       4.03050599       7.23693739        1      -0.08718543      -0.04455536      -0.01611190
In       3.00540062       1.99363940      15.83906144        2       0.08718543       0.04455536      -0.01611190
In       5.88879949       1.01843329       1.36518665        3       0.08718543      -0.04455536       0.01611190
In       3.00540062       1.01843329       7.23693739        4       0.08718543      -0.04455536      -0.01611190
In       5.88879949       1.99363940       9.96731070        5       0.08718543       0.04455536       0.01611190
In       2.76139712       4.03050599       1.36518665        6      -0.08718543      -0.04455536       0.01611190
In      -0.12200175       5.00571210      15.83906144        7      -0.08718543       0.04455536      -0.01611190
In       2.75906871       4.65929179      13.96116683        8      -0.10844489       0.00316687      -0.01360232
In       5.64246758       4.37692630       3.24308126        9      -0.10844489      -0.00316687       0.01360232
In       3.00772903       1.64721909      11.84520531       10       0.10844489       0.00316687       0.01360232
In       0.12433016       1.36485361       5.35904278       11       0.10844489      -0.00316687      -0.01360232
In       3.00772903       1.36485361       3.24308126       12       0.10844489      -0.00316687       0.01360232
In       0.12433016       1.64721909      13.96116683       13       0.10844489       0.00316687      -0.01360232
In       2.75906871       4.37692630       5.35904278       14      -0.10844489      -0.00316687      -0.01360232
In       5.64246758       4.65929179      11.84520531       15      -0.10844489       0.00316687       0.01360232
O        4.85938825       5.49490490      13.72653886       16       0.00585381      -0.00599579       0.02747318
O        1.97598938       3.54131319       3.47770923       17       0.00585381       0.00599579      -0.02747318
O        0.90740949       2.48283220      12.07983327       18      -0.00585381      -0.00599579      -0.02747318
O        3.79080836       0.52924049       5.12441482       19      -0.00585381       0.00599579       0.02747318
O        0.90740949       0.52924049       3.47770923       20      -0.00585381       0.00599579      -0.02747318
O        3.79080836       2.48283220      13.72653886       21      -0.00585381      -0.00599579       0.02747318
O        4.85938825       3.54131319       5.12441482       22       0.00585381       0.00599579       0.02747318
O        1.97598938       5.49490490      12.07983327       23       0.00585381      -0.00599579      -0.02747318
O        4.04167656       3.37345940      10.87525304       24       0.03353475       0.02122143       0.03392515
O        1.15827769       5.66275869       6.32899505       25       0.03353475      -0.02122143      -0.03392515
O        1.72512117       0.36138670      14.93111910       26      -0.03353475       0.02122143      -0.03392515
O        4.60852004       2.65068600       2.27312899       27      -0.03353475      -0.02122143       0.03392515
O        1.72512117       2.65068600       6.32899505       28      -0.03353475      -0.02122143      -0.03392515
O        4.60852004       0.36138670      10.87525304       29      -0.03353475       0.02122143       0.03392515
O        4.04167656       5.66275869       2.27312899       30       0.03353475      -0.02122143       0.03392515
O        1.15827769       3.37345940      14.93111910       31       0.03353475       0.02122143      -0.03392515
O        3.66224121       4.10615805      16.31190624       32       0.02165550      -0.05352026      -0.03123339
O        0.77884234       4.93006004       0.89234185       33       0.02165550       0.05352026       0.03123339
O        2.10455653       1.09408535       9.49446590       34      -0.02165550      -0.05352026       0.03123339
O        4.98795540       1.91798734       7.70978220       35      -0.02165550       0.05352026      -0.03123339
O        2.10455653       1.91798734       0.89234185       36      -0.02165550       0.05352026       0.03123339
O        4.98795540       1.09408535      16.31190624       37      -0.02165550      -0.05352026      -0.03123339
O        3.66224121       4.93006004       7.70978220       38       0.02165550       0.05352026      -0.03123339
O        0.77884234       4.10615805       9.49446590       39       0.02165550      -0.05352026       0.03123339
40
Lattice="5.75522845436881 -2.7768673813177362e-42 0.0 2.91262373315762e-42 6.034859667936079 0.0 0.0 0.0 17.208226658515525" Properties=species:S:1:pos:R:3:spacegroup_kinds:I:1:forces:R:3 spacegroup="P 1" unit_cell=conventional occupancy="_JSON {\"0\": {\"In\": 1}, \"1\": {\"In\": 1}, \"2\": {\"In\": 1}, \"3\": {\"In\": 1}, \"4\": {\"In\": 1}, \"5\": {\"In\": 1}, \"6\": {\"In\": 1}, \"7\": {\"In\": 1}, \"8\": {\"In\": 1}, \"9\": {\"In\": 1}, \"10\": {\"In\": 1}, \"11\": {\"In\": 1}, \"12\": {\"In\": 1}, \"13\": {\"In\": 1}, \"14\": {\"In\": 1}, \"15\": {\"In\": 1}, \"16\": {\"O\": 1}, \"17\": {\"O\": 1}, \"18\": {\"O\": 1}, \"19\": {\"O\": 1}, \"20\": {\"O\": 1}, \"21\": {\"O\": 1}, \"22\": {\"O\": 1}, \"23\": {\"O\": 1}, \"24\": {\"O\": 1}, \"25\": {\"O\": 1}, \"26\": {\"O\": 1}, \"27\": {\"O\": 1}, \"28\": {\"O\": 1}, \"29\": {\"O\": 1}, \"30\": {\"O\": 1}, \"31\": {\"O\": 1}, \"32\": {\"O\": 1}, \"33\": {\"O\": 1}, \"34\": {\"O\": 1}, \"35\": {\"O\": 1}, \"36\": {\"O\": 1}, \"37\": {\"O\": 1}, \"38\": {\"O\": 1}, \"39\": {\"O\": 1}}" n_minim_iter=3 energy=-45149.66938877884 stress="0.008464480311168074 -2.975652484194702e-13 6.067527331194414e-14 -2.975652484194702e-13 0.01084901321048331 2.301592686746194e-13 6.067527331194414e-14 2.301592686746194e-13 0.00976072000088582" free_energy=-45149.66938877884 pbc="T T T"
In       2.74369673       5.02139605       9.97128984        0      -0.03257590      -0.01625772       0.02763332
In      -0.13391750       4.03089346       7.23693682        1      -0.03257590       0.01625772      -0.02763332
In       3.01153173       2.00396621      15.84105015        2       0.03257590      -0.01625772      -0.02763332
In       5.88914596       1.01346362       1.36717651        3       0.03257590       0.01625772       0.02763332
In       3.01153173       1.01346362       7.23693682        4       0.03257590       0.01625772      -0.02763332
In       5.88914596       2.00396621       9.97128984        5       0.03257590      -0.01625772       0.02763332
In       2.74369673       4.03089346       1.36717651        6      -0.03257590       0.01625772       0.02763332
In      -0.13391750       5.02139605      15.84105015        7      -0.03257590      -0.01625772      -0.02763332
In       2.73790078       4.66840076      13.96256327        8      -0.02625158      -0.00377063      -0.04203524
In       5.61551500       4.38388874       3.24566339        9      -0.02625158       0.00377063       0.04203524
In       3.01732768       1.65097093      11.84977671       10       0.02625158      -0.00377063       0.04203524
In       0.13971345       1.36645891       5.35844994       11       0.02625158       0.00377063      -0.04203524
In       3.01732768       1.36645891       3.24566339       12       0.02625158       0.00377063       0.04203524
In       0.13971345       1.65097093      13.96256327       13       0.02625158      -0.00377063      -0.04203524
In       2.73790078       4.38388874       5.35844994       14      -0.02625158       0.00377063      -0.04203524
In       5.61551500       4.66840076      11.84977671       15      -0.02625158      -0.00377063       0.04203524
O        4.85145171       5.50364644      13.73314218       16      -0.06604903      -0.00150649      -0.00504252
O        1.97383749       3.54864307       3.47508447       17      -0.06604903       0.00150649       0.00504252
O        0.90377674       2.48621660      12.07919780       18       0.06604903      -0.00150649       0.00504252
O        3.78139097       0.53121323       5.12902885       19       0.06604903       0.00150649      -0.00504252
O        0.90377674       0.53121323       3.47508447       20       0.06604903       0.00150649       0.00504252
O        3.78139097       2.48621660      13.73314218       21       0.06604903      -0.00150649      -0.00504252
O        4.85145171       3.54864307       5.12902885       22      -0.06604903       0.00150649      -0.00504252
O        1.97383749       5.50364644      12.07919780       23      -0.06604903      -0.00150649       0.00504252
O        4.03859607       3.38215846      10.88329533       24      -0.04490365       0.03024607      -0.02176645
O        1.16098184       5.67013104       6.32493133       25      -0.04490365      -0.03024607       0.02176645
O        1.71663238       0.36472863      14.92904466       26       0.04490365       0.03024607       0.02176645
O        4.59424661       2.65270121       2.27918200       27       0.04490365      -0.03024607      -0.02176645
O        1.71663238       2.65270121       6.32493133       28       0.04490365      -0.03024607       0.02176645
O        4.59424661       0.36472863      10.88329533       29       0.04490365       0.03024607      -0.02176645
O        4.03859607       5.67013104       2.27918200       30      -0.04490365      -0.03024607      -0.02176645
O        1.16098184       3.38215846      14.92904466       31      -0.04490365       0.03024607       0.02176645
O        3.65781426       4.10587754      16.31081742       32      -0.00273239      -0.00879208       0.03285478
O        0.78020003       4.94641196       0.89740924       33      -0.00273239       0.00879208      -0.03285478
O        2.09741420       1.08844771       9.50152257       34       0.00273239      -0.00879208      -0.03285478
O        4.97502842       1.92898212       7.70670409       35       0.00273239       0.00879208       0.03285478
O        2.09741420       1.92898212       0.89740924       36       0.00273239       0.00879208      -0.03285478
O        4.97502842       1.08844771      16.31081742       37       0.00273239      -0.00879208       0.03285478
O        3.65781426       4.94641196       7.70670409       38      -0.00273239       0.00879208       0.03285478
O        0.78020003       4.10587754       9.50152257       39      -0.00273239      -0.00879208      -0.03285478
40
Lattice="5.765520531605832 -2.783477533841612e-42 0.0 2.9059235392459885e-42 6.0245138582994 0.0 0.0 0.0 17.207006797950395" Properties=species:S:1:pos:R:3:spacegroup_kinds:I:1:forces:R:3 spacegroup="P 1" unit_cell=conventional occupancy="_JSON {\"0\": {\"In\": 1}, \"1\": {\"In\": 1}, \"2\": {\"In\": 1}, \"3\": {\"In\": 1}, \"4\": {\"In\": 1}, \"5\": {\"In\": 1}, \"6\": {\"In\": 1}, \"7\": {\"In\": 1}, \"8\": {\"In\": 1}, \"9\": {\"In\": 1}, \"10\": {\"In\": 1}, \"11\": {\"In\": 1}, \"12\": {\"In\": 1}, \"13\": {\"In\": 1}, \"14\": {\"In\": 1}, \"15\": {\"In\": 1}, \"16\": {\"O\": 1}, \"17\": {\"O\": 1}, \"18\": {\"O\": 1}, \"19\": {\"O\": 1}, \"20\": {\"O\": 1}, \"21\": {\"O\": 1}, \"22\": {\"O\": 1}, \"23\": {\"O\": 1}, \"24\": {\"O\": 1}, \"25\": {\"O\": 1}, \"26\": {\"O\": 1}, \"27\": {\"O\": 1}, \"28\": {\"O\": 1}, \"29\": {\"O\": 1}, \"30\": {\"O\": 1}, \"31\": {\"O\": 1}, \"32\": {\"O\": 1}, \"33\": {\"O\": 1}, \"34\": {\"O\": 1}, \"35\": {\"O\": 1}, \"36\": {\"O\": 1}, \"37\": {\"O\": 1}, \"38\": {\"O\": 1}, \"39\": {\"O\": 1}}" n_minim_iter=4 energy=-45149.67090305671 stress="0.00969088844999576 -6.434368850182815e-14 1.645525278354686e-15 -6.434368850182815e-14 0.00944899961098163 3.3531954437527273e-13 1.645525278354686e-15 3.3531954437527273e-13 0.009612638445591837" free_energy=-45149.67090305671 pbc="T T T"
In       2.74745661       5.01333221       9.97080277        0      -0.03882345      -0.03720706       0.03509906
In      -0.13530366       4.02343858       7.23620403        1      -0.03882345       0.03720706      -0.03509906
In       3.01806392       2.00107528      15.83970743        2       0.03882345      -0.03720706      -0.03509906
In       5.90082419       1.01118165       1.36729937        3       0.03882345       0.03720706       0.03509906
In       3.01806392       1.01118165       7.23620403        4       0.03882345       0.03720706      -0.03509906
In       5.90082419       2.00107528       9.97080277        5       0.03882345      -0.03720706       0.03509906
In       2.74745661       4.02343858       1.36729937        6      -0.03882345       0.03720706       0.03509906
In      -0.13530366       5.01333221      15.83970743        7      -0.03882345      -0.03720706      -0.03509906
In       2.74136499       4.66045861      13.96130153        8      -0.01569990       0.00108080      -0.04537827
In       5.62412526       4.37631218       3.24570527        9      -0.01569990      -0.00108080       0.04537827
In       3.02415554       1.64820168      11.84920867       10       0.01569990       0.00108080       0.04537827
In       0.14139527       1.36405525       5.35779813       11       0.01569990      -0.00108080      -0.04537827
In       3.02415554       1.36405525       3.24570527       12       0.01569990      -0.00108080       0.04537827
In       0.14139527       1.64820168      13.96130153       13       0.01569990       0.00108080      -0.04537827
In       2.74136499       4.37631218       5.35779813       14      -0.01569990      -0.00108080      -0.04537827
In       5.62412526       4.66045861      11.84920867       15      -0.01569990       0.00108080       0.04537827
O        4.86010775       5.49411777      13.73245338       16      -0.06549820       0.00013351      -0.00359615
O        1.97734748       3.54265301       3.47455342       17      -0.06549820      -0.00013351       0.00359615
O        0.90541279       2.48186084      12.07805682       18       0.06549820       0.00013351       0.00359615
O        3.78817305       0.53039609       5.12894998       19       0.06549820      -0.00013351      -0.00359615
O        0.90541279       0.53039609       3.47455342       20       0.06549820      -0.00013351       0.00359615
O        3.78817305       2.48186084      13.73245338       21       0.06549820       0.00013351      -0.00359615
O        4.86010775       3.54265301       5.12894998       22      -0.06549820      -0.00013351      -0.00359615
O        1.97734748       5.49411777      12.07805682       23      -0.06549820       0.00013351       0.00359615
O        4.04613553       3.37667624      10.88294580       24      -0.04176771       0.03296976      -0.03347644
O        1.16337526       5.66009455       6.32406100       25      -0.04176771      -0.03296976       0.03347644
O        1.71938501       0.36441931      14.92756439       26       0.04176771       0.03296976       0.03347644
O        4.60214527       2.64783762       2.27944240       27       0.04176771      -0.03296976      -0.03347644
O        1.71938501       2.64783762       6.32406100       28       0.04176771      -0.03296976       0.03347644
O        4.60214527       0.36441931      10.88294580       29       0.04176771       0.03296976      -0.03347644
O        4.04613553       5.66009455       2.27944240       30      -0.04176771      -0.03296976      -0.03347644
O        1.16337526       3.37667624      14.92756439       31      -0.04176771       0.03296976       0.03347644
O        3.66460257       4.09815675      16.30932676       32      -0.00047536       0.00982589       0.03235183
O        0.78184230       4.93861403       0.89768003       33      -0.00047536      -0.00982589      -0.03235183
O        2.10091796       1.08589983       9.50118343       34       0.00047536       0.00982589      -0.03235183
O        4.98367823       1.92635710       7.70582337       35       0.00047536      -0.00982589       0.03235183
O        2.10091796       1.92635710       0.89768003       36       0.00047536      -0.00982589      -0.03235183
O        4.98367823       1.08589983      16.30932676       37       0.00047536       0.00982589       0.03235183
O        3.66460257       4.93861403       7.70582337       38      -0.00047536      -0.00982589       0.03235183
O        0.78184230       4.09815675       9.50118343       39      -0.00047536       0.00982589      -0.03235183
40
Lattice="5.777400367940312 -2.8486006194019433e-42 0.0 2.901221658121461e-42 6.0303829691974435 0.0 0.0 0.0 17.15491232139219" Properties=species:S:1:pos:R:3:spacegroup_kinds:I:1:forces:R:3 spacegroup="P 1" unit_cell=conventional occupancy="_JSON {\"0\": {\"In\": 1}, \"1\": {\"In\": 1}, \"2\": {\"In\": 1}, \"3\": {\"In\": 1}, \"4\": {\"In\": 1}, \"5\": {\"In\": 1}, \"6\": {\"In\": 1}, \"7\": {\"In\": 1}, \"8\": {\"In\": 1}, \"9\": {\"In\": 1}, \"10\": {\"In\": 1}, \"11\": {\"In\": 1}, \"12\": {\"In\": 1}, \"13\": {\"In\": 1}, \"14\": {\"In\": 1}, \"15\": {\"In\": 1}, \"16\": {\"O\": 1}, \"17\": {\"O\": 1}, \"18\": {\"O\": 1}, \"19\": {\"O\": 1}, \"20\": {\"O\": 1}, \"21\": {\"O\": 1}, \"22\": {\"O\": 1}, \"23\": {\"O\": 1}, \"24\": {\"O\": 1}, \"25\": {\"O\": 1}, \"26\": {\"O\": 1}, \"27\": {\"O\": 1}, \"28\": {\"O\": 1}, \"29\": {\"O\": 1}, \"30\": {\"O\": 1}, \"31\": {\"O\": 1}, \"32\": {\"O\": 1}, \"33\": {\"O\": 1}, \"34\": {\"O\": 1}, \"35\": {\"O\": 1}, \"36\": {\"O\": 1}, \"37\": {\"O\": 1}, \"38\": {\"O\": 1}, \"39\": {\"O\": 1}}" n_minim_iter=5 energy=-45149.684612393714 stress="0.0072514531907436845 -2.5589743137495464e-13 -4.119840999158466e-14 -2.5589743137495464e-13 0.007097242357614375 4.597653540474475e-14 -4.119840999158466e-14 4.597653540474475e-14 0.0071511629290362064" free_energy=-45149.684612393714 pbc="T T T"
In       2.73413039       5.01496943       9.95027859        0      -0.03663079       0.01842557      -0.05635818
In      -0.15456980       4.03060502       7.20463374        1      -0.03663079      -0.01842557       0.05635818
In       3.04326998       1.99977795      15.78208990        2       0.03663079       0.01842557       0.05635818
In       5.93197016       1.01541353       1.37282242        3       0.03663079      -0.01842557      -0.05635818
In       3.04326998       1.01541353       7.20463374        4       0.03663079      -0.01842557       0.05635818
In       5.93197016       1.99977795       9.95027859        5       0.03663079       0.01842557      -0.05635818
In       2.73413039       4.03060502       1.37282242        6      -0.03663079      -0.01842557      -0.05635818
In      -0.15456980       5.01496943      15.78208990        7      -0.03663079       0.01842557       0.05635818
In       2.73052564       4.66578185      13.90666049        8      -0.01615854      -0.02384685       0.09734424
In       5.61922583       4.37979261       3.24825183        9      -0.01615854       0.02384685      -0.09734424
In       3.04687472       1.65059036      11.82570799       10       0.01615854      -0.02384685      -0.09734424
In       0.15817454       1.36460112       5.32920433       11       0.01615854       0.02384685       0.09734424
In       3.04687472       1.36460112       3.24825183       12       0.01615854       0.02384685      -0.09734424
In       0.15817454       1.65059036      13.90666049       13       0.01615854      -0.02384685       0.09734424
In       2.73052564       4.37979261       5.32920433       14      -0.01615854       0.02384685       0.09734424
In       5.61922583       4.66578185      11.82570799       15      -0.01615854      -0.02384685      -0.09734424
O        4.85548653       5.49865204      13.69267719       16      -0.07086034       0.05286261      -0.01562867
O        1.96678634       3.54692241       3.46223513       17      -0.07086034      -0.05286261       0.01562867
O        0.92191384       2.48346056      12.03969129       18       0.07086034       0.05286261       0.01562867
O        3.81061403       0.53173093       5.11522103       19       0.07086034      -0.05286261      -0.01562867
O        0.92191384       0.53173093       3.46223513       20       0.07086034      -0.05286261       0.01562867
O        3.81061403       2.48346056      13.69267719       21       0.07086034       0.05286261      -0.01562867
O        4.85548653       3.54692241       5.11522103       22      -0.07086034      -0.05286261      -0.01562867
O        1.96678634       5.49865204      12.03969129       23      -0.07086034       0.05286261       0.01562867
O        4.04814535       3.39010719      10.84649762       24       0.00669415      -0.01445107       0.03399081
O        1.15944517       5.65546726       6.30841470       25       0.00669415       0.01445107      -0.03399081
O        1.72925502       0.37491571      14.88587086       26      -0.00669415      -0.01445107      -0.03399081
O        4.61795520       2.64027578       2.26904146       27      -0.00669415       0.01445107       0.03399081
O        1.72925502       2.64027578       6.30841470       28      -0.00669415       0.01445107      -0.03399081
O        4.61795520       0.37491571      10.84649762       29      -0.00669415      -0.01445107       0.03399081
O        4.04814535       5.65546726       2.26904146       30       0.00669415       0.01445107       0.03399081
O        1.15944517       3.39010719      14.88587086       31       0.00669415      -0.01445107      -0.03399081
O        3.67429736       4.09810585      16.26399895       32      -0.07079609      -0.01197748       0.00474783
O        0.78559718       4.94746861       0.89091337       33      -0.07079609       0.01197748      -0.00474783
O        2.10310300       1.08291436       9.46836953       34       0.07079609      -0.01197748      -0.00474783
O        4.99180319       1.93227712       7.68654279       35       0.07079609       0.01197748       0.00474783
O        2.10310300       1.93227712       0.89091337       36       0.07079609       0.01197748      -0.00474783
O        4.99180319       1.08291436      16.26399895       37       0.07079609      -0.01197748       0.00474783
O        3.67429736       4.94746861       7.68654279       38      -0.07079609       0.01197748       0.00474783
O        0.78559718       4.09810585       9.46836953       39      -0.07079609      -0.01197748      -0.00474783
40