40
Lattice="5.483285561435999 -1.6596920183448136e-42 0.0 1.7218181826900287e-42 5.688537798704242 0.0 0.0 0.0 15.828877347480795" Properties=species:S:1:pos:R:3:spacegroup_kinds:I:1:forces:R:3 spacegroup="P 1" unit_cell=conventional occupancy="_JSON {\"0\": {\"In\": 1}, \"1\": {\"In\": 1}, \"2\": {\"In\": 1}, \"3\": {\"In\": 1}, \"4\": {\"In\": 1}, \"5\": {\"In\": 1}, \"6\": {\"In\": 1}, \"7\": {\"In\": 1}, \"8\": {\"In\": 1}, \"9\": {\"In\": 1}, \"10\": {\"In\": 1}, \"11\": {\"In\": 1}, \"12\": {\"In\": 1}, \"13\": {\"In\": 1}, \"14\": {\"In\": 1}, \"15\": {\"In\": 1}, \"16\": {\"O\": 1}, \"17\": {\"O\": 1}, \"18\": {\"O\": 1}, \"19\": {\"O\": 1}, \"20\": {\"O\": 1}, \"21\": {\"O\": 1}, \"22\": {\"O\": 1}, \"23\": {\"O\": 1}, \"24\": {\"O\": 1}, \"25\": {\"O\": 1}, \"26\": {\"O\": 1}, \"27\": {\"O\": 1}, \"28\": {\"O\": 1}, \"29\": {\"O\": 1}, \"30\": {\"O\": 1}, \"31\": {\"O\": 1}, \"32\": {\"O\": 1}, \"33\": {\"O\": 1}, \"34\": {\"O\": 1}, \"35\": {\"O\": 1}, \"36\": {\"O\": 1}, \"37\": {\"O\": 1}, \"38\": {\"O\": 1}, \"39\": {\"O\": 1}}" n_minim_iter=1 energy=-45150.15827483688 stress="-0.010664821614640885 -1.7870562025017093e-13 1.276167670274656e-13 -1.7870562025017093e-13 -0.012184385319907074 1.7322913049291016e-13 1.276167670274656e-13 1.7322913049291016e-13 -0.009064159267147162" free_energy=-45150.15827483688 pbc="T T T"
In       2.73727839       4.56464976       9.04443584        0       0.01155636       0.02905011       0.05002243
In      -0.00436439       3.96815694       6.78444151        1       0.01155636      -0.02905011      -0.05002243
In       2.74600718       1.72038086      14.69888018        2      -0.01155636       0.02905011      -0.05002243
In       5.48764996       1.12388804       1.12999716        3      -0.01155636      -0.02905011       0.05002243
In       2.74600718       1.12388804       6.78444151        4      -0.01155636      -0.02905011      -0.05002243
In       5.48764996       1.72038086       9.04443584        5      -0.01155636       0.02905011       0.05002243
In       2.73727839       3.96815694       1.12999716        6       0.01155636      -0.02905011       0.05002243
In      -0.00436439       4.56464976      14.69888018        7       0.01155636       0.02905011      -0.05002243
In       2.73322290       4.27771232      12.95630610        8       0.03539944      -0.00813794      -0.00391841
In       5.47486568       4.25509438       2.87257125        9       0.03539944       0.00813794       0.00391841
In       2.75006267       1.43344342      10.78700992       10      -0.03539944      -0.00813794       0.00391841
In       0.00841988       1.41082548       5.04186743       11      -0.03539944       0.00813794      -0.00391841
In       2.75006267       1.41082548       2.87257125       12      -0.03539944       0.00813794       0.00391841
In       0.00841988       1.43344342      12.95630610       13      -0.03539944      -0.00813794      -0.00391841
In       2.73322290       4.25509438       5.04186743       14       0.03539944       0.00813794      -0.00391841
In       5.47486568       4.27771232      10.78700992       15       0.03539944      -0.00813794       0.00391841
O        4.71375145       5.04410649      12.63217718       16       0.02136678       0.03441510       0.01271222
O        1.97210867       3.48870021       3.19670017       17       0.02136678      -0.03441510      -0.01271222
O        0.76953411       2.19983759      11.11113884       18      -0.02136678       0.03441510      -0.01271222
O        3.51117689       0.64443131       4.71773851       19      -0.02136678      -0.03441510       0.01271222
O        0.76953411       0.64443131       3.19670017       20      -0.02136678      -0.03441510      -0.01271222
O        3.51117689       2.19983759      12.63217718       21      -0.02136678       0.03441510       0.01271222
O        4.71375145       3.48870021       4.71773851       22       0.02136678      -0.03441510       0.01271222
O        1.97210867       5.04410649      11.11113884       23       0.02136678       0.03441510      -0.01271222
O        3.88127370       3.01926371       9.88809130       24       0.10383987      -0.02234465       0.05827370
O        1.13963092       5.51354299       5.94078605       25       0.10383987       0.02234465      -0.05827370
O        1.60201186       0.17499481      13.85522472       26      -0.10383987      -0.02234465      -0.05827370
O        4.34365464       2.66927409       1.97365262       27      -0.10383987       0.02234465       0.05827370
O        1.60201186       2.66927409       5.94078605       28      -0.10383987       0.02234465      -0.05827370
O        4.34365464       0.17499481       9.88809130       29      -0.10383987      -0.02234465       0.05827370
O        3.88127370       5.51354299       1.97365262       30       0.10383987       0.02234465       0.05827370
O        1.13963092       3.01926371      13.85522472       31       0.10383987      -0.02234465      -0.05827370
O        3.53901214       3.76869859      15.00199048       32      -0.06947444      -0.03310528      -0.07538016
O        0.79736936       4.76410811       0.82688687       33      -0.06947444       0.03310528       0.07538016
O        1.94427342       0.92442969       8.74132555       34       0.06947444      -0.03310528       0.07538016
O        4.68591620       1.91983921       7.08755180       35       0.06947444       0.03310528      -0.07538016
O        1.94427342       1.91983921       0.82688687       36       0.06947444       0.03310528       0.07538016
O        4.68591620       0.92442969      15.00199048       37       0.06947444      -0.03310528      -0.07538016
O        3.53901214       4.76410811       7.08755180       38      -0.06947444       0.03310528      -0.07538016
O        0.79736936       3.76869859       8.74132555       39      -0.06947444      -0.03310528       0.07538016
40
Lattice="5.483504741824272 -1.6562940866656868e-42 0.0 1.7068614341468272e-42 5.70156149295596 0.0 0.0 0.0 15.79208925674308" Properties=species:S:1:pos:R:3:spacegroup_kinds:I:1:forces:R:3 spacegroup="P 1" unit_cell=conventional occupancy="_JSON {\"0\": {\"In\": 1}, \"1\": {\"In\": 1}, \"2\": {\"In\": 1}, \"3\": {\"In\": 1}, \"4\": {\"In\": 1}, \"5\": {\"In\": 1}, \"6\": {\"In\": 1}, \"7\": {\"In\": 1}, \"8\": {\"In\": 1}, \"9\": {\"In\": 1}, \"10\": {\"In\": 1}, \"11\": {\"In\": 1}, \"12\": {\"In\": 1}, \"13\": {\"In\": 1}, \"14\": {\"In\": 1}, \"15\": {\"In\": 1}, \"16\": {\"O\": 1}, \"17\": {\"O\": 1}, \"18\": {\"O\": 1}, \"19\": {\"O\": 1}, \"20\": {\"O\": 1}, \"21\": {\"O\": 1}, \"22\": {\"O\": 1}, \"23\": {\"O\": 1}, \"24\": {\"O\": 1}, \"25\": {\"O\": 1}, \"26\": {\"O\": 1}, \"27\": {\"O\": 1}, \"28\": {\"O\": 1}, \"29\": {\"O\": 1}, \"30\": {\"O\": 1}, \"31\": {\"O\": 1}, \"32\": {\"O\": 1}, \"33\": {\"O\": 1}, \"34\": {\"O\": 1}, \"35\": {\"O\": 1}, \"36\": {\"O\": 1}, \"37\": {\"O\": 1}, \"38\": {\"O\": 1}, \"39\": {\"O\": 1}}" n_minim_iter=2 energy=-45150.16047964396 stress="-0.009862053412568026 2.733901643751706e-13 -3.147441296735118e-13 2.733901643751706e-13 -0.010262698031313189 -5.731109793929734e-13 -3.147441296735118e-13 -5.731109793929734e-13 -0.01089029362530364" free_energy=-45150.16047964396 pbc="T T T"
In       2.73742241       4.57518755       9.02356501        0       0.00207271       0.02494122       0.07528299
In      -0.00432996       3.97715468       6.76852425        1       0.00207271      -0.02494122      -0.07528299
In       2.74608233       1.72440681      14.66456888        2      -0.00207271       0.02494122      -0.07528299
In       5.48783470       1.12637394       1.12752038        3      -0.00207271      -0.02494122       0.07528299
In       2.74608233       1.12637394       6.76852425        4      -0.00207271      -0.02494122      -0.07528299
In       5.48783470       1.72440681       9.02356501        5      -0.00207271       0.02494122       0.07528299
In       2.73742241       3.97715468       1.12752038        6       0.00207271      -0.02494122       0.07528299
In      -0.00432996       4.57518755      14.66456888        7       0.00207271       0.02494122      -0.07528299
In       2.73343817       4.28748156      12.92618248        8       0.04299123      -0.01655537       0.00645522
In       5.47519054       4.26486068       2.86590678        9       0.04299123       0.01655537      -0.00645522
In       2.75006657       1.43670081      10.76195141       10      -0.04299123      -0.01655537      -0.00645522
In       0.00831420       1.41407994       5.03013785       11      -0.04299123       0.01655537       0.00645522
In       2.75006657       1.41407994       2.86590678       12      -0.04299123       0.01655537      -0.00645522
In       0.00831420       1.43670081      12.92618248       13      -0.04299123      -0.01655537       0.00645522
In       2.73343817       4.26486068       5.03013785       14       0.04299123       0.01655537       0.00645522
In       5.47519054       4.28748156      10.76195141       15       0.04299123      -0.01655537      -0.00645522
O        4.71400387       5.05575808      12.60285656       16       0.00840353       0.03853047       0.01793627
O        1.97225149       3.49658416       3.18923269       17       0.00840353      -0.03853047      -0.01793627
O        0.76950088       2.20497734      11.08527732       18      -0.00840353       0.03853047      -0.01793627
O        3.51125325       0.64580341       4.70681194       19      -0.00840353      -0.03853047       0.01793627
O        0.76950088       0.64580341       3.18923269       20      -0.00840353      -0.03853047      -0.01793627
O        3.51125325       2.20497734      12.60285656       21      -0.00840353       0.03853047       0.01793627
O        4.71400387       3.49658416       4.70681194       22       0.00840353      -0.03853047       0.01793627
O        1.97225149       5.05575808      11.08527732       23       0.00840353       0.03853047      -0.01793627
O        3.88173984       3.02610913       9.86528437       24       0.09039746      -0.01418993       0.05538702
O        1.13998747       5.52623311       5.92680488       25       0.09039746       0.01418993      -0.05538702
O        1.60176490       0.17532838      13.82284951       26      -0.09039746      -0.01418993      -0.05538702
O        4.34351728       2.67545237       1.96923975       27      -0.09039746       0.01418993       0.05538702
O        1.60176490       2.67545237       5.92680488       28      -0.09039746       0.01418993      -0.05538702
O        4.34351728       0.17532838       9.86528437       29      -0.09039746      -0.01418993       0.05538702
O        3.88173984       5.52623311       1.96923975       30       0.09039746       0.01418993       0.05538702
O        1.13998747       3.02610913      13.82284951       31       0.09039746      -0.01418993      -0.05538702
O        3.53894553       3.77722752      14.96689894       32      -0.05644933      -0.04025191      -0.09156253
O        0.79719316       4.77511472       0.82519032       33      -0.05644933       0.04025191       0.09156253
O        1.94455921       0.92644677       8.72123495       34       0.05644933      -0.04025191       0.09156253
O        4.68631158       1.92433398       7.07085431       35       0.05644933       0.04025191      -0.09156253
O        1.94455921       1.92433398       0.82519032       36       0.05644933       0.04025191       0.09156253
O        4.68631158       0.92644677      14.96689894       37       0.05644933      -0.04025191      -0.09156253
O        3.53894553       4.77511472       7.07085431       38      -0.05644933       0.04025191      -0.09156253
O        0.79719316       3.77722752       8.72123495       39      -0.05644933      -0.04025191       0.09156253
40
Lattice="5.465146509124818 -1.650580667754201e-42 0.0 1.7111589118750907e-42 5.715882161766904 0.0 0.0 0.0 15.805438534897199" Properties=species:S:1:pos:R:3:spacegroup_kinds:I:1:forces:R:3 spacegroup="P 1" unit_cell=conventional occupancy="_JSON {\"0\": {\"In\": 1}, \"1\": {\"In\": 1}, \"2\": {\"In\": 1}, \"3\": {\"In\": 1}, \"4\": {\"In\": 1}, \"5\": {\"In\": 1}, \"6\": {\"In\": 1}, \"7\": {\"In\": 1}, \"8\": {\"In\": 1}, \"9\": {\"In\": 1}, \"10\": {\"In\": 1}, \"11\": {\"In\": 1}, \"12\": {\"In\": 1}, \"13\": {\"In\": 1}, \"14\": {\"In\": 1}, \"15\": {\"In\": 1}, \"16\": {\"O\": 1}, \"17\": {\"O\": 1}, \"18\": {\"O\": 1}, \"19\": {\"O\": 1}, \"20\": {\"O\": 1}, \"21\": {\"O\": 1}, \"22\": {\"O\": 1}, \"23\": {\"O\": 1}, \"24\": {\"O\": 1}, \"25\": {\"O\": 1}, \"26\": {\"O\": 1}, \"27\": {\"O\": 1}, \"28\": {\"O\": 1}, \"29\": {\"O\": 1}, \"30\": {\"O\": 1}, \"31\": {\"O\": 1}, \"32\": {\"O\": 1}, \"33\": {\"O\": 1}, \"34\": {\"O\": 1}, \"35\": {\"O\": 1}, \"36\": {\"O\": 1}, \"37\": {\"O\": 1}, \"38\": {\"O\": 1}, \"39\": {\"O\": 1}}" n_minim_iter=3 energy=-45150.1623928735 stress="-0.012126624398111931 3.709826408559077e-13 6.903075313357594e-14 3.709826408559077e-13 -0.008417434756735506 -2.5277109808289566e-13 6.903075313357594e-14 -2.5277109808289566e-13 -0.009025972975343183" free_energy=-45150.1623928735 pbc="T T T"
In       2.72833372       4.58715957       9.03247873        0       0.03402119       0.03210787       0.05229146
In      -0.00423953       3.98666367       6.77295981        1       0.03402119      -0.03210787      -0.05229146
In       2.73681279       1.72921849      14.67567907        2      -0.03402119       0.03210787      -0.05229146
In       5.46938604       1.12872259       1.12975946        3      -0.03402119      -0.03210787       0.05229146
In       2.73681279       1.12872259       6.77295981        4      -0.03402119      -0.03210787      -0.05229146
In       5.46938604       1.72921849       9.03247873        5      -0.03402119       0.03210787       0.05229146
In       2.72833372       3.98666367       1.12975946        6       0.03402119      -0.03210787       0.05229146
In      -0.00423953       4.58715957      14.67567907        7       0.03402119       0.03210787      -0.05229146
In       2.72504858       4.29797626      12.93718670        8       0.00582133      -0.01800853      -0.00207081
In       5.45762183       4.27584698       2.86825183        9       0.00582133       0.01800853       0.00207081
In       2.74009793       1.44003518      10.77097110       10      -0.00582133      -0.01800853       0.00207081
In       0.00752467       1.41790590       5.03446743       11      -0.00582133       0.01800853      -0.00207081
In       2.74009793       1.41790590       2.86825183       12      -0.00582133       0.01800853       0.00207081
In       0.00752467       1.44003518      12.93718670       13      -0.00582133      -0.01800853      -0.00207081
In       2.72504858       4.27584698       5.03446743       14       0.00582133       0.01800853      -0.00207081
In       5.45762183       4.29797626      10.77097110       15       0.00582133      -0.01800853       0.00207081
O        4.69842824       5.06915695      12.61381949       16       0.02268830       0.03738725      -0.00075123
O        1.96585499       3.50466629       3.19161905       17       0.02268830      -0.03738725       0.00075123
O        0.76671827       2.21121587      11.09433831       18      -0.02268830       0.03738725       0.00075123
O        3.49929152       0.64672521       4.71110022       19      -0.02268830      -0.03738725      -0.00075123
O        0.76671827       0.64672521       3.19161905       20      -0.02268830      -0.03738725       0.00075123
O        3.49929152       2.21121587      12.61381949       21      -0.02268830       0.03738725      -0.00075123
O        4.69842824       3.50466629       4.71110022       22       0.02268830      -0.03738725      -0.00075123
O        1.96585499       5.06915695      11.09433831       23       0.02268830       0.03738725       0.00075123
O        3.87046282       3.03341314       9.87465538       24       0.05809729      -0.00421388       0.04471124
O        1.13788956       5.54041011       5.93078316       25       0.05809729       0.00421388      -0.04471124
O        1.59468369       0.17547205      13.83350243       26      -0.05809729      -0.00421388      -0.04471124
O        4.32725695       2.68246903       1.97193611       27      -0.05809729       0.00421388       0.04471124
O        1.59468369       2.68246903       5.93078316       28      -0.05809729       0.00421388      -0.04471124
O        4.32725695       0.17547205       9.87465538       29      -0.05809729      -0.00421388       0.04471124
O        3.87046282       5.54041011       1.97193611       30       0.05809729       0.00421388       0.04471124
O        1.13788956       3.03341314      13.83350243       31       0.05809729      -0.00421388      -0.04471124
O        3.52600583       3.78599469      14.97792863       32      -0.06762164      -0.04815900      -0.04955267
O        0.79343257       4.78782856       0.82750990       33      -0.06762164       0.04815900       0.04955267
O        1.93914068       0.92805361       8.73022917       34       0.06762164      -0.04815900       0.04955267
O        4.67171394       1.92988747       7.07520936       35       0.06762164       0.04815900      -0.04955267
O        1.93914068       1.92988747       0.82750990       36       0.06762164       0.04815900       0.04955267
O        4.67171394       0.92805361      14.97792863       37       0.06762164      -0.04815900      -0.04955267
O        3.52600583       4.78782856       7.07520936       38      -0.06762164       0.04815900      -0.04955267
O        0.79343257       3.78599469       8.73022917       39      -0.06762164      -0.04815900       0.04955267
40
Lattice="5.4814575759587045 -1.6558680120311808e-42 0.0 1.7077791284620154e-42 5.706250173090857 0.0 0.0 0.0 15.78500634248093" Properties=species:S:1:pos:R:3:spacegroup_kinds:I:1:forces:R:3 spacegroup="P 1" unit_cell=conventional occupancy="_JSON {\"0\": {\"In\": 1}, \"1\": {\"In\": 1}, \"2\": {\"In\": 1}, \"3\": {\"In\": 1}, \"4\": {\"In\": 1}, \"5\": {\"In\": 1}, \"6\": {\"In\": 1}, \"7\": {\"In\": 1}, \"8\": {\"In\": 1}, \"9\": {\"In\": 1}, \"10\": {\"In\": 1}, \"11\": {\"In\": 1}, \"12\": {\"In\": 1}, \"13\": {\"In\": 1}, \"14\": {\"In\": 1}, \"15\": {\"In\": 1}, \"16\": {\"O\": 1}, \"17\": {\"O\": 1}, \"18\": {\"O\": 1}, \"19\": {\"O\": 1}, \"20\": {\"O\": 1}, \"21\": {\"O\": 1}, \"22\": {\"O\": 1}, \"23\": {\"O\": 1}, \"24\": {\"O\": 1}, \"25\": {\"O\": 1}, \"26\": {\"O\": 1}, \"27\": {\"O\": 1}, \"28\": {\"O\": 1}, \"29\": {\"O\": 1}, \"30\": {\"O\": 1}, \"31\": {\"O\": 1}, \"32\": {\"O\": 1}, \"33\": {\"O\": 1}, \"34\": {\"O\": 1}, \"35\": {\"O\": 1}, \"36\": {\"O\": 1}, \"37\": {\"O\": 1}, \"38\": {\"O\": 1}, \"39\": {\"O\": 1}}" n_minim_iter=4 energy=-45150.16886899716 stress="-0.008309104915223462 -3.4426258317205615e-13 -7.974832184096798e-14 -3.4426258317205615e-13 -0.008771999398540413 -3.046671333002924e-13 -7.974832184096798e-14 -3.046671333002924e-13 -0.008900589114524897" free_energy=-45150.16886899716 pbc="T T T"
In       2.73701792       4.58098799       9.02464168        0       0.01022381      -0.06641711      -0.01205489
In      -0.00371087       3.97838727       6.76036466        1       0.01022381       0.06641711       0.01205489
In       2.74443966       1.72786291      14.65286783        2      -0.01022381      -0.06641711       0.01205489
In       5.48516845       1.12526218       1.13213851        3      -0.01022381       0.06641711      -0.01205489
In       2.74443966       1.12526218       6.76036466        4      -0.01022381       0.06641711       0.01205489
In       5.48516845       1.72786291       9.02464168        5      -0.01022381      -0.06641711      -0.01205489
In       2.73701792       3.97838727       1.13213851        6       0.01022381       0.06641711      -0.01205489
In      -0.00371087       4.58098799      14.65286783        7       0.01022381      -0.06641711       0.01205489
In       2.73519624       4.28983891      12.92064655        8       0.00580138       0.03952035      -0.04118354
In       5.47592503       4.26953635       2.86435979        9       0.00580138      -0.03952035       0.04118354
In       2.74626133       1.43671382      10.75686296       10      -0.00580138       0.03952035       0.04118354
In       0.00553254       1.41641127       5.02814338       11      -0.00580138      -0.03952035      -0.04118354
In       2.74626133       1.41641127       2.86435979       12      -0.00580138      -0.03952035       0.04118354
In       0.00553254       1.43671382      12.92064655       13      -0.00580138       0.03952035      -0.04118354
In       2.73519624       4.26953635       5.02814338       14       0.00580138      -0.03952035      -0.04118354
In       5.47592503       4.28983891      10.75686296       15       0.00580138       0.03952035       0.04118354
O        4.71320495       5.06279495      12.59829773       16      -0.00617195       0.00657876      -0.04259361
O        1.97247616       3.49658031       3.18670861       17      -0.00617195      -0.00657876       0.04259361
O        0.76825263       2.20966986      11.07921178       18       0.00617195       0.00657876       0.04259361
O        3.50898142       0.64345522       4.70579456       19       0.00617195      -0.00657876      -0.04259361
O        0.76825263       0.64345522       3.18670861       20       0.00617195      -0.00657876       0.04259361
O        3.50898142       2.20966986      12.59829773       21       0.00617195       0.00657876      -0.04259361
O        4.71320495       3.49658031       4.70579456       22      -0.00617195      -0.00657876      -0.04259361
O        1.97247616       5.06279495      11.07921178       23      -0.00617195       0.00657876       0.04259361
O        3.88700438       3.02750837       9.86498071       24      -0.01325877       0.01244340       0.03180922
O        1.14627559       5.53186689       5.92002563       25      -0.01325877      -0.01244340      -0.03180922
O        1.59445320       0.17438329      13.81252880       26       0.01325877       0.01244340      -0.03180922
O        4.33518199       2.67874180       1.97247754       27       0.01325877      -0.01244340       0.03180922
O        1.59445320       2.67874180       5.92002563       28       0.01325877      -0.01244340      -0.03180922
O        4.33518199       0.17438329       9.86498071       29       0.01325877       0.01244340       0.03180922
O        3.88700438       5.53186689       1.97247754       30      -0.01325877      -0.01244340       0.03180922
O        1.14627559       3.02750837      13.81252880       31      -0.01325877       0.01244340      -0.03180922
O        3.53304316       3.77726800      14.95390680       32       0.00590491       0.01699630       0.01828643
O        0.79231437       4.78210726       0.83109954       33       0.00590491      -0.01699630      -0.01828643
O        1.94841442       0.92414291       8.72360271       34      -0.00590491       0.01699630      -0.01828643
O        4.68914321       1.92898218       7.06140363       35      -0.00590491      -0.01699630       0.01828643
O        1.94841442       1.92898218       0.83109954       36      -0.00590491      -0.01699630      -0.01828643
O        4.68914321       0.92414291      14.95390680       37      -0.00590491       0.01699630       0.01828643
O        3.53304316       4.78210726       7.06140363       38       0.00590491      -0.01699630       0.01828643
O        0.79231437       3.77726800       8.72360271       39       0.00590491       0.01699630      -0.01828643
40
Lattice="5.478966631016751 -1.6868684467957607e-42 0.0 1.5764442314095407e-42 5.7053520285899575 0.0 0.0 0.0 15.794668829421552" Properties=species:S:1:pos:R:3:spacegroup_kinds:I:1:forces:R:3 spacegroup="P 1" unit_cell=conventional occupancy="_JSON {\"0\": {\"In\": 1}, \"1\": {\"In\": 1}, \"2\": {\"In\": 1}, \"3\": {\"In\": 1}, \"4\": {\"In\": 1}, \"5\": {\"In\": 1}, \"6\": {\"In\": 1}, \"7\": {\"In\": 1}, \"8\": {\"In\": 1}, \"9\": {\"In\": 1}, \"10\": {\"In\": 1}, \"11\": {\"In\": 1}, \"12\": {\"In\": 1}, \"13\": {\"In\": 1}, \"14\": {\"In\": 1}, \"15\": {\"In\": 1}, \"16\": {\"O\": 1}, \"17\": {\"O\": 1}, \"18\": {\"O\": 1}, \"19\": {\"O\": 1}, \"20\": {\"O\": 1}, \"21\": {\"O\": 1}, \"22\": {\"O\": 1}, \"23\": {\"O\": 1}, \"24\": {\"O\": 1}, \"25\": {\"O\": 1}, \"26\": {\"O\": 1}, \"27\": {\"O\": 1}, \"28\": {\"O\": 1}, \"29\": {\"O\": 1}, \"30\": {\"O\": 1}, \"31\": {\"O\": 1}, \"32\": {\"O\": 1}, \"33\": {\"O\": 1}, \"34\": {\"O\": 1}, \"35\": {\"O\": 1}, \"36\": {\"O\": 1}, \"37\": {\"O\": 1}, \"38\": {\"O\": 1}, \"39\": {\"O\": 1}}" n_minim_iter=5 energy=-45150.17034308816 stress="-0.009251018381784024 -4.0532016811004693e-13 -1.2478142687324608e-13 -4.0532016811004693e-13 -0.008895328525700127 -1.8486243395904657e-13 -1.2478142687324608e-13 -1.8486243395904657e-13 -0.008784751283033704" free_energy=-45150.17034308816 pbc="T T T"
In       2.73601271       4.57839467       9.02904975        0       0.00757033      -0.01809274       0.00687946
In      -0.00347060       3.97963337       6.76561907        1       0.00757033       0.01809274      -0.00687946
In       2.74295392       1.72571866      14.66295349        2      -0.00757033      -0.01809274      -0.00687946
In       5.48243724       1.12695736       1.13171534        3      -0.00757033       0.01809274       0.00687946
In       2.74295392       1.12695736       6.76561907        4      -0.00757033       0.01809274      -0.00687946
In       5.48243724       1.72571866       9.02904975        5      -0.00757033      -0.01809274       0.00687946
In       2.73601271       3.97963337       1.13171534        6       0.00757033       0.01809274       0.00687946
In      -0.00347060       4.57839467      14.66295349        7       0.00757033      -0.01809274      -0.00687946
In       2.73358032       4.29028387      12.92751398        8       0.01188938       0.01134666      -0.01327541
In       5.47306364       4.26774418       2.86715485        9       0.01188938      -0.01134666       0.01327541
In       2.74538631       1.43760785      10.76448926       10      -0.01188938       0.01134666       0.01327541
In       0.00590299       1.41506816       5.03017957       11      -0.01188938      -0.01134666      -0.01327541
In       2.74538631       1.41506816       2.86715485       12      -0.01188938      -0.01134666       0.01327541
In       0.00590299       1.43760785      12.92751398       13      -0.01188938       0.01134666      -0.01327541
In       2.73358032       4.26774418       5.03017957       14       0.01188938      -0.01134666      -0.01327541
In       5.47306364       4.29028387      10.76448926       15       0.01188938       0.01134666       0.01327541
O        4.71081706       5.06172458      12.60478755       16       0.00188141       0.01862157      -0.01383142
O        1.97133374       3.49630346       3.18988128       17       0.00188141      -0.01862157       0.01383142
O        0.76814957       2.20904857      11.08721570       18      -0.00188141       0.01862157       0.01383142
O        3.50763289       0.64362744       4.70745313       19      -0.00188141      -0.01862157      -0.01383142
O        0.76814957       0.64362744       3.18988128       20      -0.00188141      -0.01862157       0.01383142
O        3.50763289       2.20904857      12.60478755       21      -0.00188141       0.01862157      -0.01383142
O        4.71081706       3.49630346       4.70745313       22       0.00188141      -0.01862157      -0.01383142
O        1.97133374       5.06172458      11.08721570       23       0.00188141       0.01862157       0.01383142
O        3.88385154       3.02751316       9.87113663       24       0.01847237       0.00123327       0.03668562
O        1.14436822       5.53051489       5.92353220       25       0.01847237      -0.00123327      -0.03668562
O        1.59511509       0.17483714      13.82086662       26      -0.01847237       0.00123327      -0.03668562
O        4.33459841       2.67783887       1.97380221       27      -0.01847237      -0.00123327       0.03668562
O        1.59511509       2.67783887       5.92353220       28      -0.01847237      -0.00123327      -0.03668562
O        4.33459841       0.17483714       9.87113663       29      -0.01847237       0.00123327       0.03668562
O        3.88385154       5.53051489       1.97380221       30       0.01847237      -0.00123327       0.03668562
O        1.14436822       3.02751316      13.82086662       31       0.01847237       0.00123327      -0.03668562
O        3.53222162       3.77751735      14.96454007       32      -0.01499418      -0.00242096      -0.00865149
O        0.79273830       4.78051069       0.83012876       33      -0.01499418       0.00242096       0.00865149
O        1.94674501       0.92484134       8.72746318       34       0.01499418      -0.00242096       0.00865149
O        4.68622833       1.92783468       7.06720565       35       0.01499418       0.00242096      -0.00865149
O        1.94674501       1.92783468       0.83012876       36       0.01499418       0.00242096       0.00865149
O        4.68622833       0.92484134      14.96454007       37       0.01499418      -0.00242096      -0.00865149
O        3.53222162       4.78051069       7.06720565       38      -0.01499418       0.00242096      -0.00865149
O        0.79273830       3.77751735       8.72746318       39      -0.01499418      -0.00242096       0.00865149
40