40
Lattice="5.801126662633912 4.381912524575834e-19 -2.95213416085628e-17 -1.7631706867706913e-15 4.741501918443223 5.1831574278489323e-17 2.84341880777691e-16 1.5985139993729088e-16 16.060485431646825" Properties=species:S:1:pos:R:3:spacegroup_kinds:I:1:forces:R:3 spacegroup="P 1" unit_cell=conventional occupancy="_JSON {\"0\": {\"In\": 1}, \"1\": {\"In\": 1}, \"2\": {\"In\": 1}, \"3\": {\"In\": 1}, \"4\": {\"In\": 1}, \"5\": {\"In\": 1}, \"6\": {\"In\": 1}, \"7\": {\"In\": 1}, \"8\": {\"In\": 1}, \"9\": {\"In\": 1}, \"10\": {\"In\": 1}, \"11\": {\"In\": 1}, \"12\": {\"In\": 1}, \"13\": {\"In\": 1}, \"14\": {\"In\": 1}, \"15\": {\"In\": 1}, \"16\": {\"O\": 1}, \"17\": {\"O\": 1}, \"18\": {\"O\": 1}, \"19\": {\"O\": 1}, \"20\": {\"O\": 1}, \"21\": {\"O\": 1}, \"22\": {\"O\": 1}, \"23\": {\"O\": 1}, \"24\": {\"O\": 1}, \"25\": {\"O\": 1}, \"26\": {\"O\": 1}, \"27\": {\"O\": 1}, \"28\": {\"O\": 1}, \"29\": {\"O\": 1}, \"30\": {\"O\": 1}, \"31\": {\"O\": 1}, \"32\": {\"O\": 1}, \"33\": {\"O\": 1}, \"34\": {\"O\": 1}, \"35\": {\"O\": 1}, \"36\": {\"O\": 1}, \"37\": {\"O\": 1}, \"38\": {\"O\": 1}, \"39\": {\"O\": 1}}" n_minim_iter=7 energy=-45152.63692681519 stress="-0.028928846288590073 -1.8769717794597157e-14 -1.3379164067342855e-13 -1.8769717794597157e-14 -0.028900965820180913 1.4452423751548156e-13 -1.3379164067342855e-13 1.4452423751548156e-13 -0.028936381550321782" free_energy=-45152.63692681519 pbc="T T T"
In       2.84421755       3.55553812       9.13069916        0      -0.00747441       0.00000000       0.00009046
In      -0.05634579       3.55553812       6.93011049        1      -0.00747441      -0.00000000      -0.00009046
In       2.95676593       1.18478716      14.96035321        2       0.00747441      -0.00000000      -0.00009046
In       5.85732926       1.18478716       1.10045644        3       0.00747441       0.00000000       0.00009046
In       2.95676593       1.18478716       6.93011049        4       0.00747441       0.00000000      -0.00009046
In       5.85732926       1.18478716       9.13069916        5       0.00747441      -0.00000000       0.00009046
In       2.84421755       3.55553812       1.10045644        6      -0.00747441      -0.00000000       0.00009046
In      -0.05634579       3.55553812      14.96035321        7      -0.00747441       0.00000000      -0.00009046
In       2.95676593       3.55553812      13.14582052        8       0.00747441       0.00000000       0.00009046
In       5.85732926       3.55553812       2.91498913        9       0.00747441      -0.00000000      -0.00009046
In       2.84421755       1.18478716      10.94523185       10      -0.00747441      -0.00000000      -0.00009046
In      -0.05634579       1.18478716       5.11557780       11      -0.00747441      -0.00000000       0.00009046
In       2.84421755       1.18478716       2.91498913       12      -0.00747441       0.00000000      -0.00009046
In      -0.05634579       1.18478716      13.14582052       13      -0.00747441       0.00000000       0.00009046
In       2.95676593       3.55553812       5.11557780       14       0.00747441       0.00000000       0.00009046
In       5.85732926       3.55553812      10.94523185       15       0.00747441       0.00000000      -0.00009046
O        5.05833986       3.55553812      12.83480258       16      -0.00011897      -0.00000000       0.00035189
O        2.15777653       3.55553812       3.22600707       17      -0.00011897      -0.00000000      -0.00035189
O        0.74264362       1.18478716      11.25624978       18       0.00011897       0.00000000      -0.00035189
O        3.64320695       1.18478716       4.80455986       19       0.00011897      -0.00000000       0.00035189
O        0.74264362       1.18478716       3.22600707       20       0.00011897      -0.00000000      -0.00035189
O        3.64320695       1.18478716      12.83480258       21       0.00011897       0.00000000       0.00035189
O        5.05833986       3.55553812       4.80455986       22      -0.00011897       0.00000000       0.00035189
O        2.15777653       3.55553812      11.25624978       23      -0.00011897      -0.00000000      -0.00035189
O        4.35077340       2.37016264      10.03796550       24      -0.00000000      -0.00000000      -0.00000000
O        1.45021007       4.74091360       6.02284414       25      -0.00000000       0.00000000      -0.00000000
O        1.45021007      -0.00058832      14.05308686       26      -0.00000000      -0.00000000       0.00000000
O        4.35077340       2.37016264       2.00772279       27       0.00000000       0.00000000       0.00000000
O        1.45021007       2.37016264       6.02284414       28      -0.00000000      -0.00000000      -0.00000000
O        4.35077340      -0.00058832      10.03796550       29      -0.00000000       0.00000000      -0.00000000
O        4.35077340       4.74091360       2.00772279       30       0.00000000      -0.00000000       0.00000000
O        1.45021007       2.37016264      14.05308686       31      -0.00000000       0.00000000       0.00000000
O        3.64320695       3.55553812      15.27137114       32       0.00011897      -0.00000000      -0.00035189
O        0.74264362       3.55553812       0.78943851       33       0.00011897       0.00000000       0.00035189
O        2.15777653       1.18478716       8.81968122       34      -0.00011897       0.00000000       0.00035189
O        5.05833986       1.18478716       7.24112842       35      -0.00011897       0.00000000      -0.00035189
O        2.15777653       1.18478716       0.78943851       36      -0.00011897      -0.00000000       0.00035189
O        5.05833986       1.18478716      15.27137114       37      -0.00011897      -0.00000000      -0.00035189
O        3.64320695       3.55553812       7.24112842       38       0.00011897      -0.00000000      -0.00035189
O        0.74264362       3.55553812       8.81968122       39       0.00011897      -0.00000000       0.00035189
