40
Lattice="5.438366373740157 -1.3817522478938538e-42 0.0 1.5195875960933265e-42 5.648354417370284 0.0 0.0 0.0 15.650180540237585" Properties=species:S:1:pos:R:3:spacegroup_kinds:I:1:forces:R:3 spacegroup="P 1" unit_cell=conventional occupancy="_JSON {\"0\": {\"In\": 1}, \"1\": {\"In\": 1}, \"2\": {\"In\": 1}, \"3\": {\"In\": 1}, \"4\": {\"In\": 1}, \"5\": {\"In\": 1}, \"6\": {\"In\": 1}, \"7\": {\"In\": 1}, \"8\": {\"In\": 1}, \"9\": {\"In\": 1}, \"10\": {\"In\": 1}, \"11\": {\"In\": 1}, \"12\": {\"In\": 1}, \"13\": {\"In\": 1}, \"14\": {\"In\": 1}, \"15\": {\"In\": 1}, \"16\": {\"O\": 1}, \"17\": {\"O\": 1}, \"18\": {\"O\": 1}, \"19\": {\"O\": 1}, \"20\": {\"O\": 1}, \"21\": {\"O\": 1}, \"22\": {\"O\": 1}, \"23\": {\"O\": 1}, \"24\": {\"O\": 1}, \"25\": {\"O\": 1}, \"26\": {\"O\": 1}, \"27\": {\"O\": 1}, \"28\": {\"O\": 1}, \"29\": {\"O\": 1}, \"30\": {\"O\": 1}, \"31\": {\"O\": 1}, \"32\": {\"O\": 1}, \"33\": {\"O\": 1}, \"34\": {\"O\": 1}, \"35\": {\"O\": 1}, \"36\": {\"O\": 1}, \"37\": {\"O\": 1}, \"38\": {\"O\": 1}, \"39\": {\"O\": 1}}" n_minim_iter=10 energy=-45150.17401605933 stress="-0.0077938117034813134 3.8439933525255395e-14 1.8088391331909649e-13 3.8439933525255395e-14 -0.00791568771750627 4.446673688849398e-13 1.8088391331909649e-13 4.446673688849398e-13 -0.00784293293283302" free_energy=-45150.17401605933 pbc="T T T"
In       2.71777181       4.52956755       8.94950375        0      -0.00087986       0.00468567      -0.00015334
In      -0.00141138       3.94296408       6.70067679        1      -0.00087986      -0.00468567       0.00015334
In       2.72059457       1.70539034      14.52576706        2       0.00087986       0.00468567       0.00015334
In       5.43977775       1.11878687       1.12441348        3       0.00087986      -0.00468567      -0.00015334
In       2.72059457       1.11878687       6.70067679        4       0.00087986      -0.00468567       0.00015334
In       5.43977775       1.70539034       8.94950375        5       0.00087986       0.00468567      -0.00015334
In       2.71777181       3.94296408       1.12441348        6      -0.00087986      -0.00468567      -0.00015334
In      -0.00141138       4.52956755      14.52576706        7      -0.00087986       0.00468567       0.00015334
In       2.71743020       4.25145716      12.80621253        8       0.00080601       0.00587211      -0.00155745
In       5.43661339       4.22107446       2.84396801        9       0.00080601      -0.00587211       0.00155745
In       2.72093617       1.42727995      10.66905828       10      -0.00080601       0.00587211       0.00155745
In       0.00175298       1.39689726       4.98112226       11      -0.00080601      -0.00587211      -0.00155745
In       2.72093617       1.39689726       2.84396801       12      -0.00080601      -0.00587211       0.00155745
In       0.00175298       1.42727995      12.80621253       13      -0.00080601       0.00587211      -0.00155745
In       2.71743020       4.22107446       4.98112226       14       0.00080601      -0.00587211      -0.00155745
In       5.43661339       4.25145716      10.66905828       15       0.00080601       0.00587211       0.00155745
O        4.67534898       5.01816481      12.48850770       16       0.00051523       0.00160536      -0.00123309
O        1.95616579       3.45436682       3.16167284       17       0.00051523      -0.00160536       0.00123309
O        0.76301739       2.19398760      10.98676311       18      -0.00051523       0.00160536       0.00123309
O        3.48220058       0.63018961       4.66341743       19      -0.00051523      -0.00160536      -0.00123309
O        0.76301739       0.63018961       3.16167284       20      -0.00051523      -0.00160536       0.00123309
O        3.48220058       2.19398760      12.48850770       21      -0.00051523       0.00160536      -0.00123309
O        4.67534898       3.45436682       4.66341743       22       0.00051523      -0.00160536      -0.00123309
O        1.95616579       5.01816481      10.98676311       23       0.00051523       0.00160536       0.00123309
O        3.85946847       2.99871741       9.79264401       24      -0.00286503       0.00765717      -0.00289519
O        1.14028528       5.47381422       5.85753653       25      -0.00286503      -0.00765717       0.00289519
O        1.57889791       0.17454020      13.68262680       26       0.00286503       0.00765717       0.00289519
O        4.29808109       2.64963701       1.96755374       27       0.00286503      -0.00765717      -0.00289519
O        1.57889791       2.64963701       5.85753653       28       0.00286503      -0.00765717       0.00289519
O        4.29808109       0.17454020       9.79264401       29       0.00286503       0.00765717      -0.00289519
O        3.85946847       5.47381422       1.96755374       30      -0.00286503      -0.00765717      -0.00289519
O        1.14028528       2.99871741      13.68262680       31      -0.00286503       0.00765717       0.00289519
O        3.50494379       3.74186775      14.82842323       32       0.00151746       0.00237993      -0.00534458
O        0.78576060       4.73066388       0.82175731       33       0.00151746      -0.00237993       0.00534458
O        1.93342259       0.91769054       8.64684758       34      -0.00151746       0.00237993       0.00534458
O        4.65260577       1.90648667       7.00333296       35      -0.00151746      -0.00237993      -0.00534458
O        1.93342259       1.90648667       0.82175731       36      -0.00151746      -0.00237993       0.00534458
O        4.65260577       0.91769054      14.82842323       37      -0.00151746       0.00237993      -0.00534458
O        3.50494379       4.73066388       7.00333296       38       0.00151746      -0.00237993      -0.00534458
O        0.78576060       3.74186775       8.64684758       39       0.00151746       0.00237993       0.00534458
