40
Lattice="5.906627486775441 -1.020079755874413e-42 0.0 2.10578943517414e-42 6.138172305935938 0.0 0.0 0.0 17.20166989752324" Properties=species:S:1:pos:R:3:spacegroup_kinds:I:1:forces:R:3 spacegroup="P 1" unit_cell=conventional occupancy="_JSON {\"0\": {\"In\": 1}, \"1\": {\"In\": 1}, \"2\": {\"In\": 1}, \"3\": {\"In\": 1}, \"4\": {\"In\": 1}, \"5\": {\"In\": 1}, \"6\": {\"In\": 1}, \"7\": {\"In\": 1}, \"8\": {\"In\": 1}, \"9\": {\"In\": 1}, \"10\": {\"In\": 1}, \"11\": {\"In\": 1}, \"12\": {\"In\": 1}, \"13\": {\"In\": 1}, \"14\": {\"In\": 1}, \"15\": {\"In\": 1}, \"16\": {\"O\": 1}, \"17\": {\"O\": 1}, \"18\": {\"O\": 1}, \"19\": {\"O\": 1}, \"20\": {\"O\": 1}, \"21\": {\"O\": 1}, \"22\": {\"O\": 1}, \"23\": {\"O\": 1}, \"24\": {\"O\": 1}, \"25\": {\"O\": 1}, \"26\": {\"O\": 1}, \"27\": {\"O\": 1}, \"28\": {\"O\": 1}, \"29\": {\"O\": 1}, \"30\": {\"O\": 1}, \"31\": {\"O\": 1}, \"32\": {\"O\": 1}, \"33\": {\"O\": 1}, \"34\": {\"O\": 1}, \"35\": {\"O\": 1}, \"36\": {\"O\": 1}, \"37\": {\"O\": 1}, \"38\": {\"O\": 1}, \"39\": {\"O\": 1}}" n_minim_iter=18 energy=-45149.963166567424 stress="0.012119126115344511 1.6415353836171852e-13 -1.7776193994543488e-13 1.6415353836171852e-13 0.012129847694321606 4.4060509712683856e-13 -1.7776193994543488e-13 4.4060509712683856e-13 0.011985930471634607" free_energy=-45149.963166567424 pbc="T T T"
In       2.62070963       5.15453966       9.97545965        0       0.00051180      -0.00400026      -0.00127244
In      -0.33260411       4.05271880       7.22621025        1       0.00051180       0.00400026       0.00127244
In       3.28591785       2.08545351      15.82704520        2      -0.00051180      -0.00400026       0.00127244
In       6.23923160       0.98363264       1.37462470        3      -0.00051180       0.00400026      -0.00127244
In       3.28591785       0.98363264       7.22621025        4      -0.00051181       0.00400026       0.00127244
In       6.23923160       2.08545351       9.97545965        5      -0.00051180      -0.00400026      -0.00127244
In       2.62070963       4.05271880       1.37462470        6       0.00051180       0.00400026      -0.00127244
In      -0.33260411       5.15453966      15.82704520        7       0.00051181      -0.00400026       0.00127244
In       2.59015697       4.74747522      13.92606318        8      -0.00461308       0.00456458      -0.00496442
In       5.54347071       4.45978324       3.27560671        9      -0.00461308      -0.00456458       0.00496442
In       3.31647052       1.67838906      11.87644166       10       0.00461308       0.00456458       0.00496442
In       0.36315677       1.39069709       5.32522824       11       0.00461308      -0.00456458      -0.00496442
In       3.31647052       1.39069709       3.27560671       12       0.00461308      -0.00456458       0.00496442
In       0.36315677       1.67838906      13.92606318       13       0.00461308       0.00456458      -0.00496442
In       2.59015697       4.45978324       5.32522824       14      -0.00461308      -0.00456458      -0.00496442
In       5.54347071       4.74747522      11.87644166       15      -0.00461308       0.00456458       0.00496442
O        4.75402705       5.78747761      13.60772350       16       0.00117545      -0.00030522       0.00254110
O        1.80071331       3.41978085       3.59394640       17       0.00117545       0.00030522      -0.00254110
O        1.15260043       2.71839145      12.19478135       18      -0.00117545      -0.00030522      -0.00254110
O        4.10591418       0.35069470       5.00688855       19      -0.00117545       0.00030522       0.00254110
O        1.15260043       0.35069470       3.59394640       20      -0.00117545       0.00030522      -0.00254110
O        4.10591418       2.71839145      13.60772350       21      -0.00117545      -0.00030522       0.00254110
O        4.75402705       3.41978085       5.00688855       22       0.00117545       0.00030522       0.00254110
O        1.80071331       5.78747761      12.19478135       23       0.00117545      -0.00030522      -0.00254110
O        4.07324137       3.52265116      10.78454087       24       0.00108213       0.00568916      -0.00320169
O        1.11992763       5.68460730       6.41712902       25       0.00108213      -0.00568916       0.00320169
O        1.83338611       0.45356501      15.01796397       26      -0.00108213       0.00568916       0.00320169
O        4.78669986       2.61552115       2.18370592       27      -0.00108213      -0.00568916      -0.00320169
O        1.83338611       2.61552115       6.41712902       28      -0.00108213      -0.00568916       0.00320169
O        4.78669986       0.45356501      10.78454087       29      -0.00108213       0.00568916      -0.00320169
O        4.07324137       5.68460730       2.18370592       30       0.00108213      -0.00568916      -0.00320169
O        1.11992763       3.52265116      15.01796397       31       0.00108213       0.00568916       0.00320169
O        3.67161026       4.17397988      16.36987257       32      -0.00100614      -0.00170544      -0.00134439
O        0.71829652       5.03327858       0.83179733       33      -0.00100614       0.00170544       0.00134439
O        2.23501722       1.10489372       9.43263228       34       0.00100614      -0.00170544       0.00134439
O        5.18833097       1.96419243       7.76903762       35       0.00100614       0.00170544      -0.00134439
O        2.23501722       1.96419243       0.83179733       36       0.00100614       0.00170544       0.00134439
O        5.18833097       1.10489372      16.36987257       37       0.00100614      -0.00170544      -0.00134439
O        3.67161026       5.03327858       7.76903762       38      -0.00100614       0.00170544      -0.00134439
O        0.71829652       4.17397988       9.43263228       39      -0.00100614      -0.00170544       0.00134439
