40
Lattice="5.727010343324826 1.0771679505891107e-19 -3.3037905630599746e-17 1.2761270694016147e-17 4.613792478919608 1.5985484824838834e-15 2.693291681400611e-16 -5.83428396928058e-16 15.735189715734863" Properties=species:S:1:pos:R:3:spacegroup_kinds:I:1:forces:R:3 spacegroup="P 1" unit_cell=conventional occupancy="_JSON {\"0\": {\"In\": 1}, \"1\": {\"In\": 1}, \"2\": {\"In\": 1}, \"3\": {\"In\": 1}, \"4\": {\"In\": 1}, \"5\": {\"In\": 1}, \"6\": {\"In\": 1}, \"7\": {\"In\": 1}, \"8\": {\"In\": 1}, \"9\": {\"In\": 1}, \"10\": {\"In\": 1}, \"11\": {\"In\": 1}, \"12\": {\"In\": 1}, \"13\": {\"In\": 1}, \"14\": {\"In\": 1}, \"15\": {\"In\": 1}, \"16\": {\"O\": 1}, \"17\": {\"O\": 1}, \"18\": {\"O\": 1}, \"19\": {\"O\": 1}, \"20\": {\"O\": 1}, \"21\": {\"O\": 1}, \"22\": {\"O\": 1}, \"23\": {\"O\": 1}, \"24\": {\"O\": 1}, \"25\": {\"O\": 1}, \"26\": {\"O\": 1}, \"27\": {\"O\": 1}, \"28\": {\"O\": 1}, \"29\": {\"O\": 1}, \"30\": {\"O\": 1}, \"31\": {\"O\": 1}, \"32\": {\"O\": 1}, \"33\": {\"O\": 1}, \"34\": {\"O\": 1}, \"35\": {\"O\": 1}, \"36\": {\"O\": 1}, \"37\": {\"O\": 1}, \"38\": {\"O\": 1}, \"39\": {\"O\": 1}}" n_minim_iter=5 energy=-45151.63817504451 stress="-0.04455718313133184 -3.177268194776352e-13 1.606304394249248e-13 -3.177268194776352e-13 -0.044759715462700585 -1.522713494567943e-13 1.606304394249248e-13 -1.522713494567943e-13 -0.0445922085700028" free_energy=-45151.63817504451 pbc="T T T"
In       2.80865988       3.45977188       8.95610064        0       0.00342554       0.00000000      -0.00511121
In      -0.05484529       3.45977188       6.77940672        1       0.00342554      -0.00000000       0.00511121
In       2.91820911       1.15287564      14.64700158        2      -0.00342554       0.00000000       0.00511121
In       5.78171428       1.15287564       1.08850578        3      -0.00342554      -0.00000000      -0.00511121
In       2.91820911       1.15287564       6.77940672        4      -0.00342554      -0.00000000       0.00511121
In       5.78171428       1.15287564       8.95610064        5      -0.00342554       0.00000000      -0.00511121
In       2.80865988       3.45977188       1.08850578        6       0.00342554       0.00000000      -0.00511121
In      -0.05484529       3.45977188      14.64700158        7       0.00342554      -0.00000000       0.00511121
In       2.91820911       3.45977188      12.88989807        8      -0.00342554      -0.00000000      -0.00511121
In       5.78171428       3.45977188       2.84560929        9      -0.00342554       0.00000000       0.00511121
In       2.80865988       1.15287564      10.71320415       10       0.00342554      -0.00000000       0.00511121
In      -0.05484529       1.15287564       5.02230321       11       0.00342554       0.00000000      -0.00511121
In       2.80865988       1.15287564       2.84560929       12       0.00342554       0.00000000       0.00511121
In      -0.05484529       1.15287564      12.88989807       13       0.00342554       0.00000000      -0.00511121
In       2.91820911       3.45977188       5.02230321       14      -0.00342554       0.00000000      -0.00511121
In       5.78171428       3.45977188      10.71320415       15      -0.00342554      -0.00000000       0.00511121
O        4.98601383       3.45977188      12.57861056       16       0.00272394       0.00000000      -0.00062475
O        2.12250866       3.45977188       3.15689681       17       0.00272394      -0.00000000       0.00062475
O        0.74085515       1.15287564      11.02449167       18      -0.00272394       0.00000000       0.00062475
O        3.60436033       1.15287564       4.71101570       19      -0.00272394       0.00000000      -0.00062475
O        0.74085515       1.15287564       3.15689681       20      -0.00272394       0.00000000       0.00062475
O        3.60436033       1.15287564      12.57861056       21      -0.00272394       0.00000000      -0.00062475
O        4.98601383       3.45977188       4.71101570       22       0.00272394      -0.00000000      -0.00062475
O        2.12250866       3.45977188      11.02449167       23       0.00272394       0.00000000       0.00062475
O        4.29518708       2.30632376       9.83465240       24       0.00000000      -0.00000000       0.00000000
O        1.43168191       4.61322000       5.90085497       25      -0.00000000       0.00000000      -0.00000000
O        1.43168191      -0.00057247      13.76844983       26       0.00000000       0.00000000      -0.00000000
O        4.29518708       2.30632376       1.96705754       27       0.00000000       0.00000000      -0.00000000
O        1.43168191       2.30632376       5.90085497       28      -0.00000000      -0.00000000      -0.00000000
O        4.29518708      -0.00057247       9.83465240       29       0.00000000       0.00000000       0.00000000
O        4.29518708       4.61322000       1.96705754       30      -0.00000000       0.00000000      -0.00000000
O        1.43168191       2.30632376      13.76844983       31      -0.00000000       0.00000000      -0.00000000
O        3.60436033       3.45977188      14.95828909       32      -0.00272394       0.00000000       0.00062475
O        0.74085515       3.45977188       0.77721827       33      -0.00272394      -0.00000000      -0.00062475
O        2.12250866       1.15287564       8.64481313       34       0.00272394       0.00000000      -0.00062475
O        4.98601383       1.15287564       7.09069424       35       0.00272394       0.00000000       0.00062475
O        2.12250866       1.15287564       0.77721827       36       0.00272394      -0.00000000      -0.00062475
O        4.98601383       1.15287564      14.95828909       37       0.00272394      -0.00000000       0.00062475
O        3.60436033       3.45977188       7.09069424       38      -0.00272394      -0.00000000       0.00062475
O        0.74085515       3.45977188       8.64481313       39      -0.00272394      -0.00000000      -0.00062475
