40
Lattice="5.8433079402795896 1.778496914722069e-42 0.0 -4.164910278607195e-44 4.7684599972275565 0.0 0.0 0.0 16.320714059604352" Properties=species:S:1:pos:R:3:spacegroup_kinds:I:1:forces:R:3 spacegroup="P 1" unit_cell=conventional occupancy="_JSON {\"0\": {\"In\": 1}, \"1\": {\"In\": 1}, \"2\": {\"In\": 1}, \"3\": {\"In\": 1}, \"4\": {\"In\": 1}, \"5\": {\"In\": 1}, \"6\": {\"In\": 1}, \"7\": {\"In\": 1}, \"8\": {\"In\": 1}, \"9\": {\"In\": 1}, \"10\": {\"In\": 1}, \"11\": {\"In\": 1}, \"12\": {\"In\": 1}, \"13\": {\"In\": 1}, \"14\": {\"In\": 1}, \"15\": {\"In\": 1}, \"16\": {\"O\": 1}, \"17\": {\"O\": 1}, \"18\": {\"O\": 1}, \"19\": {\"O\": 1}, \"20\": {\"O\": 1}, \"21\": {\"O\": 1}, \"22\": {\"O\": 1}, \"23\": {\"O\": 1}, \"24\": {\"O\": 1}, \"25\": {\"O\": 1}, \"26\": {\"O\": 1}, \"27\": {\"O\": 1}, \"28\": {\"O\": 1}, \"29\": {\"O\": 1}, \"30\": {\"O\": 1}, \"31\": {\"O\": 1}, \"32\": {\"O\": 1}, \"33\": {\"O\": 1}, \"34\": {\"O\": 1}, \"35\": {\"O\": 1}, \"36\": {\"O\": 1}, \"37\": {\"O\": 1}, \"38\": {\"O\": 1}, \"39\": {\"O\": 1}}" n_minim_iter=43 energy=-45152.93659361327 stress="-0.01757076907945411 1.5919241474633258e-13 -5.832399660378823e-14 1.5919241474633258e-13 -0.017592227331648103 1.0125911399994061e-13 -5.832399660378823e-14 1.0125911399994061e-13 -0.017485426482854085" free_energy=-45152.93659361327 pbc="T T T"
In       2.86510449       3.57575333       9.26935029        0       0.00046207       0.00461493      -0.00587736
In      -0.05654949       3.57693666       7.05136377        1       0.00046207      -0.00461493       0.00587736
In       2.97820346       1.19152333      15.21172080        2      -0.00046207       0.00461493       0.00587736
In       5.89985743       1.19270667       1.10899326        3      -0.00046207      -0.00461493      -0.00587736
In       2.97820346       1.19270667       7.05136377        4      -0.00046207      -0.00461493       0.00587736
In       5.89985743       1.19152333       9.26935029        5      -0.00046207       0.00461493      -0.00587736
In       2.86510449       3.57693666       1.10899326        6       0.00046207      -0.00461493      -0.00587736
In      -0.05654949       3.57575333      15.21172080        7       0.00046207       0.00461493       0.00587736
In       2.97805923       3.57590659      13.34919934        8       0.00200103       0.00080437       0.00043765
In       5.89971320       3.57678341       2.97151472        9       0.00200103      -0.00080437      -0.00043765
In       2.86524871       1.19167659      11.13187175       10      -0.00200103       0.00080437      -0.00043765
In      -0.05640526       1.19255341       5.18884231       11      -0.00200103      -0.00080437       0.00043765
In       2.86524871       1.19255341       2.97151472       12      -0.00200103      -0.00080437      -0.00043765
In      -0.05640526       1.19167659      13.34919934       13      -0.00200103       0.00080437       0.00043765
In       2.97805923       3.57678341       5.18884231       14       0.00200103      -0.00080437       0.00043765
In       5.89971320       3.57590659      11.13187175       15       0.00200103       0.00080437      -0.00043765
O        5.09608037       3.57646943      13.03700635       16      -0.00269592      -0.00049776       0.00045050
O        2.17442640       3.57622057       3.28370771       17      -0.00269592       0.00049776      -0.00045050
O        0.74722757       1.19223943      11.44406474       18       0.00269592      -0.00049776      -0.00045050
O        3.66888154       1.19199057       4.87664932       19       0.00269592       0.00049776       0.00045050
O        0.74722757       1.19199057       3.28370771       20       0.00269592       0.00049776      -0.00045050
O        3.66888154       1.19223943      13.03700635       21       0.00269592      -0.00049776       0.00045050
O        5.09608037       3.57622057       4.87664932       22      -0.00269592       0.00049776       0.00045050
O        2.17442640       3.57646943      11.44406474       23      -0.00269592      -0.00049776      -0.00045050
O        4.38249395       2.38411799      10.20053137       24       0.00100384      -0.00229821       0.00022718
O        1.46083998       4.76857201       6.12018269       25       0.00100384       0.00229821      -0.00022718
O        1.46081399      -0.00011201      14.28053972       26      -0.00100384      -0.00229821      -0.00022718
O        4.38246796       2.38434201       2.04017434       27      -0.00100384       0.00229821       0.00022718
O        1.46081399       2.38434201       6.12018269       28      -0.00100384       0.00229821      -0.00022718
O        4.38246796      -0.00011201      10.20053137       29      -0.00100384      -0.00229821       0.00022718
O        4.38249395       4.76857201       2.04017434       30       0.00100384       0.00229821       0.00022718
O        1.46083998       2.38411799      14.28053972       31       0.00100384      -0.00229821      -0.00022718
O        3.66905886       3.57687431      15.52436782       32      -0.00240095      -0.00201980      -0.00000959
O        0.74740489       3.57581568       0.79634624       33      -0.00240095       0.00201980       0.00000959
O        2.17424908       1.19264431       8.95670327       34       0.00240095      -0.00201980       0.00000959
O        5.09590305       1.19158569       7.36401079       35       0.00240095       0.00201980      -0.00000959
O        2.17424908       1.19158569       0.79634624       36       0.00240095       0.00201980       0.00000959
O        5.09590305       1.19264431      15.52436782       37       0.00240095      -0.00201980      -0.00000959
O        3.66905886       3.57581568       7.36401079       38      -0.00240095       0.00201980      -0.00000959
O        0.74740489       3.57687431       8.95670327       39      -0.00240095      -0.00201980       0.00000959
