40
Lattice="5.920132559663613 4.974329191911232e-16 -1.4475634708960515e-15 -5.057842466902896e-16 4.169258701331409 -4.580912714709126e-15 1.0276536297037031e-16 -1.1140973432718424e-14 16.318470403243126" Properties=species:S:1:pos:R:3:spacegroup_kinds:I:1:forces:R:3 spacegroup="P 1" unit_cell=conventional occupancy="_JSON {\"0\": {\"In\": 1}, \"1\": {\"In\": 1}, \"2\": {\"In\": 1}, \"3\": {\"In\": 1}, \"4\": {\"In\": 1}, \"5\": {\"In\": 1}, \"6\": {\"In\": 1}, \"7\": {\"In\": 1}, \"8\": {\"In\": 1}, \"9\": {\"In\": 1}, \"10\": {\"In\": 1}, \"11\": {\"In\": 1}, \"12\": {\"In\": 1}, \"13\": {\"In\": 1}, \"14\": {\"In\": 1}, \"15\": {\"In\": 1}, \"16\": {\"O\": 1}, \"17\": {\"O\": 1}, \"18\": {\"O\": 1}, \"19\": {\"O\": 1}, \"20\": {\"O\": 1}, \"21\": {\"O\": 1}, \"22\": {\"O\": 1}, \"23\": {\"O\": 1}, \"24\": {\"O\": 1}, \"25\": {\"O\": 1}, \"26\": {\"O\": 1}, \"27\": {\"O\": 1}, \"28\": {\"O\": 1}, \"29\": {\"O\": 1}, \"30\": {\"O\": 1}, \"31\": {\"O\": 1}, \"32\": {\"O\": 1}, \"33\": {\"O\": 1}, \"34\": {\"O\": 1}, \"35\": {\"O\": 1}, \"36\": {\"O\": 1}, \"37\": {\"O\": 1}, \"38\": {\"O\": 1}, \"39\": {\"O\": 1}}" n_minim_iter=13 energy=-45151.40746495254 stress="0.0255434950484175 -3.7423421583348074e-13 -1.3020628590588602e-13 -3.7423421583348074e-13 0.025672350780933304 5.524685025085448e-14 -1.3020628590588602e-13 5.524685025085448e-14 0.02546085647747516" free_energy=-45151.40746495254 pbc="T T T"
In       2.84823057       3.12642671       9.26954632        0       0.00667941       0.00000000      -0.00315577
In      -0.11183570       3.12642671       7.04925350        1       0.00667941       0.00000000       0.00315577
In       3.07175586       1.04179736      15.20848870        2      -0.00667941      -0.00000000       0.00315577
In       6.03182214       1.04179736       1.11031112        3      -0.00667941      -0.00000000      -0.00315577
In       3.07175586       1.04179736       7.04925350        4      -0.00667941       0.00000000       0.00315577
In       6.03182214       1.04179736       9.26954632        5      -0.00667941       0.00000000      -0.00315577
In       2.84823057       3.12642671       1.11031112        6       0.00667941       0.00000000      -0.00315577
In      -0.11183570       3.12642671      15.20848870        7       0.00667941       0.00000000       0.00315577
In       3.07175586       3.12642671      13.34916393        8      -0.00667941       0.00000000      -0.00315577
In       6.03182214       3.12642671       2.96963590        9      -0.00667941       0.00000000       0.00315577
In       2.84823057       1.04179736      11.12887110       10       0.00667941      -0.00000000       0.00315577
In      -0.11183570       1.04179736       5.18992872       11       0.00667941       0.00000000      -0.00315577
In       2.84823057       1.04179736       2.96963590       12       0.00667941       0.00000000       0.00315577
In      -0.11183570       1.04179736      13.34916393       13       0.00667941      -0.00000000      -0.00315577
In       3.07175586       3.12642671       5.18992872       14      -0.00667941       0.00000000      -0.00315577
In       6.03182214       3.12642671      11.12887110       15      -0.00667941      -0.00000000       0.00315577
O        5.16757330       3.12642671      13.00541425       16       0.00456691       0.00000000      -0.00138429
O        2.20750702       3.12642671       3.31338558       17       0.00456691       0.00000000       0.00138429
O        0.75241313       1.04179736      11.47262078       18      -0.00456691       0.00000000       0.00138429
O        3.71247941       1.04179736       4.84617904       19      -0.00456691       0.00000000      -0.00138429
O        0.75241313       1.04179736       3.31338558       20      -0.00456691      -0.00000000       0.00138429
O        3.71247941       1.04179736      13.00541425       21      -0.00456691      -0.00000000      -0.00138429
O        5.16757330       3.12642671       4.84617904       22       0.00456691      -0.00000000      -0.00138429
O        2.20750702       3.12642671      11.47262078       23       0.00456691       0.00000000       0.00138429
O        4.44002636       2.08411203      10.19920871       24       0.00000000      -0.00000000       0.00000000
O        1.47996008       4.16874138       6.11959111       25      -0.00000000      -0.00000000      -0.00000000
O        1.47996008      -0.00051732      14.27882631       26       0.00000000      -0.00000000      -0.00000000
O        4.44002636       2.08411203       2.03997351       27      -0.00000000       0.00000000       0.00000000
O        1.47996008       2.08411203       6.11959111       28      -0.00000000       0.00000000      -0.00000000
O        4.44002636      -0.00051732      10.19920871       29       0.00000000      -0.00000000      -0.00000000
O        4.44002636       4.16874138       2.03997351       30      -0.00000000      -0.00000000       0.00000000
O        1.47996008       2.08411203      14.27882631       31      -0.00000000       0.00000000      -0.00000000
O        3.71247941       3.12642671      15.55223838       32      -0.00456691       0.00000000       0.00138429
O        0.75241313       3.12642671       0.76656144       33      -0.00456691       0.00000000      -0.00138429
O        2.20750702       1.04179736       8.92579665       34       0.00456691      -0.00000000      -0.00138429
O        5.16757330       1.04179736       7.39300318       35       0.00456691      -0.00000000       0.00138429
O        2.20750702       1.04179736       0.76656144       36       0.00456691      -0.00000000      -0.00138429
O        5.16757330       1.04179736      15.55223838       37       0.00456691      -0.00000000       0.00138429
O        3.71247941       3.12642671       7.39300318       38      -0.00456691      -0.00000000       0.00138429
O        0.75241313       3.12642671       8.92579665       39      -0.00456691       0.00000000      -0.00138429
