40
Lattice="9.41362039134835 7.378164745830418e-10 1.865174681370263e-14 -3.1378734644784037 8.875246418738566 -1.2779417524200198e-09 -3.1378734634349894 -4.437623208631468 7.686188864326411" Properties=species:S:1:pos:R:3:spacegroup_kinds:I:1:forces:R:3 spacegroup="P 1" unit_cell=conventional occupancy="_JSON {\"0\": {\"In\": 1}, \"1\": {\"In\": 1}, \"2\": {\"In\": 1}, \"3\": {\"In\": 1}, \"4\": {\"In\": 1}, \"5\": {\"In\": 1}, \"6\": {\"In\": 1}, \"7\": {\"In\": 1}, \"8\": {\"In\": 1}, \"9\": {\"In\": 1}, \"10\": {\"In\": 1}, \"11\": {\"In\": 1}, \"12\": {\"In\": 1}, \"13\": {\"In\": 1}, \"14\": {\"In\": 1}, \"15\": {\"In\": 1}, \"16\": {\"O\": 1}, \"17\": {\"O\": 1}, \"18\": {\"O\": 1}, \"19\": {\"O\": 1}, \"20\": {\"O\": 1}, \"21\": {\"O\": 1}, \"22\": {\"O\": 1}, \"23\": {\"O\": 1}, \"24\": {\"O\": 1}, \"25\": {\"O\": 1}, \"26\": {\"O\": 1}, \"27\": {\"O\": 1}, \"28\": {\"O\": 1}, \"29\": {\"O\": 1}, \"30\": {\"O\": 1}, \"31\": {\"O\": 1}, \"32\": {\"O\": 1}, \"33\": {\"O\": 1}, \"34\": {\"O\": 1}, \"35\": {\"O\": 1}, \"36\": {\"O\": 1}, \"37\": {\"O\": 1}, \"38\": {\"O\": 1}, \"39\": {\"O\": 1}}" n_minim_iter=1 energy=-45147.882431212005 stress="0.08402017778623513 -3.2322830336457123e-13 5.732514541467884e-14 -3.2322830336457123e-13 0.08402017778589158 9.416146478919316e-14 5.732514541467884e-14 9.416146478919316e-14 0.08402017778576143" free_energy=-45147.882431212005 pbc="T T T"
In      -4.46168055       3.15488458       6.06486292        0       0.04550605      -0.03217764       0.05573330
In       7.59955401       1.28273864       1.62132594        1      -0.04550605       0.03217764      -0.05573330
In       1.32380709      -0.93607297       5.46442037        2      -0.04550605       0.03217764      -0.05573330
In      -1.56893673      -2.21881160       3.84309443        3       0.00000000       0.00000000      -0.00000000
In      -1.32380709       4.26429038       3.54287316        4       0.04550605      -0.03217764      -0.05573330
In       4.95193984      -2.98155174       5.76464165        5       0.04550605       0.06435527      -0.00000000
In      -1.32380709       1.45607147       5.76464165        6       0.04550605       0.06435527      -0.00000000
In      -1.81406638       7.41917495       1.92154721        7      -0.04550605      -0.06435527      -0.00000000
In       4.46168055       0.17333284       4.14331570        8      -0.04550605       0.03217764       0.05573330
In      -1.56893673       4.43762321      -0.00000000        9      -0.00000000       0.00000000      -0.00000000
In       4.46168055       6.82976765       0.30022127       10      -0.04550605       0.03217764       0.05573330
In      -1.32380709      -2.39214444       7.38596759       11       0.04550605      -0.03217764      -0.05573330
In       4.46168055       2.98155174       1.92154721       12      -0.04550605      -0.06435527       0.00000000
In       1.81406637       5.37369618       2.22176849       13       0.04550605      -0.03217764       0.05573330
In       4.70681019       0.00000000      -0.00000000       14       0.00000000       0.00000000       0.00000000
In       1.56893673       2.21881161       3.84309443       15       0.00000000       0.00000000       0.00000000
O        0.99253100       4.44597368       4.14614879       16       0.04398627       0.02339061      -0.05244575
O       -2.14534247       3.58649495       5.60588274       17       0.04398627      -0.05711466       0.00596601
O       -0.46373485       2.39741880      -0.02076582       18      -0.01713325      -0.01389664      -0.06888980
O       -0.99253100      -0.84277778       2.06584268       19      -0.04398627      -0.03372405      -0.04647974
O        4.09649402       5.26841185       2.08660849       20      -0.06851031      -0.00604950       0.02241006
O        2.17925290       3.04596156       1.76278831       21       0.06851031      -0.02243243       0.00596601
O        2.17925290       6.66007349       0.32382018       22       0.06851031       0.01638293       0.01644405
O       -2.41488641       6.29450863       3.82232861       23       0.00739079       0.02078559      -0.06888980
O        3.60160831       2.04020441       7.70695468       24       0.01713325       0.01389664       0.06888980
O        5.55275987      -1.85688541       3.86386025       25      -0.00739079      -0.02078559       0.06888980
O        6.73948178       3.39953728       1.75648593       26       0.01713325      -0.06660863      -0.02241006
O        3.86086052       2.38179098       4.16691461       27       0.00739079      -0.07005311       0.01644405
O        0.72298705       4.63657003       7.38313449       28       0.00739079       0.04926752       0.05244575
O        2.41488641      -0.19894682       0.30305436       29      -0.00739079      -0.04926752      -0.05244575
O       -3.60160832       1.03808593       5.92970293       30      -0.01713325       0.06660863       0.02241006
O        5.28321593       0.85112826       2.08030612       31      -0.04398627       0.05711466      -0.00596601
O        0.95862056       1.39166165       5.92340055       32      -0.06851031       0.02243243      -0.00596601
O        3.60160831      -1.00211847       5.90893711       33       0.01713325       0.05271200      -0.04647974
O        2.14534246      -0.00835047       3.54004006       34      -0.04398627      -0.02339061       0.05244575
O        0.95862056      -2.22245028       7.36236868       35      -0.06851031      -0.01638293      -0.01644405
O       -0.72298706       2.05583224       3.51927424       36      -0.00739079       0.07005311      -0.01644405
O       -0.95862056      -0.83078863       5.59958037       37       0.06851031       0.00604950      -0.02241006
O       -0.46373485       5.43974169       1.77725175       38      -0.01713325      -0.05271200       0.04647974
O        4.13040446       5.28040100       5.62034618       39       0.04398627       0.03372405       0.04647974
40
Lattice="9.413620391348347 7.378164745830418e-10 1.865174681370262e-14 -3.1378734644784037 8.875246418738564 -1.2779417524200196e-09 -3.1378734634349894 -4.437623208631467 7.68618886432641" Properties=species:S:1:pos:R:3:spacegroup_kinds:I:1:forces:R:3 spacegroup="P 1" unit_cell=conventional occupancy="_JSON {\"0\": {\"In\": 1}, \"1\": {\"In\": 1}, \"2\": {\"In\": 1}, \"3\": {\"In\": 1}, \"4\": {\"In\": 1}, \"5\": {\"In\": 1}, \"6\": {\"In\": 1}, \"7\": {\"In\": 1}, \"8\": {\"In\": 1}, \"9\": {\"In\": 1}, \"10\": {\"In\": 1}, \"11\": {\"In\": 1}, \"12\": {\"In\": 1}, \"13\": {\"In\": 1}, \"14\": {\"In\": 1}, \"15\": {\"In\": 1}, \"16\": {\"O\": 1}, \"17\": {\"O\": 1}, \"18\": {\"O\": 1}, \"19\": {\"O\": 1}, \"20\": {\"O\": 1}, \"21\": {\"O\": 1}, \"22\": {\"O\": 1}, \"23\": {\"O\": 1}, \"24\": {\"O\": 1}, \"25\": {\"O\": 1}, \"26\": {\"O\": 1}, \"27\": {\"O\": 1}, \"28\": {\"O\": 1}, \"29\": {\"O\": 1}, \"30\": {\"O\": 1}, \"31\": {\"O\": 1}, \"32\": {\"O\": 1}, \"33\": {\"O\": 1}, \"34\": {\"O\": 1}, \"35\": {\"O\": 1}, \"36\": {\"O\": 1}, \"37\": {\"O\": 1}, \"38\": {\"O\": 1}, \"39\": {\"O\": 1}}" n_minim_iter=2 energy=-45147.897038175346 stress="0.08165175586705643 -9.901630171463304e-14 -2.995773759973073e-13 -9.901630171463304e-14 0.08165175586600844 -2.1998850444681927e-13 -2.995773759973073e-13 -2.1998850444681927e-13 0.08165175586709261" free_energy=-45147.897038175346 pbc="T T T"
In      -4.45498629       3.15015102       6.07306168        0       0.00185015      -0.00130825       0.00226596
In       7.59285975       1.28747220       1.61312718        1      -0.00185015       0.00130825      -0.00226596
In       1.31711283      -0.93133941       5.45622161        2      -0.00185015       0.00130825      -0.00226596
In      -1.56893673      -2.21881160       3.84309443        3       0.00000000      -0.00000000       0.00000000
In      -1.31711283       4.25955682       3.53467439        4       0.00185015      -0.00130825      -0.00226596
In       4.95863410      -2.97208462       5.76464165        5       0.00185015       0.00261650      -0.00000000
In      -1.31711283       1.46553859       5.76464165        6       0.00185015       0.00261650      -0.00000000
In      -1.82076064       7.40970784       1.92154721        7      -0.00185015      -0.00261650      -0.00000000
In       4.45498629       0.17806639       4.15151446        8      -0.00185015       0.00130825       0.00226596
In      -1.56893673       4.43762321      -0.00000000        9       0.00000000      -0.00000000       0.00000000
In       4.45498629       6.83450121       0.30842003       10      -0.00185015       0.00130825       0.00226596
In      -1.31711283      -2.39687799       7.37776883       11       0.00185015      -0.00130825      -0.00226596
In       4.45498629       2.97208463       1.92154721       12      -0.00185015      -0.00261650      -0.00000000
In       1.82076063       5.36896262       2.22996725       13       0.00185015      -0.00130825       0.00226596
In       4.70681019       0.00000000      -0.00000000       14      -0.00000000      -0.00000000       0.00000000
In       1.56893673       2.21881161       3.84309443       15      -0.00000000      -0.00000000      -0.00000000
O        0.99900169       4.44941461       4.13843365       16       0.03087304      -0.01605953       0.02544564
O       -2.13887178       3.57809298       5.60676038       17       0.03087304       0.03006633       0.00118514
O       -0.46625527       2.39537451      -0.03090000       18       0.02349675       0.03528216      -0.00784893
O       -0.99900169      -0.84773883       2.05900518       19      -0.03087304       0.01400680       0.02663078
O        4.08641567       5.26752192       2.08990517       20       0.01805580      -0.01853838       0.03447971
O        2.18933125       3.04266160       1.76366595       21      -0.01805580      -0.03912949       0.00118514
O        2.18933125       6.66248354       0.32623922       22      -0.01805580       0.02059111       0.03329456
O       -2.41379917       6.29756633       3.81219443       23      -0.02543208      -0.03391367      -0.00784893
O        3.60412873       2.04224870       7.71708885       24      -0.02349675      -0.03528216       0.00784893
O        5.55167263      -1.85994312       3.87399442       25       0.02543208       0.03391367       0.00784893
O        6.74200220       3.38973868       1.75318925       26      -0.02349675       0.01084371      -0.03447971
O        3.86194776       2.37148567       4.16933365       27      -0.02543208       0.01015947       0.03329456
O        0.72407429       4.64381763       7.39084963       28      -0.02543208       0.02375420      -0.02544564
O        2.41379917      -0.20619442       0.29533922       29       0.02543208      -0.02375420       0.02544564
O       -3.60412874       1.04788453       5.93299960       30       0.02349675      -0.01084371       0.03447971
O        5.27674524       0.85953023       2.07942847       31      -0.03087304      -0.03006633      -0.00118514
O        0.94854221       1.39496162       5.92252291       32       0.01805580       0.03912949      -0.00118514
O        3.60412874      -0.99436417       5.90209961       33      -0.02349675       0.02443845       0.02663078
O        2.13887177      -0.01179139       3.54775520       34      -0.03087304       0.01605953      -0.02544564
O        0.94854221      -2.22486033       7.35994964       35       0.01805580      -0.02059111      -0.03329456
O       -0.72407430       2.06613754       3.51685521       36       0.02543208      -0.01015947      -0.03329456
O       -0.94854221      -0.82989871       5.59628369       37      -0.01805580       0.01853838      -0.03447971
O       -0.46625527       5.43198738       1.78408925       38       0.02349675      -0.02443845      -0.02663078
O        4.13687515       5.28536204       5.62718368       39       0.03087304      -0.01400680      -0.02663078
40
Lattice="9.413620391348347 7.37816474583042e-10 1.8651746813702614e-14 -3.1378734644784045 8.875246418738564 -1.27794175242002e-09 -3.1378734634349903 -4.437623208631467 7.686188864326412" Properties=species:S:1:pos:R:3:spacegroup_kinds:I:1:forces:R:3 spacegroup="P 1" unit_cell=conventional occupancy="_JSON {\"0\": {\"In\": 1}, \"1\": {\"In\": 1}, \"2\": {\"In\": 1}, \"3\": {\"In\": 1}, \"4\": {\"In\": 1}, \"5\": {\"In\": 1}, \"6\": {\"In\": 1}, \"7\": {\"In\": 1}, \"8\": {\"In\": 1}, \"9\": {\"In\": 1}, \"10\": {\"In\": 1}, \"11\": {\"In\": 1}, \"12\": {\"In\": 1}, \"13\": {\"In\": 1}, \"14\": {\"In\": 1}, \"15\": {\"In\": 1}, \"16\": {\"O\": 1}, \"17\": {\"O\": 1}, \"18\": {\"O\": 1}, \"19\": {\"O\": 1}, \"20\": {\"O\": 1}, \"21\": {\"O\": 1}, \"22\": {\"O\": 1}, \"23\": {\"O\": 1}, \"24\": {\"O\": 1}, \"25\": {\"O\": 1}, \"26\": {\"O\": 1}, \"27\": {\"O\": 1}, \"28\": {\"O\": 1}, \"29\": {\"O\": 1}, \"30\": {\"O\": 1}, \"31\": {\"O\": 1}, \"32\": {\"O\": 1}, \"33\": {\"O\": 1}, \"34\": {\"O\": 1}, \"35\": {\"O\": 1}, \"36\": {\"O\": 1}, \"37\": {\"O\": 1}, \"38\": {\"O\": 1}, \"39\": {\"O\": 1}}" n_minim_iter=3 energy=-45147.90056789661 stress="0.08173943186331088 1.0358518371415568e-13 9.32335808185785e-14 1.0358518371415568e-13 0.08173943186322137 -5.1055186024086436e-14 9.32335808185785e-14 -5.1055186024086436e-14 0.0817394318627354" free_energy=-45147.90056789661 pbc="T T T"
In      -4.45494556       3.15012222       6.07311157        0       0.00840725      -0.00594482       0.01029673
In       7.59281902       1.28750100       1.61307729        1      -0.00840725       0.00594482      -0.01029673
In       1.31707209      -0.93131061       5.45617172        2      -0.00840725       0.00594482      -0.01029673
In      -1.56893673      -2.21881160       3.84309443        3      -0.00000000       0.00000000       0.00000000
In      -1.31707210       4.25952802       3.53462450        4       0.00840725      -0.00594482      -0.01029673
In       4.95867483      -2.97202702       5.76464165        5       0.00840725       0.01188964       0.00000000
In      -1.31707209       1.46559619       5.76464165        6       0.00840725       0.01188964       0.00000000
In      -1.82080137       7.40965023       1.92154721        7      -0.00840725      -0.01188964       0.00000000
In       4.45494556       0.17809520       4.15156435        8      -0.00840725       0.00594482       0.01029673
In      -1.56893673       4.43762321      -0.00000000        9      -0.00000000      -0.00000000       0.00000000
In       4.45494555       6.83453001       0.30846992       10      -0.00840725       0.00594482       0.01029673
In      -1.31707209      -2.39690680       7.37771894       11       0.00840725      -0.00594482      -0.01029673
In       4.45494556       2.97202702       1.92154721       12      -0.00840725      -0.01188964      -0.00000000
In       1.82080137       5.36893382       2.23001714       13       0.00840725      -0.00594482       0.01029673
In       4.70681019       0.00000000      -0.00000000       14      -0.00000000      -0.00000000      -0.00000000
In       1.56893673       2.21881161       3.84309443       15      -0.00000000       0.00000000      -0.00000000
O        1.00361327       4.44676143       4.14272206       16       0.01958693       0.01644810      -0.01105745
O       -2.13426019       3.58313344       5.60691390       17       0.01958693      -0.01780008      -0.00871575
O       -0.46246733       2.40099737      -0.03175524       18       0.00525432      -0.00766540      -0.02626954
O       -1.00361328      -0.84535155       2.06344710       19      -0.01958693      -0.00135198      -0.01977320
O        4.08963066       5.26464087       2.09520233       20      -0.02331106      -0.01381475       0.00649634
O        2.18611626       3.03663360       1.76381947       21       0.02331106      -0.01253337      -0.00871575
O        2.18611626       6.66563049       0.33138286       22       0.02331106      -0.00128138       0.01521209
O       -2.41783781       6.29212074       3.81133920       23       0.00897845      -0.00239868      -0.02626954
O        3.60034079       2.03662584       7.71794409       24      -0.00525432       0.00766540       0.02626954
O        5.55571127      -1.85449753       3.87484966       25      -0.00897845       0.00239868       0.02626954
O        6.73821426       3.39180945       1.74789210       26      -0.00525432      -0.02658279      -0.00649634
O        3.85790912       2.37346781       4.17447729       27       0.00897845      -0.02155075       0.01521209
O        0.72003566       4.64728109       7.38656123       28       0.00897845       0.02394943       0.01105745
O        2.41783780      -0.20965787       0.29962763       29      -0.00897845      -0.02394943      -0.01105745
O       -3.60034080       1.04581376       5.93829676       30       0.00525432       0.02658279       0.00649634
O        5.27213365       0.85448978       2.07927496       31      -0.01958693       0.01780008       0.00871575
O        0.95175720       1.40098962       5.92236939       32      -0.02331106       0.01253337       0.00871575
O        3.60034079      -0.99081208       5.90654153       33      -0.00525432       0.01891739      -0.01977320
O        2.13426019      -0.00913822       3.54346680       34      -0.01958693      -0.01644810       0.01105745
O        0.95175720      -2.22800727       7.35480600       35      -0.02331106       0.00128138      -0.01521209
O       -0.72003566       2.06415541       3.51171157       36      -0.00897845       0.02155075      -0.01521209
O       -0.95175720      -0.82701766       5.59098653       37       0.02331106       0.01381475      -0.00649634
O       -0.46246733       5.42843529       1.77964733       38       0.00525432      -0.01891739       0.01977320
O        4.14148674       5.28297477       5.62274176       39       0.01958693       0.00135198       0.01977320
40
Lattice="9.413620391348353 7.378164745830424e-10 1.8651746813702624e-14 -3.137873464478407 8.875246418738568 -1.2779417524200205e-09 -3.137873463434993 -4.437623208631469 7.686188864326415" Properties=species:S:1:pos:R:3:spacegroup_kinds:I:1:forces:R:3 spacegroup="P 1" unit_cell=conventional occupancy="_JSON {\"0\": {\"In\": 1}, \"1\": {\"In\": 1}, \"2\": {\"In\": 1}, \"3\": {\"In\": 1}, \"4\": {\"In\": 1}, \"5\": {\"In\": 1}, \"6\": {\"In\": 1}, \"7\": {\"In\": 1}, \"8\": {\"In\": 1}, \"9\": {\"In\": 1}, \"10\": {\"In\": 1}, \"11\": {\"In\": 1}, \"12\": {\"In\": 1}, \"13\": {\"In\": 1}, \"14\": {\"In\": 1}, \"15\": {\"In\": 1}, \"16\": {\"O\": 1}, \"17\": {\"O\": 1}, \"18\": {\"O\": 1}, \"19\": {\"O\": 1}, \"20\": {\"O\": 1}, \"21\": {\"O\": 1}, \"22\": {\"O\": 1}, \"23\": {\"O\": 1}, \"24\": {\"O\": 1}, \"25\": {\"O\": 1}, \"26\": {\"O\": 1}, \"27\": {\"O\": 1}, \"28\": {\"O\": 1}, \"29\": {\"O\": 1}, \"30\": {\"O\": 1}, \"31\": {\"O\": 1}, \"32\": {\"O\": 1}, \"33\": {\"O\": 1}, \"34\": {\"O\": 1}, \"35\": {\"O\": 1}, \"36\": {\"O\": 1}, \"37\": {\"O\": 1}, \"38\": {\"O\": 1}, \"39\": {\"O\": 1}}" n_minim_iter=4 energy=-45147.9022885894 stress="0.08103298750660873 -1.7786361814662635e-13 -2.903081315138843e-13 -1.7786361814662635e-13 0.08103298750820995 4.771669684138373e-14 -2.903081315138843e-13 4.771669684138373e-14 0.08103298750800449" free_energy=-45147.9022885894 pbc="T T T"
In      -4.45306046       3.14878925       6.07542033        0      -0.00204185       0.00144380      -0.00250074
In       7.59093392       1.28883396       1.61076853        1       0.00204185      -0.00144380       0.00250074
In       1.31518700      -0.92997764       5.45386296        2       0.00204185      -0.00144380       0.00250074
In      -1.56893673      -2.21881160       3.84309443        3      -0.00000000       0.00000000      -0.00000000
In      -1.31518700       4.25819505       3.53231574        4      -0.00204185       0.00144380       0.00250074
In       4.96055993      -2.96936109       5.76464165        5      -0.00204185      -0.00288761      -0.00000000
In      -1.31518700       1.46826212       5.76464165        6      -0.00204185      -0.00288761      -0.00000000
In      -1.82268647       7.40698430       1.92154721        7       0.00204185       0.00288761      -0.00000000
In       4.45306046       0.17942816       4.15387312        8       0.00204185      -0.00144380      -0.00250074
In      -1.56893673       4.43762321      -0.00000000        9       0.00000000      -0.00000000       0.00000000
In       4.45306046       6.83586297       0.31077868       10       0.00204185      -0.00144380      -0.00250074
In      -1.31518700      -2.39823976       7.37541017       11      -0.00204185       0.00144380       0.00250074
In       4.45306046       2.96936109       1.92154721       12       0.00204185       0.00288761      -0.00000000
In       1.82268646       5.36760086       2.23232590       13      -0.00204185       0.00144380      -0.00250074
In       4.70681019       0.00000000      -0.00000000       14       0.00000000      -0.00000000      -0.00000000
In       1.56893673       2.21881161       3.84309443       15       0.00000000       0.00000000       0.00000000
O        1.00734074       4.44688483       4.14218145       16       0.01106701       0.01554466      -0.00218670
O       -2.13053273       3.58260355       5.60707734       17       0.01106701      -0.00966607      -0.01236872
O       -0.46160808       2.40249562      -0.03510463       18       0.00923139      -0.00836809      -0.01461688
O       -1.00734074      -0.84575804       2.06306992       19      -0.01106701       0.00587859      -0.01455542
O        4.08788859       5.26311359       2.09817455       20      -0.01280226      -0.01431765       0.00006146
O        2.18785833       3.03329594       1.76398291       21       0.01280226      -0.00721206      -0.01236872
O        2.18785833       6.66744086       0.33419164       22       0.01280226      -0.00710560       0.01243018
O       -2.41896395       6.29081121       3.80798981       23       0.01096664      -0.00591408      -0.01461688
O        3.59948154       2.03512759       7.72129348       24      -0.00923139       0.00836809       0.01461688
O        5.55683741      -1.85318800       3.87819905       25      -0.01096664       0.00591408       0.01461688
O        6.73735500       3.38965792       1.74491988       26      -0.00923139      -0.01684264      -0.00006146
O        3.85678298       2.37122191       4.17728607       27       0.01096664      -0.00970155       0.01243018
O        0.71890951       4.65083651       7.38710184       28       0.01096664       0.01561563       0.00218670
O        2.41896395      -0.21321329       0.29908702       29      -0.01096664      -0.01561563      -0.00218670
O       -3.59948154       1.04796529       5.94126898       30       0.00923139       0.01684264       0.00006146
O        5.26840619       0.85501966       2.07911152       31      -0.01106701       0.00966607       0.01236872
O        0.95001513       1.40432728       5.92220595       32      -0.01280226       0.00721205       0.01236872
O        3.59948154      -0.98716230       5.90616436       33      -0.00923139       0.00847455      -0.01455542
O        2.13053272      -0.00926162       3.54400741       34      -0.01106701      -0.01554466       0.00218670
O        0.95001513      -2.22981764       7.35199722       35      -0.01280226       0.00710560      -0.01243018
O       -0.71890952       2.06640130       3.50890279       36      -0.01096664       0.00970155      -0.01243018
O       -0.95001513      -0.82549037       5.58801431       37       0.01280226       0.01431765      -0.00006146
O       -0.46160808       5.42478551       1.78002450       38       0.00923139      -0.00847455       0.01455542
O        4.14521420       5.28338125       5.62311893       39       0.01106701      -0.00587859       0.01455542
40
Lattice="9.41362039134836 7.378164745830428e-10 1.8651746813702643e-14 -3.137873464478409 8.875246418738573 -1.2779417524200213e-09 -3.1378734634349947 -4.4376232086314715 7.686188864326421" Properties=species:S:1:pos:R:3:spacegroup_kinds:I:1:forces:R:3 spacegroup="P 1" unit_cell=conventional occupancy="_JSON {\"0\": {\"In\": 1}, \"1\": {\"In\": 1}, \"2\": {\"In\": 1}, \"3\": {\"In\": 1}, \"4\": {\"In\": 1}, \"5\": {\"In\": 1}, \"6\": {\"In\": 1}, \"7\": {\"In\": 1}, \"8\": {\"In\": 1}, \"9\": {\"In\": 1}, \"10\": {\"In\": 1}, \"11\": {\"In\": 1}, \"12\": {\"In\": 1}, \"13\": {\"In\": 1}, \"14\": {\"In\": 1}, \"15\": {\"In\": 1}, \"16\": {\"O\": 1}, \"17\": {\"O\": 1}, \"18\": {\"O\": 1}, \"19\": {\"O\": 1}, \"20\": {\"O\": 1}, \"21\": {\"O\": 1}, \"22\": {\"O\": 1}, \"23\": {\"O\": 1}, \"24\": {\"O\": 1}, \"25\": {\"O\": 1}, \"26\": {\"O\": 1}, \"27\": {\"O\": 1}, \"28\": {\"O\": 1}, \"29\": {\"O\": 1}, \"30\": {\"O\": 1}, \"31\": {\"O\": 1}, \"32\": {\"O\": 1}, \"33\": {\"O\": 1}, \"34\": {\"O\": 1}, \"35\": {\"O\": 1}, \"36\": {\"O\": 1}, \"37\": {\"O\": 1}, \"38\": {\"O\": 1}, \"39\": {\"O\": 1}}" n_minim_iter=5 energy=-45147.90268011949 stress="0.08059589395920476 -1.4747165781900332e-13 -6.492855550077266e-13 -1.4747165781900332e-13 0.08059589396057772 3.0804909322966716e-13 -6.492855550077266e-13 3.0804909322966716e-13 0.08059589395987342" free_energy=-45147.90268011949 pbc="T T T"
In      -4.45204330       3.14807001       6.07666609        0      -0.00784285       0.00554573      -0.00960549
In       7.58991676       1.28955320       1.60952277        1       0.00784285      -0.00554573       0.00960549
In       1.31416984      -0.92925840       5.45261720        2       0.00784285      -0.00554573       0.00960549
In      -1.56893673      -2.21881160       3.84309443        3      -0.00000000      -0.00000000       0.00000000
In      -1.31416984       4.25747581       3.53106998        4      -0.00784285       0.00554573       0.00960549
In       4.96157709      -2.96792261       5.76464165        5      -0.00784285      -0.01109147      -0.00000000
In      -1.31416984       1.46970060       5.76464165        6      -0.00784285      -0.01109147       0.00000000
In      -1.82370363       7.40554582       1.92154721        7       0.00784285       0.01109147       0.00000000
In       4.45204330       0.18014740       4.15511888        8       0.00784285      -0.00554573      -0.00960549
In      -1.56893673       4.43762321      -0.00000000        9       0.00000000       0.00000000      -0.00000000
In       4.45204330       6.83658221       0.31202444       10       0.00784285      -0.00554573      -0.00960549
In      -1.31416984      -2.39895900       7.37416441       11      -0.00784285       0.00554573       0.00960549
In       4.45204330       2.96792261       1.92154721       12       0.00784285       0.01109147      -0.00000000
In       1.82370362       5.36688162       2.23357166       13      -0.00784285       0.00554573      -0.00960549
In       4.70681019       0.00000000      -0.00000000       14       0.00000000      -0.00000000       0.00000000
In       1.56893673       2.21881161       3.84309443       15       0.00000000       0.00000000       0.00000000
O        1.00973675       4.44714334       4.14195726       16       0.00573728       0.01317128       0.00228685
O       -2.12813672       3.58228015       5.60696556       17       0.00573728      -0.00460517      -0.01255009
O       -0.46087060       2.40334497      -0.03724768       18       0.00998863      -0.00761133      -0.00734327
O       -1.00973675      -0.84582293       2.06273395       19      -0.00573728       0.00856611      -0.01026324
O        4.08678501       5.26194119       2.09998163       20      -0.00625422      -0.01280574      -0.00291997
O        2.18896191       3.03114476       1.76387113       21       0.00625422      -0.00387410      -0.01255009
O        2.18896191       6.66841964       0.33611050       22       0.00625422      -0.00893164       0.00963011
O       -2.41951890       6.28983279       3.80584675       23       0.01050557      -0.00688026      -0.00734327
O        3.59874406       2.03427825       7.72343654       24      -0.00998863       0.00761133       0.00734327
O        5.55739236      -1.85220958       3.88034210       25      -0.01050557       0.00688026       0.00734327
O        6.73661752       3.38822666       1.74311280       26      -0.00998863      -0.01016512       0.00291997
O        3.85622803       2.36985519       4.17920493       27       0.01050557      -0.00291933       0.00963011
O        0.71835457       4.65318166       7.38732603       28       0.01050557       0.00979959      -0.00228685
O        2.41951889      -0.21555844       0.29886283       29      -0.01050557      -0.00979959       0.00228685
O       -3.59874406       1.04939656       5.94307606       30       0.00998863       0.01016512      -0.00291997
O        5.26601018       0.85534307       2.07922330       31      -0.00573728       0.00460517       0.01255009
O        0.94891155       1.40647845       5.92231773       32      -0.00625422       0.00387410       0.01255009
O        3.59874406      -0.98488169       5.90582839       33      -0.00998863       0.00255379      -0.01026324
O        2.12813671      -0.00952013       3.54423160       34      -0.00573728      -0.01317128      -0.00228685
O        0.94891155      -2.23079643       7.35007836       35      -0.00625422       0.00893164      -0.00963011
O       -0.71835457       2.06776803       3.50698393       36      -0.01050557       0.00291933      -0.00963011
O       -0.94891155      -0.82431798       5.58620723       37       0.00625422       0.01280574       0.00291997
O       -0.46087060       5.42250490       1.78036047       38       0.00998863      -0.00255379       0.01026324
O        4.14761021       5.28344615       5.62345490       39       0.00573728      -0.00856611       0.01026324
40