40
Lattice="8.194289308949525 6.422440357312106e-10 1.1102230246251502e-14 -2.731429770255361 7.72565004960279 -1.1124154930541871e-09 -2.7314297693470997 -3.862825024159139 6.690609204446117" Properties=species:S:1:pos:R:3:spacegroup_kinds:I:1:forces:R:3 spacegroup="P 1" unit_cell=conventional occupancy="_JSON {\"0\": {\"In\": 1}, \"1\": {\"In\": 1}, \"2\": {\"In\": 1}, \"3\": {\"In\": 1}, \"4\": {\"In\": 1}, \"5\": {\"In\": 1}, \"6\": {\"In\": 1}, \"7\": {\"In\": 1}, \"8\": {\"In\": 1}, \"9\": {\"In\": 1}, \"10\": {\"In\": 1}, \"11\": {\"In\": 1}, \"12\": {\"In\": 1}, \"13\": {\"In\": 1}, \"14\": {\"In\": 1}, \"15\": {\"In\": 1}, \"16\": {\"O\": 1}, \"17\": {\"O\": 1}, \"18\": {\"O\": 1}, \"19\": {\"O\": 1}, \"20\": {\"O\": 1}, \"21\": {\"O\": 1}, \"22\": {\"O\": 1}, \"23\": {\"O\": 1}, \"24\": {\"O\": 1}, \"25\": {\"O\": 1}, \"26\": {\"O\": 1}, \"27\": {\"O\": 1}, \"28\": {\"O\": 1}, \"29\": {\"O\": 1}, \"30\": {\"O\": 1}, \"31\": {\"O\": 1}, \"32\": {\"O\": 1}, \"33\": {\"O\": 1}, \"34\": {\"O\": 1}, \"35\": {\"O\": 1}, \"36\": {\"O\": 1}, \"37\": {\"O\": 1}, \"38\": {\"O\": 1}, \"39\": {\"O\": 1}}" n_minim_iter=13 energy=-45145.38233511687 stress="-0.0947918062184925 1.2667941527643063e-13 2.2559074676023316e-13 1.2667941527643063e-13 -0.09479180621842916 5.491201019806375e-13 2.2559074676023316e-13 5.491201019806375e-13 -0.0947918062178288" free_energy=-45145.38233511687 pbc="T T T"
In      -3.73651800       2.64211722       5.45963255        0       0.00300574      -0.00212538       0.00368127
In       6.46794777       1.22070781       1.23097665        1      -0.00300574       0.00212538      -0.00368127
In       1.00508823      -0.71070470       4.57628125        2      -0.00300574       0.00212538      -0.00368127
In      -1.36571489      -1.93141251       3.34530460        3       0.00000000      -0.00000000      -0.00000000
In      -1.00508823       3.60782347       2.90362895        4       0.00300574      -0.00212538      -0.00368127
In       4.45777131      -2.38711566       5.01795690        5       0.00300574       0.00425076       0.00000000
In      -1.00508823       1.47570937       5.01795690        6       0.00300574       0.00425076      -0.00000000
In      -1.72634154       6.24994069       1.67265230        7      -0.00300574      -0.00425076      -0.00000000
In       3.73651800       0.25500156       3.78698025        8      -0.00300574       0.00212538       0.00368127
In      -1.36571489       3.86282503      -0.00000000        9       0.00000000       0.00000000       0.00000000
In       3.73651800       6.04923909       0.44167564       10      -0.00300574       0.00212538       0.00368127
In      -1.00508823      -2.18641406       6.24893356       11       0.00300574      -0.00212538      -0.00368127
In       3.73651800       2.38711566       1.67265230       12      -0.00300574      -0.00425076       0.00000000
In       1.72634154       4.57352973       2.11432794       13       0.00300574      -0.00212538       0.00368127
In       4.09714465       0.00000000      -0.00000000       14       0.00000000       0.00000000       0.00000000
In       1.36571488       1.93141251       3.34530460       15      -0.00000000       0.00000000      -0.00000000
O        0.70891192       3.79498840       4.05836533       16      -0.00106073      -0.00036844       0.00190210
O       -2.02251785       3.54856579       4.72017477       17      -0.00106073       0.00183149      -0.00063197
O       -0.12393946       2.20606813       0.35483972       18       0.00102579       0.00035609       0.00192349
O       -0.70891192      -0.38209586       2.08793090       19       0.00106073       0.00146304       0.00127013
O        4.01979252       4.44978769       1.73309118       20       0.00208032      -0.00035251      -0.00065336
O        1.44306701       2.65540537       1.37487017       21      -0.00208032       0.00038957      -0.00063197
O        1.44306701       5.65720735       0.35822101       22      -0.00208032      -0.00074208      -0.00002139
O       -2.12121414       5.17573274       3.70014432       23       0.00000620      -0.00108582       0.00192349
O        2.85536923       1.65675689       6.33576948       24      -0.00102579      -0.00035609      -0.00192349
O        4.85264390      -1.31290771       2.99046488       25      -0.00000620       0.00108582      -0.00192349
O        5.58679899       3.34174679       1.61221341       26      -0.00102579       0.00184384       0.00065336
O        3.34164540       2.54796513       3.70352561       27       0.00000620       0.00220870      -0.00002139
O        0.61021563       3.86477722       5.97754847       28       0.00000620      -0.00112288      -0.00190210
O        2.12121413      -0.00195219       0.71306073       29      -0.00000620       0.00112288       0.00190210
O       -2.85536923       0.52107824       5.07839579       30       0.00102579      -0.00184384      -0.00065336
O        4.75394762       0.31425924       1.97043443       31       0.00106073      -0.00183149       0.00063197
O        1.28836275       1.20741966       5.31573903       32       0.00208032      -0.00038957       0.00063197
O        2.85536923      -1.13567865       5.43323550       33      -0.00102579      -0.00148774       0.00127013
O        2.02251785       0.06783662       2.63224387       34       0.00106073       0.00036844      -0.00190210
O        1.28836275      -1.79438233       6.33238819       35       0.00208032       0.00074208       0.00002139
O       -0.61021564       1.31485990       2.98708359       36      -0.00000620      -0.00220870       0.00002139
O       -1.28836276      -0.58696266       4.95751802       37      -0.00208032       0.00035251       0.00065336
O       -0.12393946       4.99850368       1.25737369       38       0.00102579       0.00148774      -0.00127013
O        3.44034169       4.24492089       4.60267830       39      -0.00106073      -0.00146304      -0.00127013
