40
Lattice="9.27815378116289 7.271978574863175e-10 1.6875389974302408e-14 -3.092717927739905 8.747527273826782 -1.259547577348031e-09 -3.092717926711506 -4.373763636186194 7.575580840270919" Properties=species:S:1:pos:R:3:spacegroup_kinds:I:1:forces:R:3 spacegroup="P 1" unit_cell=conventional occupancy="_JSON {\"0\": {\"In\": 1}, \"1\": {\"In\": 1}, \"2\": {\"In\": 1}, \"3\": {\"In\": 1}, \"4\": {\"In\": 1}, \"5\": {\"In\": 1}, \"6\": {\"In\": 1}, \"7\": {\"In\": 1}, \"8\": {\"In\": 1}, \"9\": {\"In\": 1}, \"10\": {\"In\": 1}, \"11\": {\"In\": 1}, \"12\": {\"In\": 1}, \"13\": {\"In\": 1}, \"14\": {\"In\": 1}, \"15\": {\"In\": 1}, \"16\": {\"O\": 1}, \"17\": {\"O\": 1}, \"18\": {\"O\": 1}, \"19\": {\"O\": 1}, \"20\": {\"O\": 1}, \"21\": {\"O\": 1}, \"22\": {\"O\": 1}, \"23\": {\"O\": 1}, \"24\": {\"O\": 1}, \"25\": {\"O\": 1}, \"26\": {\"O\": 1}, \"27\": {\"O\": 1}, \"28\": {\"O\": 1}, \"29\": {\"O\": 1}, \"30\": {\"O\": 1}, \"31\": {\"O\": 1}, \"32\": {\"O\": 1}, \"33\": {\"O\": 1}, \"34\": {\"O\": 1}, \"35\": {\"O\": 1}, \"36\": {\"O\": 1}, \"37\": {\"O\": 1}, \"38\": {\"O\": 1}, \"39\": {\"O\": 1}}" n_minim_iter=6 energy=-45149.82974626582 stress="0.05900291173881312 1.1729262499244473e-13 5.62402071458433e-13 1.1729262499244473e-13 0.05900291173880095 -4.3863291508872406e-13 5.62402071458433e-13 -4.3863291508872406e-13 0.059002911739349295" free_energy=-45149.82974626582 pbc="T T T"
In      -4.40508071       3.11486244       5.96827126        0       0.00102200      -0.00072266       0.00125169
In       7.49779863       1.25890120       1.60730958        1      -0.00102200       0.00072266      -0.00125169
In       1.31236278      -0.92798062       5.39510000        2      -0.00102200       0.00072266      -0.00125169
In      -1.54635896      -2.18688182       3.78779042        3      -0.00000000      -0.00000000      -0.00000000
In      -1.31236278       4.20830335       3.50120479        4       0.00102200      -0.00072266      -0.00125169
In       4.87307308      -2.94940214       5.68168563        5       0.00102200       0.00144533       0.00000000
In      -1.31236278       1.42436149       5.68168563        6       0.00102200       0.00144533       0.00000000
In      -1.78035515       7.32316579       1.89389521        7      -0.00102200      -0.00144533       0.00000000
In       4.40508070       0.16546029       4.07437605        8      -0.00102200       0.00072266       0.00125169
In      -1.54635897       4.37376364      -0.00000000        9      -0.00000000       0.00000000      -0.00000000
In       4.40508070       6.72610575       0.28658563       10      -0.00102200       0.00072266       0.00125169
In      -1.31236278      -2.35234211       7.28899521       11       0.00102200      -0.00072266      -0.00125169
In       4.40508070       2.94940215       1.89389521       12      -0.00102200      -0.00144533       0.00000000
In       1.78035515       5.30174426       2.18048084       13       0.00102200      -0.00072266       0.00125169
In       4.63907689       0.00000000      -0.00000000       14       0.00000000       0.00000000       0.00000000
In       1.54635896       2.18688182       3.78779042       15      -0.00000000      -0.00000000       0.00000000
O        0.96653070       4.38132909       4.09175332       16       0.00041592      -0.00512156       0.00047254
O       -2.12618723       3.53977960       5.52315231       17       0.00041592       0.00297001       0.00419913
O       -0.45697802       2.35947045      -0.00807312       18      -0.00188986       0.00460044       0.00137514
O       -0.96653070      -0.82641859       2.03932479       19      -0.00041592      -0.00215155       0.00467167
O        4.04606528       5.19552122       2.04739790       20       0.00266151       0.00294549       0.00329653
O        2.13937057       3.01154383       1.73536189       21      -0.00266151      -0.00138213       0.00419913
O        2.13937057       6.55774103       0.31203601       22      -0.00266151       0.00432762      -0.00090260
O       -2.37685608       6.20499832       3.77971730       23      -0.00496729       0.00024830       0.00137514
O        3.54969595       2.01429319       7.58365395       24       0.00188986      -0.00460044      -0.00137514
O        5.46957401      -1.83123468       3.79586353       25       0.00496729      -0.00024830      -0.00137514
O        6.64241387       3.35962552       1.74039251       26       0.00188986       0.00349113      -0.00329653
O        3.80857977       2.35771387       4.09982643       27      -0.00496729       0.00106676      -0.00090260
O        0.71586185       4.55857873       7.27161794       28      -0.00496729      -0.00131506      -0.00047254
O        2.37685608      -0.18481509       0.30396290       29       0.00496729       0.00131506       0.00047254
O       -3.54969595       1.01413812       5.83518832       30      -0.00188986      -0.00349113       0.00329653
O        5.21890515       0.83398404       2.05242853       31      -0.00041592      -0.00297001      -0.00419913
O        0.95334736       1.36221981       5.84021895       32       0.00266151       0.00138213      -0.00419913
O        3.54969595      -1.00015507       5.82711521       33       0.00188986       0.00110931       0.00467167
O        2.12618723      -0.00756544       3.48382752       34      -0.00041592       0.00512156      -0.00047254
O        0.95334736      -2.18397738       7.26354482       35       0.00266151      -0.00432762       0.00090260
O       -0.71586185       2.01604977       3.47575440       36       0.00496729      -0.00106676       0.00090260
O       -0.95334736      -0.82175758       5.52818293       37      -0.00266151      -0.00294549      -0.00329653
O       -0.45697802       5.37391871       1.74846563       38      -0.00188986      -0.00110931      -0.00467167
O        4.05924862       5.20018223       5.53625605       39       0.00041592       0.00215155      -0.00467167
