40
Lattice="9.609793674689254 7.53192619384884e-10 1.776356839400226e-14 -3.2032645589398694 9.06020036398408 -1.3045751146023456e-09 -3.203264557874711 -4.530100181238847 7.8463636794569425" Properties=species:S:1:pos:R:3:spacegroup_kinds:I:1:forces:R:3 spacegroup="P 1" unit_cell=conventional occupancy="_JSON {\"0\": {\"In\": 1}, \"1\": {\"In\": 1}, \"2\": {\"In\": 1}, \"3\": {\"In\": 1}, \"4\": {\"In\": 1}, \"5\": {\"In\": 1}, \"6\": {\"In\": 1}, \"7\": {\"In\": 1}, \"8\": {\"In\": 1}, \"9\": {\"In\": 1}, \"10\": {\"In\": 1}, \"11\": {\"In\": 1}, \"12\": {\"In\": 1}, \"13\": {\"In\": 1}, \"14\": {\"In\": 1}, \"15\": {\"In\": 1}, \"16\": {\"O\": 1}, \"17\": {\"O\": 1}, \"18\": {\"O\": 1}, \"19\": {\"O\": 1}, \"20\": {\"O\": 1}, \"21\": {\"O\": 1}, \"22\": {\"O\": 1}, \"23\": {\"O\": 1}, \"24\": {\"O\": 1}, \"25\": {\"O\": 1}, \"26\": {\"O\": 1}, \"27\": {\"O\": 1}, \"28\": {\"O\": 1}, \"29\": {\"O\": 1}, \"30\": {\"O\": 1}, \"31\": {\"O\": 1}, \"32\": {\"O\": 1}, \"33\": {\"O\": 1}, \"34\": {\"O\": 1}, \"35\": {\"O\": 1}, \"36\": {\"O\": 1}, \"37\": {\"O\": 1}, \"38\": {\"O\": 1}, \"39\": {\"O\": 1}}" n_minim_iter=10 energy=-45144.454245638524 stress="0.06389530751186026 -4.0431193945771626e-13 2.0013559963172326e-15 -4.0431193945771626e-13 0.06389530751183017 2.1253681557845268e-14 2.0013559963172326e-15 2.1253681557845268e-14 0.06389530751140625" free_energy=-45144.454245638524 pbc="T T T"
In      -4.56184313       3.22571021       6.18245155        0       0.00019007      -0.00013440       0.00023279
In       7.76510768       1.30438998       1.66391213        1      -0.00019007       0.00013440      -0.00023279
In       1.35857856      -0.96066011       5.58709397        2      -0.00019007       0.00013440      -0.00023279
In      -1.60163228      -2.26505009       3.92318184        3       0.00000000      -0.00000000       0.00000000
In      -1.35857857       4.35823525       3.62550305        4       0.00019007      -0.00013440      -0.00023279
In       5.04795055      -3.05384527       5.88477276        5       0.00019007       0.00026880      -0.00000000
In      -1.35857857       1.47625491       5.88477276        6       0.00019007       0.00026880       0.00000000
In      -1.84468600       7.58394546       1.96159092        7      -0.00019007      -0.00026880       0.00000000
In       4.56184312       0.17186493       4.22086063        8      -0.00019007       0.00013440       0.00023279
In      -1.60163228       4.53010018      -0.00000000        9      -0.00000000      -0.00000000      -0.00000000
In       4.56184312       6.96701520       0.29767879       10      -0.00019007       0.00013440       0.00023279
In      -1.35857857      -2.43691502       7.54868489       11       0.00019007      -0.00013440      -0.00023279
In       4.56184312       3.05384528       1.96159092       12      -0.00019007      -0.00026880       0.00000000
In       1.84468599       5.49076030       2.25926971       13       0.00019007      -0.00013440       0.00023279
In       4.80489684       0.00000000      -0.00000000       14       0.00000000      -0.00000000       0.00000000
In       1.60163228       2.26505009       3.92318184       15       0.00000000      -0.00000000      -0.00000000
O        1.29402244       4.58366073       4.23003515       16      -0.00060176       0.00010641       0.00085781
O       -1.90924212       3.63653763       5.68496131       17      -0.00060176       0.00068967      -0.00052106
O       -0.36062068       2.54149691      -0.26473620       18       0.00054997      -0.00012473       0.00088952
O       -1.29402244      -0.84000201       2.06863278       19       0.00060176       0.00079609       0.00033675
O        4.06497459       5.21725668       2.33336898       20       0.00085082      -0.00028252      -0.00055278
O        2.34155452       2.85292162       1.76177947       21      -0.00085082       0.00033746      -0.00052106
O        2.34155452       6.89443525       0.57158951       22      -0.00085082      -0.00061998      -0.00003172
O       -2.51635315       6.28798108       3.65844564       23       0.00030092      -0.00047694       0.00088952
O        3.56388523       1.98860328       8.11109987       24      -0.00054997       0.00012473      -0.00088952
O        5.71961771      -1.75788089       4.18791804       25      -0.00030092       0.00047694      -0.00088952
O        6.76714979       3.30653027       1.58981285       26      -0.00054997       0.00070799       0.00055278
O        3.89017596       2.28936642       4.49477135       27       0.00030092       0.00100882      -0.00003172
O        0.68691140       5.01295306       7.53951036       28       0.00030092      -0.00053188      -0.00085781
O        2.51635315      -0.48285287       0.30685331       29      -0.00030092       0.00053188       0.00085781
O       -3.56388524       1.22356991       6.25655082       30       0.00054997      -0.00070799      -0.00055278
O        5.11250668       0.89356256       2.16140236       31       0.00060176      -0.00068967       0.00052106
O        0.86171004       1.67717857       6.08458420       32       0.00085082      -0.00033746       0.00052106
O        3.56388523      -0.76503336       5.99181462       33      -0.00054997      -0.00083271       0.00033675
O        1.90924212      -0.05356054       3.61632853       34       0.00060176      -0.00010641      -0.00085781
O        0.86171004      -2.36433506       7.27477417       35       0.00085082       0.00061998       0.00003172
O       -0.68691141       2.24073377       3.35159233       36      -0.00030092      -0.00100882       0.00003172
O       -0.86171004      -0.68715649       5.51299469       37      -0.00085082       0.00028252       0.00055278
O       -0.36062068       5.29513355       1.85454905       38       0.00054997       0.00083271      -0.00033675
O        4.49728699       5.37010220       5.77773089       39      -0.00060176      -0.00079609      -0.00033675
