40
Lattice="9.545296471789467 7.481344432846981e-10 2.353672812205332e-14 -3.1817654913018374 8.999391817935098 -1.2958203399193735e-09 -3.18176549024383 -4.49969590821941 7.793701933805483" Properties=species:S:1:pos:R:3:spacegroup_kinds:I:1:forces:R:3 spacegroup="P 1" unit_cell=conventional occupancy="_JSON {\"0\": {\"In\": 1}, \"1\": {\"In\": 1}, \"2\": {\"In\": 1}, \"3\": {\"In\": 1}, \"4\": {\"In\": 1}, \"5\": {\"In\": 1}, \"6\": {\"In\": 1}, \"7\": {\"In\": 1}, \"8\": {\"In\": 1}, \"9\": {\"In\": 1}, \"10\": {\"In\": 1}, \"11\": {\"In\": 1}, \"12\": {\"In\": 1}, \"13\": {\"In\": 1}, \"14\": {\"In\": 1}, \"15\": {\"In\": 1}, \"16\": {\"O\": 1}, \"17\": {\"O\": 1}, \"18\": {\"O\": 1}, \"19\": {\"O\": 1}, \"20\": {\"O\": 1}, \"21\": {\"O\": 1}, \"22\": {\"O\": 1}, \"23\": {\"O\": 1}, \"24\": {\"O\": 1}, \"25\": {\"O\": 1}, \"26\": {\"O\": 1}, \"27\": {\"O\": 1}, \"28\": {\"O\": 1}, \"29\": {\"O\": 1}, \"30\": {\"O\": 1}, \"31\": {\"O\": 1}, \"32\": {\"O\": 1}, \"33\": {\"O\": 1}, \"34\": {\"O\": 1}, \"35\": {\"O\": 1}, \"36\": {\"O\": 1}, \"37\": {\"O\": 1}, \"38\": {\"O\": 1}, \"39\": {\"O\": 1}}" n_minim_iter=1 energy=-45145.524141833834 stress="0.09658035511681787 -2.4906117281005884e-13 -4.3448077244474985e-13 -2.4906117281005884e-13 0.09658035511568863 -4.2162558001991786e-14 -4.3448077244474985e-13 -4.2162558001991786e-14 0.09658035511525385" free_energy=-45145.524141833834 pbc="T T T"
In      -4.50652257       3.18659267       6.17121249        0       0.05296101      -0.03744909       0.06486372
In       7.68828806       1.31310324       1.62248944        1      -0.05296101       0.03744909      -0.06486372
In       1.32475708      -0.93674471       5.51934040        2      -0.05296101       0.03744909      -0.06486372
In      -1.59088275      -2.24984795       3.89685096        3       0.00000000      -0.00000000       0.00000000
In      -1.32475708       4.31151665       3.57091492        4       0.05296101      -0.03744909      -0.06486372
In       5.03877390      -2.99841340       5.84527645        5       0.05296101       0.07489817      -0.00000000
In      -1.32475708       1.50128251       5.84527645        6       0.05296101       0.07489817      -0.00000000
In      -1.85700841       7.49810932       1.94842548        7      -0.05296101      -0.07489817       0.00000000
In       4.50652257       0.18817927       4.22278701        8      -0.05296101       0.03744909       0.06486372
In      -1.59088275       4.49969591      -0.00000000        9      -0.00000000       0.00000000       0.00000000
In       4.50652257       6.93772313       0.32593604       10      -0.05296101       0.03744909       0.06486372
In      -1.32475708      -2.43802722       7.46776589       11       0.05296101      -0.03744909      -0.06486372
In       4.50652257       2.99841341       1.94842548       12      -0.05296101      -0.07489817       0.00000000
In       1.85700841       5.43644063       2.27436153       13       0.05296101      -0.03744909       0.06486372
In       4.77264823       0.00000000      -0.00000000       14       0.00000000      -0.00000000       0.00000000
In       1.59088274       2.24984796       3.89685096       15      -0.00000000      -0.00000000       0.00000000
O        1.06349072       4.51427411       4.19746607       16       0.07517783       0.00933946      -0.05707242
O       -2.11827477       3.62782316       5.68234380       17       0.07517783      -0.05409590       0.02044800
O       -0.45376815       2.45083924      -0.07276219       18      -0.01713750       0.01118090      -0.09261472
O       -1.06349072      -0.85729456       2.08610795       19      -0.07517783      -0.04475644      -0.03662442
O        4.12643606       5.31498120       2.15887013       20      -0.07606138      -0.00871470       0.05599031
O        2.23709492       3.03770217       1.78549284       21       0.07606138      -0.05284638       0.02044800
O        2.23709492       6.77697494       0.37337729       22       0.07606138       0.04413168       0.03554230
O       -2.46192945       6.36041417       3.82408878       23      -0.01625395       0.01243042      -0.09261472
O        3.63553364       2.04885667       7.86646412       24       0.01713750      -0.01118090       0.09261472
O        5.64369494      -1.86071825       3.96961315       25       0.01625395      -0.01243042       0.09261472
O        6.81729913       3.41225368       1.73798083       26       0.01713750      -0.07461625      -0.05599031
O        3.90160153       2.38139890       4.27022826       27      -0.01625395      -0.08642191       0.03554230
O        0.71983604       4.75727466       7.49308682       28      -0.01625395       0.07399149       0.05707242
O        2.46192944      -0.25757875       0.30061511       29       0.01625395      -0.07399149      -0.05707242
O       -3.63553364       1.08744224       6.05572110       30      -0.01713750       0.07461625       0.05599031
O        5.30004026       0.87187276       2.11135812       31      -0.07517783       0.05409590      -0.02044800
O        0.94467057       1.46199374       6.00820909       32      -0.07606138       0.05284638      -0.02044800
O        3.63553364      -0.96141443       5.98295891       33       0.01713750       0.08579715      -0.03662442
O        2.11827477      -0.01457819       3.59623585       34      -0.07517783      -0.00933946       0.05707242
O        0.94467057      -2.27727902       7.42032463       35      -0.07606138      -0.04413168      -0.03554230
O       -0.71983605       2.11829701       3.52347367       36       0.01625395       0.08642191      -0.03554230
O       -0.94467057      -0.81528529       5.63483179       37       0.07606138       0.00871470      -0.05599031
O       -0.45376815       5.46111034       1.81074301       38      -0.01713750      -0.08579715       0.03662442
O        4.24525621       5.35699047       5.70759398       39       0.07517783       0.04475644       0.03662442
40
Lattice="9.545296471789458 7.481344432846976e-10 2.3536728122053287e-14 -3.1817654913018343 8.99939181793509 -1.2958203399193725e-09 -3.181765490243827 -4.4996959082194055 7.793701933805476" Properties=species:S:1:pos:R:3:spacegroup_kinds:I:1:forces:R:3 spacegroup="P 1" unit_cell=conventional occupancy="_JSON {\"0\": {\"In\": 1}, \"1\": {\"In\": 1}, \"2\": {\"In\": 1}, \"3\": {\"In\": 1}, \"4\": {\"In\": 1}, \"5\": {\"In\": 1}, \"6\": {\"In\": 1}, \"7\": {\"In\": 1}, \"8\": {\"In\": 1}, \"9\": {\"In\": 1}, \"10\": {\"In\": 1}, \"11\": {\"In\": 1}, \"12\": {\"In\": 1}, \"13\": {\"In\": 1}, \"14\": {\"In\": 1}, \"15\": {\"In\": 1}, \"16\": {\"O\": 1}, \"17\": {\"O\": 1}, \"18\": {\"O\": 1}, \"19\": {\"O\": 1}, \"20\": {\"O\": 1}, \"21\": {\"O\": 1}, \"22\": {\"O\": 1}, \"23\": {\"O\": 1}, \"24\": {\"O\": 1}, \"25\": {\"O\": 1}, \"26\": {\"O\": 1}, \"27\": {\"O\": 1}, \"28\": {\"O\": 1}, \"29\": {\"O\": 1}, \"30\": {\"O\": 1}, \"31\": {\"O\": 1}, \"32\": {\"O\": 1}, \"33\": {\"O\": 1}, \"34\": {\"O\": 1}, \"35\": {\"O\": 1}, \"36\": {\"O\": 1}, \"37\": {\"O\": 1}, \"38\": {\"O\": 1}, \"39\": {\"O\": 1}}" n_minim_iter=2 energy=-45145.55070281442 stress="0.0928828309366398 1.9764333623394965e-13 -2.0219493196958533e-13 1.9764333623394965e-13 0.09288283093602806 1.5804947902808357e-13 -2.0219493196958533e-13 1.5804947902808357e-13 0.09288283093640518" free_energy=-45145.55070281442 pbc="T T T"
In      -4.49746467       3.18018777       6.18230611        0      -0.01062583       0.00751360      -0.01301393
In       7.67923016       1.31950814       1.61139582        1       0.01062583      -0.00751360       0.01301393
In       1.31569918      -0.93033981       5.50824679        2       0.01062583      -0.00751360       0.01301393
In      -1.59088275      -2.24984795       3.89685096        3      -0.00000000      -0.00000000      -0.00000000
In      -1.31569918       4.30511175       3.55982130        4      -0.01062583       0.00751360       0.01301393
In       5.04783180      -2.98560360       5.84527645        5      -0.01062583      -0.01502719       0.00000000
In      -1.31569918       1.51409231       5.84527645        6      -0.01062583      -0.01502719      -0.00000000
In      -1.86606631       7.48529951       1.94842548        7       0.01062583       0.01502719      -0.00000000
In       4.49746467       0.19458417       4.23388062        8       0.01062583      -0.00751360      -0.01301393
In      -1.59088275       4.49969591      -0.00000000        9      -0.00000000       0.00000000       0.00000000
In       4.49746467       6.94412803       0.33702966       10       0.01062583      -0.00751360      -0.01301393
In      -1.31569918      -2.44443212       7.45667227       11      -0.01062583       0.00751360       0.01301393
In       4.49746467       2.98560360       1.94842548       12       0.01062583       0.01502719      -0.00000000
In       1.86606631       5.43003572       2.28545514       13      -0.01062583       0.00751360      -0.01301393
In       4.77264823       0.00000000      -0.00000000       14      -0.00000000       0.00000000      -0.00000000
In       1.59088274       2.24984796       3.89685096       15       0.00000000       0.00000000       0.00000000
O        1.07634835       4.51587143       4.18770500       16       0.03982671      -0.01846997       0.04828524
O       -2.10541714       3.61857116       5.68584102       17       0.03982671       0.05105123      -0.00814716
O       -0.45669917       2.45275151      -0.08860205       18       0.04399348       0.04810488      -0.00304393
O       -1.07634836      -0.86494923       2.07984409       19      -0.03982671       0.03258126       0.04013808
O        4.11342731       5.31349073       2.16844613       20       0.03485599      -0.03433867       0.04318201
O        2.25010366       3.02866388       1.78899005       21      -0.03485599      -0.05456605      -0.00814716
O        2.25010366       6.78452276       0.37945608       22      -0.03485599       0.02022738       0.05132917
O       -2.46470936       6.36254014       3.80824892       23      -0.03068922      -0.05751240      -0.00304393
O        3.63846466       2.04694441       7.88230397       24      -0.04399348      -0.04810488       0.00304393
O        5.64647484      -1.86284422       3.98545301       25       0.03068922       0.05751240       0.00304393
O        6.82023015       3.39949209       1.72840483       26      -0.04399348       0.02141632      -0.04318201
O        3.89882163       2.36661820       4.27630705       27      -0.03068922       0.02612008       0.05132917
O        0.71705614       4.76992940       7.50284789       28      -0.03068922       0.03139232      -0.04828524
O        2.46470935      -0.27023348       0.29085404       29       0.03068922      -0.03139232       0.04828524
O       -3.63846466       1.10020382       6.06529710       30       0.04399348      -0.02141632       0.04318201
O        5.28718262       0.88112475       2.10786091       31      -0.03982671      -0.05105123       0.00814716
O        0.93166182       1.47103203       6.00471188       32       0.03485599       0.05456605       0.00814716
O        3.63846466      -0.94674058       5.97669506       33      -0.04399348       0.02668856       0.04013808
O        2.10541713      -0.01617552       3.60599693       34      -0.03982671       0.01846997      -0.04828524
O        0.93166182      -2.28482685       7.41424585       35       0.03485599      -0.02022738      -0.05132917
O       -0.71705614       2.13307771       3.51739488       36       0.03068922      -0.02612008      -0.05132917
O       -0.93166183      -0.81379482       5.62525580       37      -0.03485599       0.03433867      -0.04318201
O       -0.45669917       5.44643649       1.81700687       38       0.04399348      -0.02668856      -0.04013808
O        4.25811385       5.36464514       5.71385784       39       0.03982671      -0.03258126      -0.04013808
40
Lattice="9.545296471789461 7.48134443284698e-10 2.353672812205329e-14 -3.181765491301836 8.999391817935093 -1.295820339919373e-09 -3.1817654902438286 -4.499695908219407 7.79370193380548" Properties=species:S:1:pos:R:3:spacegroup_kinds:I:1:forces:R:3 spacegroup="P 1" unit_cell=conventional occupancy="_JSON {\"0\": {\"In\": 1}, \"1\": {\"In\": 1}, \"2\": {\"In\": 1}, \"3\": {\"In\": 1}, \"4\": {\"In\": 1}, \"5\": {\"In\": 1}, \"6\": {\"In\": 1}, \"7\": {\"In\": 1}, \"8\": {\"In\": 1}, \"9\": {\"In\": 1}, \"10\": {\"In\": 1}, \"11\": {\"In\": 1}, \"12\": {\"In\": 1}, \"13\": {\"In\": 1}, \"14\": {\"In\": 1}, \"15\": {\"In\": 1}, \"16\": {\"O\": 1}, \"17\": {\"O\": 1}, \"18\": {\"O\": 1}, \"19\": {\"O\": 1}, \"20\": {\"O\": 1}, \"21\": {\"O\": 1}, \"22\": {\"O\": 1}, \"23\": {\"O\": 1}, \"24\": {\"O\": 1}, \"25\": {\"O\": 1}, \"26\": {\"O\": 1}, \"27\": {\"O\": 1}, \"28\": {\"O\": 1}, \"29\": {\"O\": 1}, \"30\": {\"O\": 1}, \"31\": {\"O\": 1}, \"32\": {\"O\": 1}, \"33\": {\"O\": 1}, \"34\": {\"O\": 1}, \"35\": {\"O\": 1}, \"36\": {\"O\": 1}, \"37\": {\"O\": 1}, \"38\": {\"O\": 1}, \"39\": {\"O\": 1}}" n_minim_iter=3 energy=-45145.55492206054 stress="0.09355804842402922 7.693687918444887e-14 1.6483877830507437e-14 7.693687918444887e-14 0.09355804842359085 -8.418632227159593e-13 1.6483877830507437e-14 -8.418632227159593e-13 0.09355804842543297" free_energy=-45145.55492206054 pbc="T T T"
In      -4.49937222       3.18153661       6.17996985        0       0.00477844      -0.00337887       0.00585237
In       7.68113771       1.31815930       1.61373208        1      -0.00477844       0.00337887      -0.00585237
In       1.31760673      -0.93168865       5.51058305        2      -0.00477844       0.00337887      -0.00585237
In      -1.59088275      -2.24984795       3.89685096        3       0.00000000       0.00000000      -0.00000000
In      -1.31760673       4.30646059       3.56215756        4       0.00477844      -0.00337887      -0.00585237
In       5.04592425      -2.98830128       5.84527645        5       0.00477844       0.00675773      -0.00000000
In      -1.31760673       1.51139463       5.84527645        6       0.00477844       0.00675773       0.00000000
In      -1.86415876       7.48799719       1.94842548        7      -0.00477844      -0.00675773       0.00000000
In       4.49937222       0.19323533       4.23154436        8      -0.00477844       0.00337887       0.00585237
In      -1.59088275       4.49969591      -0.00000000        9      -0.00000000      -0.00000000      -0.00000000
In       4.49937222       6.94277919       0.33469340       10      -0.00477844       0.00337887       0.00585237
In      -1.31760673      -2.44308328       7.45900853       11       0.00477844      -0.00337887      -0.00585237
In       4.49937222       2.98830128       1.94842548       12      -0.00477844      -0.00675773      -0.00000000
In       1.86415876       5.43138456       2.28311888       13       0.00477844      -0.00337887       0.00585237
In       4.77264823       0.00000000      -0.00000000       14       0.00000000      -0.00000000       0.00000000
In       1.59088274       2.24984796       3.89685096       15       0.00000000       0.00000000       0.00000000
O        1.07734442       4.51441559       4.19224521       16       0.04131935       0.00628152       0.00397681
O       -2.10442107       3.62323102       5.68483170       17       0.04131935       0.00030326      -0.00742836
O       -0.45334637       2.45574490      -0.08672496       18       0.01998131       0.01539154      -0.03356202
O       -1.07734442      -0.86174521       2.08337499       19      -0.04131935       0.00658478      -0.00345155
O        4.11748865       5.31137045       2.17009994       20      -0.01348720      -0.02596182       0.03011047
O        2.24604233       3.02617150       1.78798074       21       0.01348720      -0.03905735      -0.00742836
O        2.24604233       6.78489486       0.38211920       22       0.01348720       0.01309552       0.03753884
O       -2.46641395       6.35838129       3.81012601       23      -0.00785084      -0.02396907      -0.03356202
O        3.63511186       2.04395101       7.88042689       24      -0.01998131      -0.01539154       0.03356202
O        5.64817944      -1.85868538       3.98357592       25       0.00785084       0.02396907       0.03356202
O        6.81687735       3.40261439       1.72675102       26      -0.01998131      -0.02136979      -0.03011047
O        3.89711703       2.37032323       4.27897017       27      -0.00785084      -0.01708103       0.03753884
O        0.71535154       4.77038321       7.49830768       28      -0.00785084       0.04105010      -0.00397681
O        2.46641395      -0.27068730       0.29539425       29       0.00785084      -0.04105010       0.00397681
O       -3.63511186       1.09708152       6.06695091       30       0.01998131       0.02136979       0.03011047
O        5.28618656       0.87646490       2.10887022       31      -0.04131935      -0.00030326       0.00742836
O        0.93572316       1.47352442       6.00572119       32      -0.01348720       0.03905735       0.00742836
O        3.63511186      -0.94686949       5.98022596       33      -0.01998131       0.03676133      -0.00345155
O        2.10442107      -0.01471968       3.60145671       34      -0.04131935      -0.00628152      -0.00397681
O        0.93572316      -2.28519895       7.41158273       35      -0.01348720      -0.01309552      -0.03753884
O       -0.71535154       2.12937268       3.51473176       36       0.00785084       0.01708103      -0.03753884
O       -0.93572316      -0.81167453       5.62360198       37       0.01348720       0.02596182      -0.03011047
O       -0.45334637       5.44656540       1.81347597       38       0.01998131      -0.03676133       0.00345155
O        4.25910991       5.36144112       5.71032694       39       0.04131935      -0.00658478       0.00345155
40
Lattice="9.545296471789461 7.48134443284698e-10 2.3536728122053278e-14 -3.181765491301836 8.999391817935093 -1.295820339919373e-09 -3.1817654902438286 -4.499695908219407 7.79370193380548" Properties=species:S:1:pos:R:3:spacegroup_kinds:I:1:forces:R:3 spacegroup="P 1" unit_cell=conventional occupancy="_JSON {\"0\": {\"In\": 1}, \"1\": {\"In\": 1}, \"2\": {\"In\": 1}, \"3\": {\"In\": 1}, \"4\": {\"In\": 1}, \"5\": {\"In\": 1}, \"6\": {\"In\": 1}, \"7\": {\"In\": 1}, \"8\": {\"In\": 1}, \"9\": {\"In\": 1}, \"10\": {\"In\": 1}, \"11\": {\"In\": 1}, \"12\": {\"In\": 1}, \"13\": {\"In\": 1}, \"14\": {\"In\": 1}, \"15\": {\"In\": 1}, \"16\": {\"O\": 1}, \"17\": {\"O\": 1}, \"18\": {\"O\": 1}, \"19\": {\"O\": 1}, \"20\": {\"O\": 1}, \"21\": {\"O\": 1}, \"22\": {\"O\": 1}, \"23\": {\"O\": 1}, \"24\": {\"O\": 1}, \"25\": {\"O\": 1}, \"26\": {\"O\": 1}, \"27\": {\"O\": 1}, \"28\": {\"O\": 1}, \"29\": {\"O\": 1}, \"30\": {\"O\": 1}, \"31\": {\"O\": 1}, \"32\": {\"O\": 1}, \"33\": {\"O\": 1}, \"34\": {\"O\": 1}, \"35\": {\"O\": 1}, \"36\": {\"O\": 1}, \"37\": {\"O\": 1}, \"38\": {\"O\": 1}, \"39\": {\"O\": 1}}" n_minim_iter=4 energy=-45145.56199887173 stress="0.09183809549780499 3.043275987091719e-13 1.0778932701211508e-13 3.043275987091719e-13 0.09183809549796244 -2.2060570074204008e-13 1.0778932701211508e-13 -2.2060570074204008e-13 0.09183809549789387" free_energy=-45145.56199887173 pbc="T T T"
In      -4.49664354       3.17960714       6.18331179        0      -0.01337582       0.00945813      -0.01638197
In       7.67840902       1.32008878       1.61039014        1       0.01337582      -0.00945813       0.01638197
In       1.31487804      -0.92975918       5.50724111        2       0.01337582      -0.00945813       0.01638197
In      -1.59088275      -2.24984795       3.89685096        3      -0.00000000      -0.00000000      -0.00000000
In      -1.31487805       4.30453112       3.55881562        4      -0.01337582       0.00945813       0.01638197
In       5.04865294      -2.98444234       5.84527645        5      -0.01337582      -0.01891627       0.00000000
In      -1.31487805       1.51525357       5.84527645        6      -0.01337582      -0.01891627       0.00000000
In      -1.86688745       7.48413825       1.94842548        7       0.01337582       0.01891627      -0.00000000
In       4.49664353       0.19516480       4.23488631        8       0.01337582      -0.00945813      -0.01638197
In      -1.59088275       4.49969591      -0.00000000        9       0.00000000      -0.00000000      -0.00000000
In       4.49664353       6.94470866       0.33803534       10       0.01337582      -0.00945813      -0.01638197
In      -1.31487805      -2.44501275       7.45566659       11      -0.01337582       0.00945813       0.01638197
In       4.49664353       2.98444234       1.94842548       12       0.01337582       0.01891627      -0.00000000
In       1.86688744       5.42945509       2.28646082       13      -0.01337582       0.00945813      -0.01638197
In       4.77264823       0.00000000      -0.00000000       14      -0.00000000      -0.00000000      -0.00000000
In       1.59088274       2.24984796       3.89685096       15      -0.00000000      -0.00000000       0.00000000
O        1.09124311       4.51258048       4.19539862       16       0.01201720       0.04031390      -0.01255195
O       -2.09052238       3.62687950       5.68484426       17       0.01201720      -0.03102725      -0.02863689
O       -0.44700381       2.46473638      -0.09596674       18       0.01276127      -0.03155339      -0.02772560
O       -1.09124311      -0.85993184       2.08654095       19      -0.01201720       0.00928665      -0.04118883
O        4.11629558       5.30422133       2.18250768       20      -0.03325851      -0.02529403      -0.01346324
O        2.24723540       3.01185152       1.78799329       21       0.03325851      -0.00098751      -0.02863689
O        2.24723540       6.79206572       0.39451439       22       0.03325851      -0.02430652       0.01517365
O       -2.47277702       6.34940431       3.80088423       23       0.03400258      -0.00151364      -0.02772560
O        3.62876930       2.03495953       7.88966867       24      -0.01276127       0.03155339       0.02772560
O        5.65454250      -1.84970839       3.99281770       25      -0.03400258       0.00151364       0.02772560
O        6.81053479       3.39910652       1.71434328       26      -0.01276127      -0.03978777       0.01346324
O        3.89075396       2.36680810       4.29136535       27       0.03400258      -0.02325425       0.01517365
O        0.70898847       4.78287532       7.49515428       28       0.03400258       0.02476790       0.01255195
O        2.47277701      -0.28317941       0.29854765       29      -0.03400258      -0.02476790      -0.01255195
O       -3.62876930       1.10058940       6.07935865       30       0.01276127       0.03978777      -0.01346324
O        5.27228787       0.87281641       2.10885767       31      -0.01201720       0.03102725       0.02863689
O        0.93453009       1.48784439       6.00570863       32      -0.03325851       0.00098751       0.02863689
O        3.62876930      -0.93437013       5.98339191       33      -0.01276127       0.00823438      -0.04118883
O        2.09052238      -0.01288456       3.59830331       34      -0.01201720      -0.04031390       0.01255195
O        0.93453009      -2.29236981       7.39918754       35      -0.03325851       0.02430652      -0.01517365
O       -0.70898848       2.13288781       3.50233657       36      -0.03400258       0.02325425      -0.01517365
O       -0.93453009      -0.80452542       5.61119424       37       0.03325851       0.02529403       0.01346324
O       -0.44700381       5.43406604       1.81031001       38       0.01276127      -0.00823438       0.04118883
O        4.27300860       5.35962775       5.70716098       39       0.01201720      -0.00928665       0.04118883
40
Lattice="9.545296471789463 7.481344432846982e-10 2.353672812205329e-14 -3.181765491301837 8.999391817935093 -1.2958203399193735e-09 -3.1817654902438295 -4.499695908219407 7.793701933805481" Properties=species:S:1:pos:R:3:spacegroup_kinds:I:1:forces:R:3 spacegroup="P 1" unit_cell=conventional occupancy="_JSON {\"0\": {\"In\": 1}, \"1\": {\"In\": 1}, \"2\": {\"In\": 1}, \"3\": {\"In\": 1}, \"4\": {\"In\": 1}, \"5\": {\"In\": 1}, \"6\": {\"In\": 1}, \"7\": {\"In\": 1}, \"8\": {\"In\": 1}, \"9\": {\"In\": 1}, \"10\": {\"In\": 1}, \"11\": {\"In\": 1}, \"12\": {\"In\": 1}, \"13\": {\"In\": 1}, \"14\": {\"In\": 1}, \"15\": {\"In\": 1}, \"16\": {\"O\": 1}, \"17\": {\"O\": 1}, \"18\": {\"O\": 1}, \"19\": {\"O\": 1}, \"20\": {\"O\": 1}, \"21\": {\"O\": 1}, \"22\": {\"O\": 1}, \"23\": {\"O\": 1}, \"24\": {\"O\": 1}, \"25\": {\"O\": 1}, \"26\": {\"O\": 1}, \"27\": {\"O\": 1}, \"28\": {\"O\": 1}, \"29\": {\"O\": 1}, \"30\": {\"O\": 1}, \"31\": {\"O\": 1}, \"32\": {\"O\": 1}, \"33\": {\"O\": 1}, \"34\": {\"O\": 1}, \"35\": {\"O\": 1}, \"36\": {\"O\": 1}, \"37\": {\"O\": 1}, \"38\": {\"O\": 1}, \"39\": {\"O\": 1}}" n_minim_iter=5 energy=-45145.56330911534 stress="0.0911172990252637 -1.480489695042609e-13 2.5585465411962432e-14 -1.480489695042609e-13 0.09111729902538458 3.1021265651908923e-13 2.5585465411962432e-14 3.1021265651908923e-13 0.09111729902497417" free_energy=-45145.56330911534 pbc="T T T"
In      -4.49577175       3.17899069       6.18437950        0      -0.02436985       0.01723209      -0.02984685
In       7.67753724       1.32070522       1.60932243        1       0.02436985      -0.01723209       0.02984685
In       1.31400626      -0.92914273       5.50617339        2       0.02436985      -0.01723209       0.02984685
In      -1.59088275      -2.24984795       3.89685096        3       0.00000000      -0.00000000      -0.00000000
In      -1.31400626       4.30391467       3.55774791        4      -0.02436985       0.01723209       0.02984685
In       5.04952472      -2.98320945       5.84527645        5      -0.02436985      -0.03446418      -0.00000000
In      -1.31400626       1.51648646       5.84527645        6      -0.02436985      -0.03446418      -0.00000000
In      -1.86775923       7.48290536       1.94842548        7       0.02436985       0.03446418       0.00000000
In       4.49577175       0.19578124       4.23595402        8       0.02436985      -0.01723209      -0.02984685
In      -1.59088275       4.49969591      -0.00000000        9      -0.00000000       0.00000000      -0.00000000
In       4.49577175       6.94532511       0.33910305       10       0.02436985      -0.01723209      -0.02984685
In      -1.31400626      -2.44562919       7.45459888       11      -0.02436985       0.01723209       0.02984685
In       4.49577175       2.98320945       1.94842548       12       0.02436985       0.03446418       0.00000000
In       1.86775923       5.42883865       2.28752854       13      -0.02436985       0.01723209      -0.02984685
In       4.77264823       0.00000000      -0.00000000       14      -0.00000000       0.00000000       0.00000000
In       1.59088274       2.24984796       3.89685096       15       0.00000000       0.00000000      -0.00000000
O        1.09357915       4.51440201       4.19336019       16       0.00741180       0.01977656       0.01095346
O       -2.08818634       3.62420340       5.68428598       17       0.00741180      -0.00040231      -0.02260374
O       -0.44703083       2.46373121      -0.09941916       18       0.02073682      -0.00982452      -0.00628398
O       -1.09357916      -0.86078641       2.08394424       19      -0.00741180       0.01937425      -0.01165028
O        4.11299385       5.30308264       2.18336339       20      -0.00284990      -0.02300231      -0.00536630
O        2.25053713       3.01054111       1.78743501       21       0.00284990      -0.00685381      -0.02260374
O        2.25053713       6.79223744       0.39592837       22       0.00284990      -0.01614851       0.01723744
O       -2.47183834       6.34976483       3.79743181       23       0.01617492      -0.01627602      -0.00628398
O        3.62879631       2.03596470       7.89312108       24      -0.02073682       0.00982452       0.00628398
O        5.65360382      -1.85006892       3.99627012       25      -0.01617492       0.01627602       0.00628398
O        6.81056180       3.39561405       1.71348757       26      -0.02073682      -0.01035435       0.00536630
O        3.89169264       2.36363796       4.29277934       27       0.01617492       0.00269592       0.01723744
O        0.70992715       4.78568494       7.49719271       28       0.01617492       0.01358010      -0.01095346
O        2.47183833      -0.28598903       0.29650922       29      -0.01617492      -0.01358010       0.01095346
O       -3.62879632       1.10408186       6.08021436       30       0.02073682       0.01035435      -0.00536630
O        5.26995183       0.87549251       2.10941595       31      -0.00741180       0.00040231       0.02260374
O        0.93122836       1.48915480       6.00626691       32      -0.00284990       0.00685381       0.02260374
O        3.62879631      -0.93188284       5.98079520       33      -0.02073682       0.00052983      -0.01165028
O        2.08818634      -0.01470610       3.60034174       34      -0.00741180      -0.01977657      -0.01095346
O        0.93122836      -2.29254153       7.39777356       35      -0.00284990       0.01614851      -0.01723744
O       -0.70992716       2.13605795       3.50092259       36      -0.01617492      -0.00269592      -0.01723744
O       -0.93122836      -0.80338673       5.61033854       37       0.00284990       0.02300231       0.00536630
O       -0.44703083       5.43157875       1.81290672       38       0.02073682      -0.00052983       0.01165028
O        4.27534464       5.36048232       5.70975769       39       0.00741180      -0.01937425       0.01165028
40