40
Lattice="9.06721315423316 7.106653043820188e-10 4.884981308350689e-15 -3.022404385414408 8.548650543525953 -1.23090737602638e-09 -3.022404384409381 -4.274325271052314 7.403348539589728" Properties=species:S:1:pos:R:3:spacegroup_kinds:I:1:forces:R:3 spacegroup="P 1" unit_cell=conventional occupancy="_JSON {\"0\": {\"In\": 1}, \"1\": {\"In\": 1}, \"2\": {\"In\": 1}, \"3\": {\"In\": 1}, \"4\": {\"In\": 1}, \"5\": {\"In\": 1}, \"6\": {\"In\": 1}, \"7\": {\"In\": 1}, \"8\": {\"In\": 1}, \"9\": {\"In\": 1}, \"10\": {\"In\": 1}, \"11\": {\"In\": 1}, \"12\": {\"In\": 1}, \"13\": {\"In\": 1}, \"14\": {\"In\": 1}, \"15\": {\"In\": 1}, \"16\": {\"O\": 1}, \"17\": {\"O\": 1}, \"18\": {\"O\": 1}, \"19\": {\"O\": 1}, \"20\": {\"O\": 1}, \"21\": {\"O\": 1}, \"22\": {\"O\": 1}, \"23\": {\"O\": 1}, \"24\": {\"O\": 1}, \"25\": {\"O\": 1}, \"26\": {\"O\": 1}, \"27\": {\"O\": 1}, \"28\": {\"O\": 1}, \"29\": {\"O\": 1}, \"30\": {\"O\": 1}, \"31\": {\"O\": 1}, \"32\": {\"O\": 1}, \"33\": {\"O\": 1}, \"34\": {\"O\": 1}, \"35\": {\"O\": 1}, \"36\": {\"O\": 1}, \"37\": {\"O\": 1}, \"38\": {\"O\": 1}, \"39\": {\"O\": 1}}" n_minim_iter=1 energy=-45151.55404437708 stress="0.02700435481989086 -7.802312837503348e-13 -1.6521972847929535e-13 -7.802312837503348e-13 0.027004354821317543 2.1319473480866138e-13 -1.6521972847929535e-13 2.1319473480866138e-13 0.027004354820126586" free_energy=-45151.55404437708 pbc="T T T"
In      -4.32757300       3.06005622       5.80484997        0       0.03717781      -0.02628868       0.04553333
In       7.34997738       1.21426906       1.59849857        1      -0.03717781       0.02628868      -0.04553333
In       1.30516861      -0.92289358       5.30017284        2      -0.03717781       0.02628868      -0.04553333
In      -1.51120219      -2.13716263       3.70167427        3      -0.00000000       0.00000000      -0.00000000
In      -1.30516862       4.12863753       3.44933570        4       0.03717781      -0.02628868      -0.04553333
In       4.73964015      -2.91436847       5.55251140        5       0.03717781       0.05257736      -0.00000000
In      -1.30516862       1.35995680       5.55251140        6       0.03717781       0.05257736       0.00000000
In      -1.71723577       7.18869375       1.85083713        7      -0.03717781      -0.05257736       0.00000000
In       4.32757300       0.14568774       3.95401283        8      -0.03717781       0.02628868       0.04553333
In      -1.51120219       4.27432527      -0.00000000        9       0.00000000       0.00000000      -0.00000000
In       4.32757300       6.55717565       0.25233856       10      -0.03717781       0.02628868       0.04553333
In      -1.30516862      -2.28285037       7.15100997       11       0.03717781      -0.02628868      -0.04553333
In       4.32757300       2.91436848       1.85083713       12      -0.03717781      -0.05257736      -0.00000000
In       1.71723577       5.19721885       2.10317570       13       0.03717781      -0.02628868       0.04553333
In       4.53360658       0.00000000      -0.00000000       14       0.00000000       0.00000000      -0.00000000
In       1.51120219       2.13716264       3.70167427       15       0.00000000      -0.00000000      -0.00000000
O        0.90129555       4.27592434       4.02083966       16       0.02189013      -0.00361968      -0.08205286
O       -2.12110884       3.48134976       5.39154387       17       0.02189013      -0.06925002       0.04416116
O       -0.44568502       2.29664622       0.04016206       18      -0.06140550      -0.01035111      -0.05785474
O       -0.90129555      -0.79137644       2.00903500       19      -0.02189013      -0.07286970      -0.03789169
O        3.98928431       5.08888930       1.96887293       20      -0.07258626       0.03946725       0.01996304
O        2.05552446       2.97651331       1.68986960       21       0.07258626       0.00244513       0.04416116
O        2.05552446       6.38670126       0.27900333       22       0.07258626       0.03702213      -0.02419812
O       -2.31386049       6.06613504       3.74183633       23      -0.01070938       0.06134403      -0.05785474
O        3.46808940       1.97767906       7.36318647       24       0.06140550       0.01035111       0.05785474
O        5.33626487      -1.79180976       3.66151221       25       0.01070938      -0.06134403       0.05785474
O        6.49049379       3.32026711       1.73280133       26       0.06140550      -0.05527923      -0.01996304
O        3.73094828       2.34462044       3.98067760       27      -0.01070938      -0.08077569      -0.02419812
O        0.70854389       4.41222035       7.08418314       28      -0.01070938       0.01943165       0.08205286
O        2.31386049      -0.13789507       0.31916539       29       0.01070938      -0.01943165      -0.08205286
O       -3.46808940       0.95405816       5.67054720       30      -0.06140550       0.05527923       0.01996304
O        5.14351322       0.79297551       2.01180466       31      -0.02189013       0.06925002      -0.04416116
O        0.96687992       1.29781197       5.71347893       32      -0.07258626      -0.00244513      -0.04416116
O        3.46808940      -1.02362089       5.71070927       33       0.06140550       0.04492812      -0.03789170
O        2.12110883      -0.00159907       3.38250887       34      -0.02189013       0.00361968       0.08205286
O        0.96687992      -2.11237599       7.12434521       35      -0.07258626      -0.03702213       0.02419812
O       -0.70854390       1.92970483       3.42267094       36       0.01070938       0.08077569       0.02419812
O       -0.96687992      -0.81456402       5.43447560       37       0.07258626      -0.03946725      -0.01996304
O       -0.44568502       5.29794617       1.69263927       38      -0.06140550      -0.04492812       0.03789170
O        3.92369993       5.06570172       5.39431354       39       0.02189013       0.07286970       0.03789169
40
Lattice="9.067213154233157 7.106653043820189e-10 4.8849813083506864e-15 -3.0224043854144083 8.54865054352595 -1.2309073760263798e-09 -3.0224043844093815 -4.274325271052312 7.403348539589729" Properties=species:S:1:pos:R:3:spacegroup_kinds:I:1:forces:R:3 spacegroup="P 1" unit_cell=conventional occupancy="_JSON {\"0\": {\"In\": 1}, \"1\": {\"In\": 1}, \"2\": {\"In\": 1}, \"3\": {\"In\": 1}, \"4\": {\"In\": 1}, \"5\": {\"In\": 1}, \"6\": {\"In\": 1}, \"7\": {\"In\": 1}, \"8\": {\"In\": 1}, \"9\": {\"In\": 1}, \"10\": {\"In\": 1}, \"11\": {\"In\": 1}, \"12\": {\"In\": 1}, \"13\": {\"In\": 1}, \"14\": {\"In\": 1}, \"15\": {\"In\": 1}, \"16\": {\"O\": 1}, \"17\": {\"O\": 1}, \"18\": {\"O\": 1}, \"19\": {\"O\": 1}, \"20\": {\"O\": 1}, \"21\": {\"O\": 1}, \"22\": {\"O\": 1}, \"23\": {\"O\": 1}, \"24\": {\"O\": 1}, \"25\": {\"O\": 1}, \"26\": {\"O\": 1}, \"27\": {\"O\": 1}, \"28\": {\"O\": 1}, \"29\": {\"O\": 1}, \"30\": {\"O\": 1}, \"31\": {\"O\": 1}, \"32\": {\"O\": 1}, \"33\": {\"O\": 1}, \"34\": {\"O\": 1}, \"35\": {\"O\": 1}, \"36\": {\"O\": 1}, \"37\": {\"O\": 1}, \"38\": {\"O\": 1}, \"39\": {\"O\": 1}}" n_minim_iter=2 energy=-45151.563327349795 stress="0.025880479657435066 2.297237305692863e-13 -1.6874317988436948e-13 2.297237305692863e-13 0.025880479658040283 5.460724774062898e-13 -1.6874317988436948e-13 5.460724774062898e-13 0.025880479658104076" free_energy=-45151.563327349795 pbc="T T T"
In      -4.32491744       3.05817845       5.80810235        0      -0.00166688       0.00117866      -0.00204150
In       7.34732183       1.21614682       1.59524619        1       0.00166688      -0.00117866       0.00204150
In       1.30251306      -0.92101581       5.29692046        2       0.00166688      -0.00117866       0.00204150
In      -1.51120219      -2.13716263       3.70167427        3      -0.00000000      -0.00000000      -0.00000000
In      -1.30251306       4.12675977       3.44608332        4      -0.00166688       0.00117866       0.00204150
In       4.74229571      -2.91061295       5.55251140        5      -0.00166688      -0.00235733      -0.00000000
In      -1.30251306       1.36371232       5.55251140        6      -0.00166688      -0.00235733      -0.00000000
In      -1.71989133       7.18493822       1.85083713        7       0.00166688       0.00235733      -0.00000000
In       4.32491744       0.14756550       3.95726521        8       0.00166688      -0.00117866      -0.00204150
In      -1.51120219       4.27432527      -0.00000000        9       0.00000000       0.00000000      -0.00000000
In       4.32491744       6.55905341       0.25559094       10       0.00166688      -0.00117866      -0.00204150
In      -1.30251306      -2.28472814       7.14775759       11      -0.00166688       0.00117866       0.00204150
In       4.32491744       2.91061295       1.85083713       12       0.00166688       0.00235733       0.00000000
In       1.71989132       5.19534109       2.10642808       13      -0.00166688       0.00117866      -0.00204150
In       4.53360658       0.00000000      -0.00000000       14      -0.00000000      -0.00000000       0.00000000
In       1.51120219       2.13716264       3.70167427       15      -0.00000000      -0.00000000       0.00000000
O        0.90285913       4.27566579       4.01497874       16       0.02727401       0.01533418      -0.01314909
O       -2.11954526       3.47640333       5.39469824       17       0.02727401      -0.01905453      -0.00670525
O       -0.45007113       2.29590685       0.03602958       18       0.00558376      -0.00371721      -0.03327028
O       -0.90285913      -0.79658142       2.00632845       19      -0.02727401      -0.00372035      -0.01985433
O        3.98409957       5.09170839       1.97029886       20      -0.02705613      -0.01548825       0.01341595
O        2.06070919       2.97668796       1.69302397       21       0.02705613      -0.01936268      -0.00670525
O        2.06070919       6.38934570       0.27727489       22       0.02705613       0.00387442       0.02012119
O       -2.31462545       6.07051675       3.73770385       23       0.00536587      -0.00402535      -0.03327028
O        3.47247551       1.97841842       7.36731896       24      -0.00558376       0.00371721       0.03327028
O        5.33702983      -1.79619148       3.66564469       25      -0.00536587       0.00402535       0.03327028
O        6.49487989       3.31631860       1.73137540       26      -0.00558376      -0.03067151      -0.01341595
O        3.73018332       2.33885075       3.97894916       27       0.00536587      -0.02680023       0.02012119
O        0.70777894       4.41360832       7.09004406       28       0.00536587       0.03082558       0.01314909
O        2.31462545      -0.13928304       0.31330447       29      -0.00536587      -0.03082558      -0.01314909
O       -3.47247551       0.95800668       5.67197313       30       0.00558376       0.03067151       0.01341595
O        5.14194964       0.79792194       2.00865029       31      -0.02727401       0.01905453       0.00670525
O        0.96169519       1.29763732       5.71032456       32      -0.02705613       0.01936268       0.00670525
O        3.47247551      -1.02041174       5.70800272       33      -0.00558376       0.02695431      -0.01985433
O        2.11954525      -0.00134052       3.38836979       34      -0.02727401      -0.01533418       0.01314909
O        0.96169519      -2.11502043       7.12607364       35      -0.02705613      -0.00387442      -0.02012119
O       -0.70777894       1.93547453       3.42439937       36      -0.00536587       0.02680023      -0.02012119
O       -0.96169519      -0.81738311       5.43304967       37       0.02705613       0.01548825      -0.01341595
O       -0.45007113       5.29473702       1.69534582       38       0.00558376      -0.02695431       0.01985433
O        3.92526351       5.07090670       5.39702009       39       0.02727401       0.00372035       0.01985433
40
Lattice="9.067213154233157 7.106653043820189e-10 4.8849813083506864e-15 -3.0224043854144083 8.54865054352595 -1.2309073760263798e-09 -3.0224043844093815 -4.274325271052312 7.403348539589729" Properties=species:S:1:pos:R:3:spacegroup_kinds:I:1:forces:R:3 spacegroup="P 1" unit_cell=conventional occupancy="_JSON {\"0\": {\"In\": 1}, \"1\": {\"In\": 1}, \"2\": {\"In\": 1}, \"3\": {\"In\": 1}, \"4\": {\"In\": 1}, \"5\": {\"In\": 1}, \"6\": {\"In\": 1}, \"7\": {\"In\": 1}, \"8\": {\"In\": 1}, \"9\": {\"In\": 1}, \"10\": {\"In\": 1}, \"11\": {\"In\": 1}, \"12\": {\"In\": 1}, \"13\": {\"In\": 1}, \"14\": {\"In\": 1}, \"15\": {\"In\": 1}, \"16\": {\"O\": 1}, \"17\": {\"O\": 1}, \"18\": {\"O\": 1}, \"19\": {\"O\": 1}, \"20\": {\"O\": 1}, \"21\": {\"O\": 1}, \"22\": {\"O\": 1}, \"23\": {\"O\": 1}, \"24\": {\"O\": 1}, \"25\": {\"O\": 1}, \"26\": {\"O\": 1}, \"27\": {\"O\": 1}, \"28\": {\"O\": 1}, \"29\": {\"O\": 1}, \"30\": {\"O\": 1}, \"31\": {\"O\": 1}, \"32\": {\"O\": 1}, \"33\": {\"O\": 1}, \"34\": {\"O\": 1}, \"35\": {\"O\": 1}, \"36\": {\"O\": 1}, \"37\": {\"O\": 1}, \"38\": {\"O\": 1}, \"39\": {\"O\": 1}}" n_minim_iter=3 energy=-45151.56400469022 stress="0.025621641634373443 -2.557537792099779e-13 -2.026708130740687e-13 -2.557537792099779e-13 0.025621641634309227 -6.152599690424057e-13 -2.026708130740687e-13 -6.152599690424057e-13 0.025621641634341673" free_energy=-45151.56400469022 pbc="T T T"
In      -4.32445431       3.05785097       5.80866957        0      -0.00817701       0.00578202      -0.01001475
In       7.34685869       1.21647431       1.59467897        1       0.00817701      -0.00578202       0.01001475
In       1.30204992      -0.92068833       5.29635324        2       0.00817701      -0.00578202       0.01001475
In      -1.51120219      -2.13716263       3.70167427        3       0.00000000       0.00000000       0.00000000
In      -1.30204993       4.12643229       3.44551610        4      -0.00817701       0.00578202       0.01001475
In       4.74275884      -2.90995798       5.55251140        5      -0.00817701      -0.01156403      -0.00000000
In      -1.30204993       1.36436729       5.55251140        6      -0.00817701      -0.01156403       0.00000000
In      -1.72035446       7.18428325       1.85083713        7       0.00817701       0.01156403      -0.00000000
In       4.32445431       0.14789299       3.95783243        8       0.00817701      -0.00578202      -0.01001475
In      -1.51120219       4.27432527      -0.00000000        9      -0.00000000      -0.00000000       0.00000000
In       4.32445431       6.55938090       0.25615816       10       0.00817701      -0.00578202      -0.01001475
In      -1.30204993      -2.28505562       7.14719037       11      -0.00817701       0.00578202       0.01001475
In       4.32445431       2.90995798       1.85083713       12       0.00817701       0.01156403      -0.00000000
In       1.72035446       5.19501361       2.10699530       13      -0.00817701       0.00578202      -0.01001475
In       4.53360658       0.00000000      -0.00000000       14       0.00000000      -0.00000000      -0.00000000
In       1.51120219       2.13716264       3.70167427       15       0.00000000       0.00000000       0.00000000
O        0.90361481       4.27588005       4.01366894       16       0.02666034       0.01567477       0.00104422
O       -2.11878957       3.47516188       5.39516759       17       0.02666034      -0.00693306      -0.01409686
O       -0.45078768       2.29570643       0.03469581       18       0.01712854      -0.00019306      -0.02577088
O       -0.90361482      -0.79760862       2.00548799       19      -0.02666034       0.00874171      -0.01305264
O        3.98267723       5.09196553       1.97079218       20      -0.01542333      -0.02362053       0.01271824
O        2.06213154       2.97638931       1.69349332       21       0.01542333      -0.02282459      -0.01409686
O        2.06213154       6.38990150       0.27729885       22       0.01542333      -0.00079595       0.02681510
O       -2.31467534       6.07125913       3.73637008       23       0.00589154      -0.01608459      -0.02577088
O        3.47319206       1.97861884       7.36865272       24      -0.01712854       0.00019306       0.02577088
O        5.33707972      -1.79693386       3.66697845       25      -0.00589154       0.01608459       0.02577088
O        6.49559645       3.31506331       1.73088208       26      -0.01712854      -0.02241477      -0.01271824
O        3.73013343       2.33732448       3.97897312       27       0.00589154      -0.01427594       0.02681510
O        0.70772904       4.41439221       7.09135387       28       0.00589154       0.03036053      -0.00104422
O        2.31467534      -0.14006693       0.31199467       29      -0.00589154      -0.03036053       0.00104422
O       -3.47319207       0.95926197       5.67246645       30       0.01712854       0.02241477       0.01271824
O        5.14119395       0.79916340       2.00818094       31      -0.02666034       0.00693306       0.01409686
O        0.96027284       1.29793597       5.70985521       32      -0.01542333       0.02282459       0.01409686
O        3.47319206      -1.01935687       5.70716226       33      -0.01712854       0.02222170      -0.01305264
O        2.11878957      -0.00155477       3.38967960       34      -0.02666034      -0.01567477      -0.00104422
O        0.96027284      -2.11557622       7.12604968       35      -0.01542333       0.00079595      -0.02681510
O       -0.70772905       1.93700079       3.42437541       36      -0.00589154       0.01427594      -0.02681510
O       -0.96027284      -0.81764026       5.43255635       37       0.01542333       0.02362053      -0.01271824
O       -0.45078768       5.29368215       1.69618627       38       0.01712854      -0.02222170       0.01305264
O        3.92601920       5.07193390       5.39786054       39       0.02666034      -0.00874171       0.01305264
40
Lattice="9.067213154233157 7.106653043820189e-10 4.8849813083506864e-15 -3.0224043854144083 8.54865054352595 -1.2309073760263798e-09 -3.0224043844093815 -4.274325271052312 7.403348539589729" Properties=species:S:1:pos:R:3:spacegroup_kinds:I:1:forces:R:3 spacegroup="P 1" unit_cell=conventional occupancy="_JSON {\"0\": {\"In\": 1}, \"1\": {\"In\": 1}, \"2\": {\"In\": 1}, \"3\": {\"In\": 1}, \"4\": {\"In\": 1}, \"5\": {\"In\": 1}, \"6\": {\"In\": 1}, \"7\": {\"In\": 1}, \"8\": {\"In\": 1}, \"9\": {\"In\": 1}, \"10\": {\"In\": 1}, \"11\": {\"In\": 1}, \"12\": {\"In\": 1}, \"13\": {\"In\": 1}, \"14\": {\"In\": 1}, \"15\": {\"In\": 1}, \"16\": {\"O\": 1}, \"17\": {\"O\": 1}, \"18\": {\"O\": 1}, \"19\": {\"O\": 1}, \"20\": {\"O\": 1}, \"21\": {\"O\": 1}, \"22\": {\"O\": 1}, \"23\": {\"O\": 1}, \"24\": {\"O\": 1}, \"25\": {\"O\": 1}, \"26\": {\"O\": 1}, \"27\": {\"O\": 1}, \"28\": {\"O\": 1}, \"29\": {\"O\": 1}, \"30\": {\"O\": 1}, \"31\": {\"O\": 1}, \"32\": {\"O\": 1}, \"33\": {\"O\": 1}, \"34\": {\"O\": 1}, \"35\": {\"O\": 1}, \"36\": {\"O\": 1}, \"37\": {\"O\": 1}, \"38\": {\"O\": 1}, \"39\": {\"O\": 1}}" n_minim_iter=4 energy=-45151.56499743546 stress="0.025163874945628696 -1.0269433047011362e-13 -2.4621693462609267e-13 -1.0269433047011362e-13 0.025163874946087485 -4.011979141893259e-14 -2.4621693462609267e-13 -4.011979141893259e-14 0.025163874946955128" free_energy=-45151.56499743546 pbc="T T T"
In      -4.32402085       3.05754447       5.80920045        0      -0.01320726       0.00933894      -0.01617552
In       7.34642523       1.21678081       1.59414809        1       0.01320726      -0.00933894       0.01617552
In       1.30161646      -0.92038183       5.29582236        2       0.01320726      -0.00933894       0.01617552
In      -1.51120219      -2.13716263       3.70167427        3       0.00000000       0.00000000       0.00000000
In      -1.30161647       4.12612578       3.44498522        4      -0.01320726       0.00933894       0.01617552
In       4.74319230      -2.90934497       5.55251140        5      -0.01320726      -0.01867788       0.00000000
In      -1.30161647       1.36498030       5.55251140        6      -0.01320726      -0.01867788      -0.00000000
In      -1.72078792       7.18367025       1.85083713        7       0.01320726       0.01867788       0.00000000
In       4.32402085       0.14819949       3.95836331        8       0.01320726      -0.00933894      -0.01617552
In      -1.51120219       4.27432527      -0.00000000        9       0.00000000      -0.00000000      -0.00000000
In       4.32402085       6.55968740       0.25668904       10       0.01320726      -0.00933894      -0.01617552
In      -1.30161647      -2.28536212       7.14665949       11      -0.01320726       0.00933894       0.01617552
In       4.32402085       2.90934498       1.85083713       12       0.01320726       0.01867788       0.00000000
In       1.72078792       5.19470710       2.10752618       13      -0.01320726       0.00933894      -0.01617552
In       4.53360658       0.00000000      -0.00000000       14      -0.00000000      -0.00000000      -0.00000000
In       1.51120219       2.13716264       3.70167427       15       0.00000000      -0.00000000      -0.00000000
O        0.90633129       4.27704459       4.01134540       16       0.02009620       0.00561026       0.02281988
O       -2.11607309       3.47256737       5.39532083       17       0.02009620       0.01695747      -0.01626857
O       -0.45123038       2.29534579       0.03097987       18       0.02797579       0.01138576      -0.00661808
O       -0.90633130      -0.79903859       2.00331770       19      -0.02009620       0.02256773       0.00655132
O        3.97932560       5.09125010       1.97233782       20       0.00928892      -0.02638867       0.01316939
O        2.06548316       2.97469303       1.69364657       21      -0.00928892      -0.02459936      -0.01626857
O        2.06548316       6.39088235       0.27869125       22      -0.00928892      -0.00178931       0.02943796
O       -2.31448289       6.07179672       3.73265414       23      -0.00140933      -0.03017108      -0.00661808
O        3.47363476       1.97897948       7.37236866       24      -0.02797579      -0.01138576       0.00661808
O        5.33688727      -1.79747145       3.67069439       25       0.00140933       0.03017108       0.00661808
O        6.49603914       3.31166489       1.72933644       26      -0.02797579      -0.00003854      -0.01316939
O        3.73032588       2.33383759       3.98036552       27      -0.00140933       0.00935412       0.02943796
O        0.70792149       4.41734151       7.09367740       28      -0.00140933       0.02081696      -0.02281988
O        2.31448289      -0.14301623       0.30967113       29       0.00140933      -0.02081696       0.02281988
O       -3.47363476       0.96266038       5.67401209       30       0.02797579       0.00003854       0.01316939
O        5.13847747       0.80175791       2.00802770       31      -0.02009620      -0.01695747       0.01626857
O        0.95692122       1.29963225       5.70970197       32       0.00928892       0.02459936       0.01626857
O        3.47363476      -1.01631910       5.70499197       33      -0.02797579       0.01142430       0.00655132
O        2.11607309      -0.00271932       3.39200313       34      -0.02009620      -0.00561026      -0.02281988
O        0.95692122      -2.11655707       7.12465728       35       0.00928892       0.00178931      -0.02943796
O       -0.70792150       1.94048768       3.42298301       36       0.00140933      -0.00935412      -0.02943796
O       -0.95692122      -0.81692483       5.43101071       37      -0.00928892       0.02638867      -0.01316939
O       -0.45123038       5.29064437       1.69835656       38       0.02797579      -0.01142430      -0.00655132
O        3.92873568       5.07336386       5.40003083       39       0.02009620      -0.02256773      -0.00655132
40
Lattice="9.067213154233158 7.106653043820193e-10 4.884981308350698e-15 -3.022404385414411 8.54865054352595 -1.2309073760263808e-09 -3.022404384409384 -4.274325271052312 7.403348539589734" Properties=species:S:1:pos:R:3:spacegroup_kinds:I:1:forces:R:3 spacegroup="P 1" unit_cell=conventional occupancy="_JSON {\"0\": {\"In\": 1}, \"1\": {\"In\": 1}, \"2\": {\"In\": 1}, \"3\": {\"In\": 1}, \"4\": {\"In\": 1}, \"5\": {\"In\": 1}, \"6\": {\"In\": 1}, \"7\": {\"In\": 1}, \"8\": {\"In\": 1}, \"9\": {\"In\": 1}, \"10\": {\"In\": 1}, \"11\": {\"In\": 1}, \"12\": {\"In\": 1}, \"13\": {\"In\": 1}, \"14\": {\"In\": 1}, \"15\": {\"In\": 1}, \"16\": {\"O\": 1}, \"17\": {\"O\": 1}, \"18\": {\"O\": 1}, \"19\": {\"O\": 1}, \"20\": {\"O\": 1}, \"21\": {\"O\": 1}, \"22\": {\"O\": 1}, \"23\": {\"O\": 1}, \"24\": {\"O\": 1}, \"25\": {\"O\": 1}, \"26\": {\"O\": 1}, \"27\": {\"O\": 1}, \"28\": {\"O\": 1}, \"29\": {\"O\": 1}, \"30\": {\"O\": 1}, \"31\": {\"O\": 1}, \"32\": {\"O\": 1}, \"33\": {\"O\": 1}, \"34\": {\"O\": 1}, \"35\": {\"O\": 1}, \"36\": {\"O\": 1}, \"37\": {\"O\": 1}, \"38\": {\"O\": 1}, \"39\": {\"O\": 1}}" n_minim_iter=5 energy=-45151.5662437129 stress="0.025359338405138956 8.690902827423212e-13 -2.651420398558497e-13 8.690902827423212e-13 0.025359338406324844 -4.2814616513445826e-14 -2.651420398558497e-13 -4.2814616513445826e-14 0.025359338406999696" free_energy=-45151.5662437129 pbc="T T T"
In      -4.32512358       3.05832421       5.80784988        0       0.00579799      -0.00409979       0.00710105
In       7.34752796       1.21600106       1.59549865        1      -0.00579799       0.00409979      -0.00710105
In       1.30271919      -0.92116157       5.29717292        2      -0.00579799       0.00409979      -0.00710105
In      -1.51120219      -2.13716263       3.70167427        3      -0.00000000      -0.00000000      -0.00000000
In      -1.30271920       4.12690553       3.44633578        4       0.00579798      -0.00409979      -0.00710105
In       4.74208957      -2.91090447       5.55251140        5       0.00579798       0.00819959       0.00000000
In      -1.30271920       1.36342080       5.55251140        6       0.00579799       0.00819959       0.00000000
In      -1.71968519       7.18522974       1.85083713        7      -0.00579798      -0.00819959      -0.00000000
In       4.32512358       0.14741974       3.95701275        8      -0.00579799       0.00409979       0.00710105
In      -1.51120219       4.27432527      -0.00000000        9       0.00000000       0.00000000      -0.00000000
In       4.32512358       6.55890765       0.25533848       10      -0.00579798       0.00409979       0.00710105
In      -1.30271920      -2.28458237       7.14801005       11       0.00579798      -0.00409979      -0.00710105
In       4.32512358       2.91090447       1.85083713       12      -0.00579799      -0.00819959       0.00000000
In       1.71968519       5.19548685       2.10617561       13       0.00579798      -0.00409979       0.00710105
In       4.53360658       0.00000000      -0.00000000       14       0.00000000       0.00000000      -0.00000000
In       1.51120219       2.13716264       3.70167427       15      -0.00000000       0.00000000      -0.00000000
O        0.90887298       4.27832627       4.01239347       16       0.00885754      -0.01385671       0.00428717
O       -2.11353141       3.47283419       5.39368683       17       0.00885754       0.01064115       0.00985668
O       -0.44892321       2.29577844       0.02905864       18      -0.00007915       0.01696034      -0.00108848
O       -0.90887298      -0.79749009       2.00273177       19      -0.00885754      -0.00321556       0.01414385
O        3.97872993       5.08859238       1.97367313       20       0.00708006       0.00258713       0.01523233
O        2.06607883       2.97220776       1.69201256       21      -0.00708006      -0.01189802       0.00985668
O        2.06607883       6.39070990       0.28166056       22      -0.00708006       0.01448515       0.00537564
O       -2.31412174       6.06947729       3.73073291       23      -0.01601675      -0.00557883      -0.00108848
O        3.47132759       1.97854683       7.37428989       24       0.00007915      -0.01696034       0.00108848
O        5.33652613      -1.79515201       3.67261562       25       0.01601675       0.00557883       0.00108848
O        6.49373198       3.31021738       1.72800114       26       0.00007915       0.00753752      -0.01523233
O        3.73068703       2.33333347       3.98333483       27      -0.01601675       0.00184676       0.00537564
O        0.70828264       4.42016506       7.09262933       28      -0.01601675       0.00373206      -0.00428717
O        2.31412174      -0.14583978       0.31071921       29       0.01601675      -0.00373206       0.00428717
O       -3.47132760       0.96410789       5.67534740       30      -0.00007915      -0.00753752       0.01523233
O        5.13593579       0.80149109       2.00966170       31      -0.00885754      -0.01064115      -0.00985668
O        0.95632555       1.30211752       5.71133597       32       0.00708006       0.01189802      -0.00985668
O        3.47132759      -1.01443894       5.70440604       33       0.00007915       0.00942282       0.01414385
O        2.11353140      -0.00400099       3.39095506       34      -0.00885754       0.01385671      -0.00428717
O        0.95632555      -2.11638462       7.12168797       35       0.00708006      -0.01448515      -0.00537564
O       -0.70828264       1.94099180       3.42001370       36       0.01601675      -0.00184676      -0.00537564
O       -0.95632555      -0.81426711       5.42967541       37      -0.00708006      -0.00258713      -0.01523233
O       -0.44892321       5.28876421       1.69894249       38      -0.00007915      -0.00942282      -0.01414385
O        3.93127736       5.07181537       5.40061676       39       0.00885754       0.00321556      -0.01414385
40