40
Lattice="8.450525194438415 6.623299686481232e-10 3.1086244689504383e-15 -2.8168417321039225 7.9672315592127845 -1.1472045535754205e-09 -2.8168417311672487 -3.9836157789440505 6.899824928876175" Properties=species:S:1:pos:R:3:spacegroup_kinds:I:1:forces:R:3 spacegroup="P 1" unit_cell=conventional occupancy="_JSON {\"0\": {\"In\": 1}, \"1\": {\"In\": 1}, \"2\": {\"In\": 1}, \"3\": {\"In\": 1}, \"4\": {\"In\": 1}, \"5\": {\"In\": 1}, \"6\": {\"In\": 1}, \"7\": {\"In\": 1}, \"8\": {\"In\": 1}, \"9\": {\"In\": 1}, \"10\": {\"In\": 1}, \"11\": {\"In\": 1}, \"12\": {\"In\": 1}, \"13\": {\"In\": 1}, \"14\": {\"In\": 1}, \"15\": {\"In\": 1}, \"16\": {\"O\": 1}, \"17\": {\"O\": 1}, \"18\": {\"O\": 1}, \"19\": {\"O\": 1}, \"20\": {\"O\": 1}, \"21\": {\"O\": 1}, \"22\": {\"O\": 1}, \"23\": {\"O\": 1}, \"24\": {\"O\": 1}, \"25\": {\"O\": 1}, \"26\": {\"O\": 1}, \"27\": {\"O\": 1}, \"28\": {\"O\": 1}, \"29\": {\"O\": 1}, \"30\": {\"O\": 1}, \"31\": {\"O\": 1}, \"32\": {\"O\": 1}, \"33\": {\"O\": 1}, \"34\": {\"O\": 1}, \"35\": {\"O\": 1}, \"36\": {\"O\": 1}, \"37\": {\"O\": 1}, \"38\": {\"O\": 1}, \"39\": {\"O\": 1}}" n_minim_iter=1 energy=-45147.352489464945 stress="-0.1312251002555172 6.2222617265644e-13 5.799647285905285e-14 6.2222617265644e-13 -0.13122510025620038 -2.9271773245650335e-13 5.799647285905285e-14 -2.9271773245650335e-13 -0.13122510025682946" free_energy=-45147.352489464945 pbc="T T T"
In      -3.99753597       2.82668479       5.45377571        0       0.17839967      -0.12614761       0.21849408
In       6.81437770       1.15693099       1.44604921        1      -0.17839967       0.12614761      -0.21849408
In       1.18069424      -0.83487690       4.89596167        2      -0.17839967       0.12614761      -0.21849408
In      -1.40842087      -1.99180789       3.44991246        3      -0.00000000       0.00000000      -0.00000000
In      -1.18069424       3.82258874       3.17100544        4       0.17839967      -0.12614761      -0.21849408
In       4.45298922      -2.66565775       5.17486869        5       0.17839967       0.25229523      -0.00000000
In      -1.18069424       1.31795803       5.17486869        6       0.17839967       0.25229523      -0.00000000
In      -1.63614750       6.64927353       1.72495623        7      -0.17839967      -0.25229523       0.00000000
In       3.99753597       0.16102704       3.72881948        8      -0.17839967       0.12614761       0.21849408
In      -1.40842087       3.98361578      -0.00000000        9      -0.00000000       0.00000000       0.00000000
In       3.99753597       6.13645071       0.27890702       10      -0.17839967       0.12614761       0.21849408
In      -1.18069424      -2.15283493       6.62091791       11       0.17839967      -0.12614761      -0.21849408
In       3.99753597       2.66565775       1.72495623       12      -0.17839967      -0.25229523       0.00000000
In       1.63614749       4.81849268       2.00386325       13       0.17839967      -0.12614761       0.21849408
In       4.22526260       0.00000000      -0.00000000       14      -0.00000000      -0.00000000       0.00000000
In       1.40842086       1.99180789       3.44991246       15       0.00000000      -0.00000000      -0.00000000
O        0.83400738       3.98389079       3.80307652       16       0.04354474      -0.04298419       0.08991998
O       -1.98283435       3.29342338       4.99804850       17       0.04354474       0.09936508      -0.00773459
O       -0.37245789       2.15471527       0.07052387       18       0.06767133       0.08230501       0.02181433
O       -0.83400739      -0.68991739       1.90130010       19      -0.04354474       0.05638089       0.08218539
O        3.76601412       4.71425015       1.83077622       20       0.07916738      -0.04378639       0.06037106
O        1.86766934       2.76343425       1.54813604       21      -0.07916738      -0.07417607      -0.00773459
O        1.86766934       5.93443169       0.28264018       22      -0.07916738       0.03038968       0.06810565
O       -2.15563767       5.60834192       3.52043634       23      -0.05504079      -0.09123614       0.02181433
O        3.18929962       1.82890051       6.82930105       24      -0.06767133      -0.08230501      -0.02181433
O        4.97247940      -1.62472613       3.37938859       25       0.05504079       0.09123614      -0.02181433
O        6.00614135       3.13024100       1.61913624       26      -0.06767133       0.06004426      -0.06037106
O        3.47804579       2.23642424       3.73255265       27      -0.05504079       0.06450983       0.06810565
O        0.66120406       4.10608119       6.54666086       28      -0.05504079       0.02672631      -0.08991998
O        2.15563767      -0.12246541       0.35316406       29       0.05504079      -0.02672631       0.08991998
O       -3.18929963       0.85337479       5.28068869       30       0.06767133      -0.06004426       0.06037106
O        4.79967608       0.69019240       1.90177642       31      -0.04354474      -0.09936508       0.00773459
O        0.94917239       1.22018154       5.35168889       32       0.07916738       0.07417607       0.00773459
O        3.18929962      -0.97552572       5.35121256       33      -0.06767133       0.02226074       0.08218539
O        1.98283434      -0.00027500       3.09674840       34      -0.04354474       0.04298419      -0.08991998
O        0.94917239      -1.95081590       6.61718474       35       0.07916738      -0.03038968      -0.06810565
O       -0.66120406       1.74719155       3.16727227       36       0.05504079      -0.06450983      -0.06810565
O       -0.94917239      -0.73063437       5.06904870       37      -0.07916738       0.04378639      -0.06037106
O       -0.37245789       4.95914150       1.54861236       38       0.06767133      -0.02226074      -0.08218539
O        3.65084911       4.67353317       4.99852482       39       0.04354474      -0.05638089      -0.08218539
40
Lattice="8.45052519443842 6.623299686481239e-10 3.1086244689504403e-15 -2.8168417321039256 7.967231559212793 -1.1472045535754213e-09 -2.816841731167252 -3.983615778944055 6.89982492887618" Properties=species:S:1:pos:R:3:spacegroup_kinds:I:1:forces:R:3 spacegroup="P 1" unit_cell=conventional occupancy="_JSON {\"0\": {\"In\": 1}, \"1\": {\"In\": 1}, \"2\": {\"In\": 1}, \"3\": {\"In\": 1}, \"4\": {\"In\": 1}, \"5\": {\"In\": 1}, \"6\": {\"In\": 1}, \"7\": {\"In\": 1}, \"8\": {\"In\": 1}, \"9\": {\"In\": 1}, \"10\": {\"In\": 1}, \"11\": {\"In\": 1}, \"12\": {\"In\": 1}, \"13\": {\"In\": 1}, \"14\": {\"In\": 1}, \"15\": {\"In\": 1}, \"16\": {\"O\": 1}, \"17\": {\"O\": 1}, \"18\": {\"O\": 1}, \"19\": {\"O\": 1}, \"20\": {\"O\": 1}, \"21\": {\"O\": 1}, \"22\": {\"O\": 1}, \"23\": {\"O\": 1}, \"24\": {\"O\": 1}, \"25\": {\"O\": 1}, \"26\": {\"O\": 1}, \"27\": {\"O\": 1}, \"28\": {\"O\": 1}, \"29\": {\"O\": 1}, \"30\": {\"O\": 1}, \"31\": {\"O\": 1}, \"32\": {\"O\": 1}, \"33\": {\"O\": 1}, \"34\": {\"O\": 1}, \"35\": {\"O\": 1}, \"36\": {\"O\": 1}, \"37\": {\"O\": 1}, \"38\": {\"O\": 1}, \"39\": {\"O\": 1}}" n_minim_iter=2 energy=-45147.4523262204 stress="-0.11721663389187527 6.618948065191003e-13 -7.828368913370283e-13 6.618948065191003e-13 -0.11721663389340399 -1.2950261252327081e-13 -7.828368913370283e-13 -1.2950261252327081e-13 -0.11721663389277681" free_energy=-45147.4523262204 pbc="T T T"
In      -3.97256279       2.80902609       5.48436149        0      -0.08784805       0.06211795      -0.10759145
In       6.78940452       1.17458969       1.41546344        1       0.08784805      -0.06211795       0.10759145
In       1.15572106      -0.81721820       4.86537590        2       0.08784805      -0.06211795       0.10759145
In      -1.40842087      -1.99180789       3.44991246        3      -0.00000000      -0.00000000      -0.00000000
In      -1.15572106       3.80493003       3.14041967        4      -0.08784805       0.06211795       0.10759145
In       4.47796240      -2.63034034       5.17486869        5      -0.08784805      -0.12423590       0.00000000
In      -1.15572106       1.35327544       5.17486869        6      -0.08784805      -0.12423590       0.00000000
In      -1.66112067       6.61395612       1.72495623        7       0.08784805       0.12423590      -0.00000000
In       3.97256279       0.17868575       3.75940525        8       0.08784805      -0.06211795      -0.10759145
In      -1.40842087       3.98361578      -0.00000000        9      -0.00000000      -0.00000000      -0.00000000
In       3.97256279       6.15410942       0.30949279       10       0.08784805      -0.06211795      -0.10759145
In      -1.15572106      -2.17049363       6.59033213       11      -0.08784805       0.06211795       0.10759145
In       3.97256279       2.63034034       1.72495623       12       0.08784805       0.12423590      -0.00000000
In       1.66112067       4.80083398       2.03444902       13      -0.08784805       0.06211795      -0.10759145
In       4.22526260       0.00000000      -0.00000000       14      -0.00000000      -0.00000000       0.00000000
In       1.40842086       1.99180789       3.44991246       15       0.00000000       0.00000000       0.00000000
O        0.84010297       3.97787367       3.81566392       16       0.12336926       0.15606126       0.27436122
O       -1.97673876       3.30733295       4.99696578       17       0.12336926       0.15957316      -0.27233362
O       -0.36298496       2.16623669       0.07357754       18       0.33870607       0.00730704      -0.00860098
O       -0.84010297      -0.68202494       1.91280477       19      -0.12336926       0.31563441       0.00202760
O        3.77709632       4.70812074       1.83922723       20       0.10932393      -0.32060019       0.01062857
O        1.85658713       2.75305075       1.54705331       21      -0.10932393      -0.16950471      -0.27233362
O        1.85658713       5.93868577       0.29217392       22      -0.10932393      -0.15109548       0.28296219
O       -2.16334253       5.59557028       3.52349000       23       0.10601288      -0.32177082      -0.00860098
O        3.17982669       1.81737909       6.82624738       24      -0.33870607      -0.00730704       0.00860098
O        4.98018426      -1.61195449       3.37633492       25      -0.10601288       0.32177082       0.00860098
O        5.99666842       3.13864626       1.61068523       26      -0.33870607      -0.00379514      -0.01062857
O        3.47034094       2.24545461       3.74208638       27       0.10601288       0.15343675       0.28296219
O        0.65349920       4.10982246       6.53407346       28       0.10601288       0.16833407      -0.27436122
O        2.16334252      -0.12620668       0.36575146       29      -0.10601288      -0.16833407       0.27436122
O       -3.17982669       0.84496952       5.28913970       30       0.33870607       0.00379514       0.01062857
O        4.79358049       0.67628283       1.90285915       31      -0.12336926      -0.15957316       0.27233362
O        0.96025459       1.23056503       5.35277161       32       0.10932393       0.16950471       0.27233362
O        3.17982669      -0.97240956       5.36271724       33      -0.33870607       0.01110218       0.00202760
O        1.97673876       0.00574211       3.08416100       34      -0.12336926      -0.15606126      -0.27436122
O        0.96025459      -1.95506998       6.60765101       35       0.10932393       0.15109548      -0.28296219
O       -0.65349921       1.73816117       3.15773854       36      -0.10601288      -0.15343675      -0.28296219
O       -0.96025460      -0.72450495       5.06059769       37      -0.10932393       0.32060019      -0.01062857
O       -0.36298496       4.95602535       1.53710768       38       0.33870607      -0.01110218      -0.00202760
O        3.65694470       4.66564073       4.98702015       39       0.12336926      -0.31563441      -0.00202760
40
Lattice="8.450525194438422 6.623299686481244e-10 3.1086244689504576e-15 -2.816841732103927 7.967231559212798 -1.147204553575422e-09 -2.816841731167253 -3.983615778944057 6.899824928876185" Properties=species:S:1:pos:R:3:spacegroup_kinds:I:1:forces:R:3 spacegroup="P 1" unit_cell=conventional occupancy="_JSON {\"0\": {\"In\": 1}, \"1\": {\"In\": 1}, \"2\": {\"In\": 1}, \"3\": {\"In\": 1}, \"4\": {\"In\": 1}, \"5\": {\"In\": 1}, \"6\": {\"In\": 1}, \"7\": {\"In\": 1}, \"8\": {\"In\": 1}, \"9\": {\"In\": 1}, \"10\": {\"In\": 1}, \"11\": {\"In\": 1}, \"12\": {\"In\": 1}, \"13\": {\"In\": 1}, \"14\": {\"In\": 1}, \"15\": {\"In\": 1}, \"16\": {\"O\": 1}, \"17\": {\"O\": 1}, \"18\": {\"O\": 1}, \"19\": {\"O\": 1}, \"20\": {\"O\": 1}, \"21\": {\"O\": 1}, \"22\": {\"O\": 1}, \"23\": {\"O\": 1}, \"24\": {\"O\": 1}, \"25\": {\"O\": 1}, \"26\": {\"O\": 1}, \"27\": {\"O\": 1}, \"28\": {\"O\": 1}, \"29\": {\"O\": 1}, \"30\": {\"O\": 1}, \"31\": {\"O\": 1}, \"32\": {\"O\": 1}, \"33\": {\"O\": 1}, \"34\": {\"O\": 1}, \"35\": {\"O\": 1}, \"36\": {\"O\": 1}, \"37\": {\"O\": 1}, \"38\": {\"O\": 1}, \"39\": {\"O\": 1}}" n_minim_iter=3 energy=-45147.524997715926 stress="-0.10514264754347644 2.2289516284268373e-13 -9.061272988627744e-13 2.2289516284268373e-13 -0.10514264754168876 2.852736498488159e-13 -9.061272988627744e-13 2.852736498488159e-13 -0.10514264754105467" free_energy=-45147.524997715926 pbc="T T T"
In      -3.95876913       2.79927250       5.50125520        0      -0.03360093       0.02375945      -0.04115257
In       6.77561086       1.18434329       1.39856972        1       0.03360093      -0.02375945       0.04115257
In       1.14192740      -0.80746460       4.84848218        2       0.03360093      -0.02375945       0.04115257
In      -1.40842087      -1.99180789       3.44991246        3       0.00000000      -0.00000000       0.00000000
In      -1.14192740       3.79517644       3.12352595        4      -0.03360093       0.02375945       0.04115257
In       4.49175606      -2.61083315       5.17486869        5      -0.03360093      -0.04751889       0.00000000
In      -1.14192740       1.37278262       5.17486869        6      -0.03360093      -0.04751889      -0.00000000
In      -1.67491434       6.59444894       1.72495623        7       0.03360093       0.04751889       0.00000000
In       3.95876913       0.18843934       3.77629897        8       0.03360093      -0.02375945      -0.04115257
In      -1.40842087       3.98361578      -0.00000000        9       0.00000000       0.00000000      -0.00000000
In       3.95876913       6.16386301       0.32638651       10       0.03360093      -0.02375945      -0.04115257
In      -1.14192740      -2.18024723       6.57343842       11      -0.03360093       0.02375945       0.04115257
In       3.95876913       2.61083316       1.72495623       12       0.03360093       0.04751889       0.00000000
In       1.67491433       4.79108039       2.05134274       13      -0.03360093       0.02375945      -0.04115257
In       4.22526260       0.00000000      -0.00000000       14      -0.00000000      -0.00000000      -0.00000000
In       1.40842086       1.99180789       3.44991246       15       0.00000000      -0.00000000       0.00000000
O        0.85047611       3.98107670       3.83803295       16       0.04771902       0.00871513       0.00463703
O       -1.96636562       3.32510358       4.98300736       17       0.04771902      -0.00034178      -0.00986604
O       -0.33975309       2.17491483       0.07536778       18       0.02380081       0.01657095      -0.03915974
O       -0.85047612      -0.66105128       1.92121538       19      -0.04771902       0.00837335      -0.00522901
O        3.79039292       4.68818068       1.84584760       20      -0.01622857      -0.03098224       0.03393074
O        1.84329054       2.73734731       1.53309490       21       0.01622857      -0.04487600      -0.00986604
O        1.84329054       5.93444915       0.31275270       22       0.01622857       0.01389376       0.04379678
O       -2.16378040       5.57077435       3.52528024       23      -0.00768964      -0.02796327      -0.03915974
O        3.15659482       1.80870095       6.82445714       24      -0.02380081      -0.01657095       0.03915974
O        4.98062213      -1.58715856       3.37454468       25       0.00768964       0.02796327       0.03915974
O        5.97343655       3.14453572       1.60406486       26      -0.02380081      -0.02562786      -0.03393074
O        3.46990306       2.25940297       3.76266516       27      -0.00768964      -0.01993170       0.04379678
O        0.65306133       4.12067003       6.51170444       28      -0.00768964       0.04789497      -0.00463703
O        2.16378040      -0.13705425       0.38812048       29       0.00768964      -0.04789497       0.00463703
O       -3.15659482       0.83908006       5.29576006       30       0.02380081       0.02562786       0.03393074
O        4.78320735       0.65851220       1.91681756       31      -0.04771902       0.00034178       0.00986604
O        0.97355119       1.24626847       5.36673003       32      -0.01622857       0.04487600       0.00986604
O        3.15659482      -0.96962089       5.37112785       33      -0.02380081       0.04219881      -0.00522901
O        1.96636561       0.00253909       3.06179198       34      -0.04771902      -0.00871513      -0.00463703
O        0.97355119      -1.95083336       6.58707222       35      -0.01622857      -0.01389376      -0.04379678
O       -0.65306134       1.72421281       3.13715976       36       0.00768964       0.01993170      -0.04379678
O       -0.97355119      -0.70456489       5.05397732       37       0.01622857       0.03098224      -0.03393074
O       -0.33975309       4.95323667       1.52869708       38       0.02380081      -0.04219881       0.00522901
O        3.66731785       4.64466707       4.97860954       39       0.04771902      -0.00837335       0.00522901
40
Lattice="8.450525194438422 6.623299686481244e-10 3.108624468950473e-15 -2.816841732103927 7.967231559212798 -1.147204553575422e-09 -2.816841731167253 -3.983615778944057 6.899824928876185" Properties=species:S:1:pos:R:3:spacegroup_kinds:I:1:forces:R:3 spacegroup="P 1" unit_cell=conventional occupancy="_JSON {\"0\": {\"In\": 1}, \"1\": {\"In\": 1}, \"2\": {\"In\": 1}, \"3\": {\"In\": 1}, \"4\": {\"In\": 1}, \"5\": {\"In\": 1}, \"6\": {\"In\": 1}, \"7\": {\"In\": 1}, \"8\": {\"In\": 1}, \"9\": {\"In\": 1}, \"10\": {\"In\": 1}, \"11\": {\"In\": 1}, \"12\": {\"In\": 1}, \"13\": {\"In\": 1}, \"14\": {\"In\": 1}, \"15\": {\"In\": 1}, \"16\": {\"O\": 1}, \"17\": {\"O\": 1}, \"18\": {\"O\": 1}, \"19\": {\"O\": 1}, \"20\": {\"O\": 1}, \"21\": {\"O\": 1}, \"22\": {\"O\": 1}, \"23\": {\"O\": 1}, \"24\": {\"O\": 1}, \"25\": {\"O\": 1}, \"26\": {\"O\": 1}, \"27\": {\"O\": 1}, \"28\": {\"O\": 1}, \"29\": {\"O\": 1}, \"30\": {\"O\": 1}, \"31\": {\"O\": 1}, \"32\": {\"O\": 1}, \"33\": {\"O\": 1}, \"34\": {\"O\": 1}, \"35\": {\"O\": 1}, \"36\": {\"O\": 1}, \"37\": {\"O\": 1}, \"38\": {\"O\": 1}, \"39\": {\"O\": 1}}" n_minim_iter=4 energy=-45147.526765941875 stress="-0.10657944317805572 -8.963489939991078e-14 -4.69987179020985e-15 -8.963489939991078e-14 -0.10657944317845747 4.946624917562618e-13 -4.69987179020985e-15 4.946624917562618e-13 -0.10657944317722674" free_energy=-45147.526765941875 pbc="T T T"
In      -3.96152133       2.80121860       5.49788446        0       0.00083922      -0.00059342       0.00102783
In       6.77836306       1.18239719       1.40194046        1      -0.00083922       0.00059342      -0.00102783
In       1.14467959      -0.80941070       4.85185293        2      -0.00083922       0.00059342      -0.00102783
In      -1.40842087      -1.99180789       3.44991246        3      -0.00000000      -0.00000000       0.00000000
In      -1.14467960       3.79712254       3.12689669        4       0.00083922      -0.00059342      -0.00102783
In       4.48900387      -2.61472535       5.17486869        5       0.00083922       0.00118684       0.00000000
In      -1.14467960       1.36889043       5.17486869        6       0.00083922       0.00118684       0.00000000
In      -1.67216214       6.59834113       1.72495623        7      -0.00083922      -0.00118684       0.00000000
In       3.96152133       0.18649324       3.77292823        8      -0.00083922       0.00059342       0.00102783
In      -1.40842087       3.98361578      -0.00000000        9      -0.00000000      -0.00000000      -0.00000000
In       3.96152133       6.16191691       0.32301576       10      -0.00083922       0.00059342       0.00102783
In      -1.14467960      -2.17830113       6.57680916       11       0.00083922      -0.00059342      -0.00102783
In       3.96152133       2.61472536       1.72495623       12      -0.00083922      -0.00118684      -0.00000000
In       1.67216213       4.79302649       2.04797200       13       0.00083922      -0.00059342       0.00102783
In       4.22526260       0.00000000      -0.00000000       14      -0.00000000       0.00000000      -0.00000000
In       1.40842086       1.99180789       3.44991246       15      -0.00000000      -0.00000000      -0.00000000
O        0.85045976       3.98162322       3.83665442       16       0.03658588      -0.01039301      -0.01502706
O       -1.96638197       3.32363647       4.98322332       17       0.03658588      -0.00781731       0.01651414
O       -0.34062647       2.17405374       0.07453410       18      -0.00497356       0.02156965      -0.03438557
O       -0.85045977      -0.66197186       1.92005281       19      -0.03658588      -0.01821032       0.00148708
O        3.78901517       4.68861993       1.84551871       20      -0.01956553      -0.00164220       0.03587266
O        1.84466829       2.73785176       1.53331086       21       0.01956553      -0.03188773       0.01651414
O        1.84466829       5.93438395       0.31220785       22       0.01956553       0.03024553       0.01935851
O       -2.16325968       5.57188481       3.52444656       23      -0.02199392      -0.00250076      -0.03438557
O        3.15746820       1.80956204       6.82529083       24       0.00497356      -0.02156965       0.03438557
O        4.98010141      -1.58826902       3.37537836       25       0.02199392       0.00250076       0.03438557
O        5.97430993       3.14338318       1.60439374       26       0.00497356      -0.01899395      -0.03587266
O        3.47042378       2.25812575       3.76212032       27      -0.02199392      -0.02852840       0.01935851
O        0.65358205       4.12083679       6.51308297       28      -0.02199392       0.03102916       0.01502706
O        2.16325968      -0.13722101       0.38674195       29       0.02199392      -0.03102916      -0.01502706
O       -3.15746820       0.84023260       5.29543118       30      -0.00497356       0.01899395       0.03587266
O        4.78322369       0.65997931       1.91660160       31      -0.03658588       0.00781731      -0.01651414
O        0.97217344       1.24576402       5.36651407       32      -0.01956553       0.03188773      -0.01651414
O        3.15746820      -0.96932944       5.36996528       33       0.00497356       0.04056361       0.00148708
O        1.96638196       0.00199256       3.06317051       34      -0.03658588       0.01039301       0.01502706
O        0.97217344      -1.95076816       6.58761707       35      -0.01956553      -0.03024553      -0.01935851
O       -0.65358206       1.72549004       3.13770460       36       0.02199392       0.02852840      -0.01935851
O       -0.97217344      -0.70500415       5.05430621       37       0.01956553       0.00164220      -0.03587266
O       -0.34062647       4.95294523       1.52985965       38      -0.00497356      -0.04056361      -0.00148708
O        3.66730150       4.64558765       4.97977211       39       0.03658588       0.01821032      -0.00148708
40
Lattice="8.450525194438427 6.623299686481247e-10 3.1086244689504853e-15 -2.816841732103929 7.967231559212802 -1.147204553575423e-09 -2.8168417311672553 -3.9836157789440594 6.899824928876189" Properties=species:S:1:pos:R:3:spacegroup_kinds:I:1:forces:R:3 spacegroup="P 1" unit_cell=conventional occupancy="_JSON {\"0\": {\"In\": 1}, \"1\": {\"In\": 1}, \"2\": {\"In\": 1}, \"3\": {\"In\": 1}, \"4\": {\"In\": 1}, \"5\": {\"In\": 1}, \"6\": {\"In\": 1}, \"7\": {\"In\": 1}, \"8\": {\"In\": 1}, \"9\": {\"In\": 1}, \"10\": {\"In\": 1}, \"11\": {\"In\": 1}, \"12\": {\"In\": 1}, \"13\": {\"In\": 1}, \"14\": {\"In\": 1}, \"15\": {\"In\": 1}, \"16\": {\"O\": 1}, \"17\": {\"O\": 1}, \"18\": {\"O\": 1}, \"19\": {\"O\": 1}, \"20\": {\"O\": 1}, \"21\": {\"O\": 1}, \"22\": {\"O\": 1}, \"23\": {\"O\": 1}, \"24\": {\"O\": 1}, \"25\": {\"O\": 1}, \"26\": {\"O\": 1}, \"27\": {\"O\": 1}, \"28\": {\"O\": 1}, \"29\": {\"O\": 1}, \"30\": {\"O\": 1}, \"31\": {\"O\": 1}, \"32\": {\"O\": 1}, \"33\": {\"O\": 1}, \"34\": {\"O\": 1}, \"35\": {\"O\": 1}, \"36\": {\"O\": 1}, \"37\": {\"O\": 1}, \"38\": {\"O\": 1}, \"39\": {\"O\": 1}}" n_minim_iter=5 energy=-45147.528907632106 stress="-0.10684092227390711 -1.9940954585740838e-13 1.060995787775323e-12 -1.9940954585740838e-13 -0.10684092227610989 3.6839019715281775e-13 1.060995787775323e-12 3.6839019715281775e-13 -0.10684092227390449" free_energy=-45147.528907632106 pbc="T T T"
In      -3.96221802       2.80171123       5.49703119        0       0.01795646      -0.01269714       0.02199208
In       6.77905975       1.18190455       1.40279374        1      -0.01795646       0.01269714      -0.02199208
In       1.14537629      -0.80990334       4.85270620        2      -0.01795646       0.01269714      -0.02199208
In      -1.40842087      -1.99180789       3.44991246        3       0.00000000      -0.00000000      -0.00000000
In      -1.14537629       3.79761518       3.12774997        4       0.01795646      -0.01269714      -0.02199208
In       4.48830717      -2.61571063       5.17486869        5       0.01795646       0.02539427      -0.00000000
In      -1.14537629       1.36790515       5.17486869        6       0.01795646       0.02539427      -0.00000000
In      -1.67146544       6.59932641       1.72495623        7      -0.01795646      -0.02539427       0.00000000
In       3.96221802       0.18600060       3.77207496        8      -0.01795646       0.01269714       0.02199208
In      -1.40842087       3.98361578      -0.00000000        9      -0.00000000       0.00000000      -0.00000000
In       3.96221802       6.16142427       0.32216249       10      -0.01795646       0.01269714       0.02199208
In      -1.14537629      -2.17780849       6.57766243       11       0.01795646      -0.01269714      -0.02199208
In       3.96221802       2.61571063       1.72495623       12      -0.01795646      -0.02539427       0.00000000
In       1.67146544       4.79351912       2.04711872       13       0.01795646      -0.01269714       0.02199208
In       4.22526260       0.00000000      -0.00000000       14       0.00000000       0.00000000       0.00000000
In       1.40842086       1.99180789       3.44991246       15       0.00000000      -0.00000000       0.00000000
O        0.85419662       3.98120607       3.83590376       16       0.00800987      -0.00086562      -0.02139640
O       -1.96264511       3.32319496       4.98395991       17       0.00800987      -0.01809702       0.01144785
O       -0.34019041       2.17594624       0.07122806       18      -0.01520819      -0.00167937      -0.01698835
O       -0.85419662      -0.66283053       1.92003875       19      -0.00800987      -0.01896264      -0.00994855
O        3.78735329       4.68756985       1.84881069       20      -0.01973199       0.00915441       0.00703980
O        1.84633017       2.73447579       1.53404745       21       0.01973199      -0.00151944       0.01144785
O        1.84633017       5.93670984       0.31476323       22       0.01973199       0.01067385      -0.00440805
O       -2.16489859       5.57084285       3.52114052       23      -0.00348607       0.01489821      -0.01698835
O        3.15703214       1.80766954       6.82859686       24       0.01520819       0.00167937       0.01698835
O        4.98174032      -1.58722707       3.37868440       25       0.00348607      -0.01489821       0.01698835
O        5.97387387       3.14146632       1.60110177       26       0.01520819      -0.01555203      -0.00703980
O        3.46878487       2.25578361       3.76467570       27      -0.00348607      -0.02216144      -0.00440805
O        0.65194314       4.12422088       6.51383363       28      -0.00348607       0.00726324       0.02139640
O        2.16489859      -0.14060510       0.38599130       29       0.00348607      -0.00726324      -0.02139640
O       -3.15703214       0.84214946       5.29872315       30      -0.01520819       0.01555203       0.00703980
O        4.77948684       0.66042082       1.91586501       31      -0.00800987       0.01809702      -0.01144785
O        0.97051156       1.24913999       5.36577747       32      -0.01973199       0.00151944      -0.01144785
O        3.15703214      -0.96552008       5.36995121       33       0.01520819       0.01387266      -0.00994855
O        1.96264511       0.00240971       3.06392116       34      -0.00800987       0.00086562       0.02139640
O        0.97051156      -1.95309406       6.58506169       35      -0.01973199      -0.01067385       0.00440805
O       -0.65194314       1.72783217       3.13514923       36       0.00348607       0.02216144       0.00440805
O       -0.97051156      -0.70395407       5.05101424       37       0.01973199      -0.00915441      -0.00703980
O       -0.34019041       4.94913586       1.52987371       38      -0.01520819      -0.01387266       0.00994855
O        3.67103835       4.64644631       4.97978618       39       0.00800987       0.01896264       0.00994855
40