40
Lattice="8.613074997437565 6.750688896772772e-10 2.6645352591003757e-15 -2.8710249997823154 8.120484983183522 -1.1692584678257845e-09 -2.871024998827628 -4.060242490916687 7.0325462872664835" Properties=species:S:1:pos:R:3:spacegroup_kinds:I:1:forces:R:3 spacegroup="P 1" unit_cell=conventional occupancy="_JSON {\"0\": {\"In\": 1}, \"1\": {\"In\": 1}, \"2\": {\"In\": 1}, \"3\": {\"In\": 1}, \"4\": {\"In\": 1}, \"5\": {\"In\": 1}, \"6\": {\"In\": 1}, \"7\": {\"In\": 1}, \"8\": {\"In\": 1}, \"9\": {\"In\": 1}, \"10\": {\"In\": 1}, \"11\": {\"In\": 1}, \"12\": {\"In\": 1}, \"13\": {\"In\": 1}, \"14\": {\"In\": 1}, \"15\": {\"In\": 1}, \"16\": {\"O\": 1}, \"17\": {\"O\": 1}, \"18\": {\"O\": 1}, \"19\": {\"O\": 1}, \"20\": {\"O\": 1}, \"21\": {\"O\": 1}, \"22\": {\"O\": 1}, \"23\": {\"O\": 1}, \"24\": {\"O\": 1}, \"25\": {\"O\": 1}, \"26\": {\"O\": 1}, \"27\": {\"O\": 1}, \"28\": {\"O\": 1}, \"29\": {\"O\": 1}, \"30\": {\"O\": 1}, \"31\": {\"O\": 1}, \"32\": {\"O\": 1}, \"33\": {\"O\": 1}, \"34\": {\"O\": 1}, \"35\": {\"O\": 1}, \"36\": {\"O\": 1}, \"37\": {\"O\": 1}, \"38\": {\"O\": 1}, \"39\": {\"O\": 1}}" n_minim_iter=1 energy=-45150.10901264982 stress="-0.07858663251078361 -4.141968161205639e-13 -9.675647068427017e-14 -4.141968161205639e-13 -0.07858663251146952 -1.441360933062913e-13 -9.675647068427017e-14 -1.441360933062913e-13 -0.07858663250983271" free_energy=-45150.10901264982 pbc="T T T"
In      -4.10480908       2.90253834       5.52147556        0       0.04885058      -0.03454257       0.05982949
In       6.97583408       1.15770416       1.51107072        1      -0.04885058       0.03454257      -0.05982949
In       1.23378408      -0.87241709       5.02734387        2      -0.04885058       0.03454257      -0.05982949
In      -1.43551250      -2.03012124       3.51627314        3       0.00000000       0.00000000      -0.00000000
In      -1.23378408       3.91759896       3.26920729        4       0.04885058      -0.03454257      -0.05982949
In       4.50826592      -2.75989480       5.27440971        5       0.04885058       0.06908515      -0.00000000
In      -1.23378408       1.30034769       5.27440971        6       0.04885058       0.06908515      -0.00000000
In      -1.63724092       6.82013730       1.75813657        7      -0.04885058      -0.06908515       0.00000000
In       4.10480908       0.14264353       3.76333899        8      -0.04885058       0.03454257       0.05982949
In      -1.43551250       4.06024249      -0.00000000        9       0.00000000       0.00000000      -0.00000000
In       4.10480908       6.23300727       0.24706584       10      -0.04885058       0.03454257       0.05982949
In      -1.23378408      -2.17276478       6.78548044       11       0.04885058      -0.03454257      -0.05982949
In       4.10480908       2.75989481       1.75813657       12      -0.04885058      -0.06908515      -0.00000000
In       1.63724092       4.93265958       2.00520241       13       0.04885058      -0.03454257       0.05982949
In       4.30653750       0.00000000      -0.00000000       14       0.00000000       0.00000000       0.00000000
In       1.43551250       2.03012125       3.51627314       15       0.00000000       0.00000000       0.00000000
O        0.82872916       4.05904524       3.85058655       16       0.01541150       0.00093094       0.05430655
O       -2.04229584       3.33530441       5.10828986       17       0.01541150       0.04656538      -0.02795950
O       -0.40836392       2.17994006       0.07689332       18       0.04991713       0.02216622       0.01430110
O       -0.82872916      -0.72613534       1.92633013       19      -0.01541150       0.04749633       0.02634705
O        3.82532043       4.83077222       1.84943681       20       0.03876510      -0.03923958       0.01204596
O        1.91672957       2.84384810       1.59201672       21      -0.03876510      -0.03005189      -0.02795950
O        1.91672957       6.04716662       0.25742009       22      -0.03876510      -0.00918769       0.04000545
O       -2.19138851       5.74872624       3.59316646       23      -0.00425946      -0.05445106       0.01430110
O        3.27938891       1.88030243       6.95565296       24      -0.04991713      -0.02216622      -0.01430110
O        5.06241350      -1.68848375       3.43937982       25       0.00425946       0.05445106      -0.01430110
O        6.15041391       3.18668285       1.66683633       26      -0.04991713       0.02346822      -0.01204596
O        3.55066149       2.26753157       3.77369323       27      -0.00425946       0.03961065       0.04000545
O        0.67963649       4.16446967       6.69823287       28      -0.00425946       0.01484042      -0.05430655
O        2.19138850      -0.10422718       0.33431341       29       0.00425946      -0.01484042       0.05430655
O       -3.27938892       0.87355965       5.36570995       30       0.04991713      -0.02346822       0.01204596
O        4.91332084       0.72493809       1.92425642       31      -0.01541150      -0.04656538       0.02795950
O        0.95429543       1.21639440       5.44052956       32       0.03876510       0.03005189       0.02795950
O        3.27938891      -1.00674278       5.44260327       33      -0.04991713      -0.00130201       0.02634705
O        2.04229584       0.00119726       3.18195973       34      -0.01541150      -0.00093094      -0.05430655
O        0.95429543      -1.98692412       6.77512620       35       0.03876510       0.00918769      -0.04000545
O       -0.67963650       1.79271093       3.25885305       36       0.00425946      -0.03961065      -0.04000545
O       -0.95429543      -0.77052972       5.18310947       37      -0.03876510       0.03923958      -0.01204596
O       -0.40836392       5.06698528       1.58994301       38       0.04991713       0.00130201      -0.02634705
O        3.69975416       4.78637784       5.10621615       39       0.01541150      -0.04749633      -0.02634705
40
Lattice="8.613074997437563 6.750688896772771e-10 2.664535259100361e-15 -2.871024999782315 8.12048498318352 -1.1692584678257845e-09 -2.8710249988276275 -4.0602424909166865 7.032546287266486" Properties=species:S:1:pos:R:3:spacegroup_kinds:I:1:forces:R:3 spacegroup="P 1" unit_cell=conventional occupancy="_JSON {\"0\": {\"In\": 1}, \"1\": {\"In\": 1}, \"2\": {\"In\": 1}, \"3\": {\"In\": 1}, \"4\": {\"In\": 1}, \"5\": {\"In\": 1}, \"6\": {\"In\": 1}, \"7\": {\"In\": 1}, \"8\": {\"In\": 1}, \"9\": {\"In\": 1}, \"10\": {\"In\": 1}, \"11\": {\"In\": 1}, \"12\": {\"In\": 1}, \"13\": {\"In\": 1}, \"14\": {\"In\": 1}, \"15\": {\"In\": 1}, \"16\": {\"O\": 1}, \"17\": {\"O\": 1}, \"18\": {\"O\": 1}, \"19\": {\"O\": 1}, \"20\": {\"O\": 1}, \"21\": {\"O\": 1}, \"22\": {\"O\": 1}, \"23\": {\"O\": 1}, \"24\": {\"O\": 1}, \"25\": {\"O\": 1}, \"26\": {\"O\": 1}, \"27\": {\"O\": 1}, \"28\": {\"O\": 1}, \"29\": {\"O\": 1}, \"30\": {\"O\": 1}, \"31\": {\"O\": 1}, \"32\": {\"O\": 1}, \"33\": {\"O\": 1}, \"34\": {\"O\": 1}, \"35\": {\"O\": 1}, \"36\": {\"O\": 1}, \"37\": {\"O\": 1}, \"38\": {\"O\": 1}, \"39\": {\"O\": 1}}" n_minim_iter=2 energy=-45150.12527412691 stress="-0.0756220033150789 -1.9674177223506685e-13 6.510406451465452e-13 -1.9674177223506685e-13 -0.07562200331615715 8.086613112335444e-13 6.510406451465452e-13 8.086613112335444e-13 -0.07562200331576314" free_energy=-45150.12527412691 pbc="T T T"
In      -4.09501004       2.89560937       5.53347688        0       0.00066090      -0.00046733       0.00080943
In       6.96603504       1.16463313       1.49906940        1      -0.00066090       0.00046733      -0.00080943
In       1.22398504      -0.86548812       5.01534254        2      -0.00066090       0.00046733      -0.00080943
In      -1.43551250      -2.03012124       3.51627314        3       0.00000000      -0.00000000      -0.00000000
In      -1.22398504       3.91066999       3.25720597        4       0.00066090      -0.00046733      -0.00080943
In       4.51806496      -2.74603687       5.27440971        5       0.00066090       0.00093465      -0.00000000
In      -1.22398504       1.31420563       5.27440971        6       0.00066090       0.00093465      -0.00000000
In      -1.64703996       6.80627936       1.75813657        7      -0.00066090      -0.00093465       0.00000000
In       4.09501004       0.14957250       3.77534031        8      -0.00066090       0.00046733       0.00080943
In      -1.43551250       4.06024249      -0.00000000        9      -0.00000000       0.00000000       0.00000000
In       4.09501004       6.23993624       0.25906717       10      -0.00066090       0.00046733       0.00080943
In      -1.22398504      -2.17969374       6.77347911       11       0.00066090      -0.00046733      -0.00080943
In       4.09501004       2.74603687       1.75813657       12      -0.00066090      -0.00093465       0.00000000
In       1.64703996       4.92573062       2.01720374       13       0.00066090      -0.00046733       0.00080943
In       4.30653750       0.00000000      -0.00000000       14      -0.00000000       0.00000000       0.00000000
In       1.43551250       2.03012125       3.51627314       15       0.00000000      -0.00000000      -0.00000000
O        0.83182058       4.05923198       3.86148002       16       0.02062834      -0.00377757      -0.00715725
O       -2.03920442       3.34464505       5.10268141       17       0.02062834      -0.00430957       0.00685009
O       -0.39835093       2.18438643       0.07976201       18      -0.00074852       0.01080615      -0.01933110
O       -0.83182059      -0.71660796       1.93161514       19      -0.02062834      -0.00808714      -0.00030715
O        3.83309640       4.82290107       1.85185313       20      -0.01093922      -0.00307368       0.01902395
O        1.90895360       2.83781992       1.58640826       21       0.01093922      -0.01801207       0.00685009
O        1.90895360       6.04532364       0.26544486       22       0.01093922       0.01493839       0.01217386
O       -2.19224292       5.73780379       3.59603515       23      -0.01043764      -0.00289634      -0.01933110
O        3.26937593       1.87585607       6.95278427       24       0.00074852      -0.01080615       0.01933110
O        5.06326792      -1.67756130       3.43651113       25       0.01043764       0.00289634       0.01933110
O        6.14040093       3.19139039       1.66442001       26       0.00074852      -0.01133815      -0.01902395
O        3.54980708       2.27547715       3.78171801       27      -0.01043764      -0.01529306       0.01217386
O        0.67878208       4.16744654       6.68733941       28      -0.01043764       0.01818940       0.00715725
O        2.19224292      -0.10720405       0.34520687       29       0.01043764      -0.01818940      -0.00715725
O       -3.26937593       0.86885211       5.36812627       30      -0.00074852       0.01133815       0.01902395
O        4.91022941       0.71559744       1.92986487       31      -0.02062834       0.00430957      -0.00685009
O        0.96207140       1.22242257       5.44613802       32      -0.01093922       0.01801207      -0.00685009
O        3.26937593      -1.00700396       5.44788828       33       0.00074852       0.02214430      -0.00030715
O        2.03920441       0.00101052       3.17106626       34      -0.02062834       0.00377757       0.00715725
O        0.96207140      -1.98508114       6.76710142       35      -0.01093922      -0.01493839      -0.01217386
O       -0.67878208       1.78476535       3.25082827       36       0.01043764       0.01529306      -0.01217386
O       -0.96207140      -0.76265857       5.18069315       37       0.01093922       0.00307368      -0.01902395
O       -0.39835093       5.06724645       1.58465800       38      -0.00074852      -0.02214430       0.00030715
O        3.70284558       4.77685045       5.10093114       39       0.02062834       0.00808714       0.00030715
40
Lattice="8.613074997437558 6.750688896772767e-10 2.6645352591003698e-15 -2.871024999782313 8.120484983183514 -1.1692584678257838e-09 -2.8710249988276257 -4.060242490916684 7.032546287266483" Properties=species:S:1:pos:R:3:spacegroup_kinds:I:1:forces:R:3 spacegroup="P 1" unit_cell=conventional occupancy="_JSON {\"0\": {\"In\": 1}, \"1\": {\"In\": 1}, \"2\": {\"In\": 1}, \"3\": {\"In\": 1}, \"4\": {\"In\": 1}, \"5\": {\"In\": 1}, \"6\": {\"In\": 1}, \"7\": {\"In\": 1}, \"8\": {\"In\": 1}, \"9\": {\"In\": 1}, \"10\": {\"In\": 1}, \"11\": {\"In\": 1}, \"12\": {\"In\": 1}, \"13\": {\"In\": 1}, \"14\": {\"In\": 1}, \"15\": {\"In\": 1}, \"16\": {\"O\": 1}, \"17\": {\"O\": 1}, \"18\": {\"O\": 1}, \"19\": {\"O\": 1}, \"20\": {\"O\": 1}, \"21\": {\"O\": 1}, \"22\": {\"O\": 1}, \"23\": {\"O\": 1}, \"24\": {\"O\": 1}, \"25\": {\"O\": 1}, \"26\": {\"O\": 1}, \"27\": {\"O\": 1}, \"28\": {\"O\": 1}, \"29\": {\"O\": 1}, \"30\": {\"O\": 1}, \"31\": {\"O\": 1}, \"32\": {\"O\": 1}, \"33\": {\"O\": 1}, \"34\": {\"O\": 1}, \"35\": {\"O\": 1}, \"36\": {\"O\": 1}, \"37\": {\"O\": 1}, \"38\": {\"O\": 1}, \"39\": {\"O\": 1}}" n_minim_iter=3 energy=-45150.126161194436 stress="-0.07561331000072329 -6.816771828029866e-14 -1.5359168104907583e-13 -6.816771828029866e-14 -0.0756133099993444 -2.8794219355233416e-13 -1.5359168104907583e-13 -2.8794219355233416e-13 -0.07561330999740656" free_energy=-45150.126161194436 pbc="T T T"
In      -4.09474444       2.89542156       5.53380218        0       0.00297581      -0.00210421       0.00364461
In       6.96576943       1.16482093       1.49874410        1      -0.00297581       0.00210421      -0.00364461
In       1.22371944      -0.86530031       5.01501725        2      -0.00297581       0.00210421      -0.00364461
In      -1.43551250      -2.03012124       3.51627314        3      -0.00000000       0.00000000       0.00000000
In      -1.22371944       3.91048218       3.25688067        4       0.00297581      -0.00210421      -0.00364461
In       4.51833056      -2.74566125       5.27440971        5       0.00297581       0.00420843      -0.00000000
In      -1.22371944       1.31458124       5.27440971        6       0.00297581       0.00420843      -0.00000000
In      -1.64730556       6.80590374       1.75813657        7      -0.00297581      -0.00420843       0.00000000
In       4.09474444       0.14976031       3.77566561        8      -0.00297581       0.00210421       0.00364461
In      -1.43551250       4.06024249      -0.00000000        9       0.00000000      -0.00000000       0.00000000
In       4.09474444       6.24012405       0.25939246       10      -0.00297581       0.00210421       0.00364461
In      -1.22371944      -2.17988155       6.77315382       11       0.00297581      -0.00210421      -0.00364461
In       4.09474444       2.74566125       1.75813657       12      -0.00297581      -0.00420843      -0.00000000
In       1.64730556       4.92554281       2.01752903       13       0.00297581      -0.00210421       0.00364461
In       4.30653750       0.00000000      -0.00000000       14       0.00000000       0.00000000       0.00000000
In       1.43551250       2.03012125       3.51627314       15       0.00000000       0.00000000      -0.00000000
O        0.83498343       4.05866553       3.86058527       16       0.00222967       0.01517626      -0.00039828
O       -2.03604157       3.34415341       5.10361934       17       0.00222967      -0.00793305      -0.01294389
O       -0.39829423       2.18609116       0.07689570       18       0.00757218      -0.01171078      -0.00640066
O       -0.83498344      -0.71766605       1.93165833       19      -0.00222967       0.00724321      -0.01334217
O        3.83157859       4.82230430       1.85476263       20      -0.00822257      -0.01093863      -0.00694150
O        1.91047141       2.83500184       1.58734619       21       0.00822257       0.00054220      -0.01294389
O        1.91047141       6.04754495       0.26741643       22       0.00822257      -0.01148083       0.00600238
O       -2.19383126       5.73718209       3.59316884       23       0.01356509      -0.00323553      -0.00640066
O        3.26931923       1.87415133       6.95565058       24      -0.00757218       0.01171078       0.00640066
O        5.06485625      -1.67693959       3.43937744       25      -0.01356509       0.00323553       0.00640066
O        6.14034423       3.18976046       1.66151051       26      -0.00757218      -0.01139853       0.00694150
O        3.54821874       2.27330571       3.78368957       27       0.01356509      -0.00392537       0.00600238
O        0.67719374       4.17023969       6.68823415       28       0.01356509       0.00716090       0.00039828
O        2.19383125      -0.10999719       0.34431213       29      -0.01356509      -0.00716090      -0.00039828
O       -3.26931923       0.87048204       5.37103577       30       0.00757218       0.01139853      -0.00694150
O        4.90706656       0.71608909       1.92892694       31      -0.00222967       0.00793305       0.01294389
O        0.96055359       1.22524065       5.44520009       32      -0.00822257      -0.00054220       0.01294389
O        3.26931923      -1.00366929       5.44793147       33      -0.00757218      -0.00031225      -0.01334217
O        2.03604156       0.00157697       3.17196101       34      -0.00222967      -0.01517626       0.00039828
O        0.96055359      -1.98730245       6.76512985       35      -0.00822257       0.01148083      -0.00600238
O       -0.67719375       1.78693679       3.24885671       36      -0.01356509       0.00392537      -0.00600238
O       -0.96055359      -0.76206180       5.17778366       37       0.00822257       0.01093863       0.00694150
O       -0.39829423       5.06391179       1.58461481       38       0.00757218       0.00031225       0.01334217
O        3.70600843       4.77790854       5.10088795       39       0.00222967      -0.00724321       0.01334217
40
Lattice="8.613074997437558 6.750688896772767e-10 2.6645352591003792e-15 -2.8710249997823136 8.120484983183513 -1.1692584678257849e-09 -2.871024998827626 -4.060242490916683 7.032546287266487" Properties=species:S:1:pos:R:3:spacegroup_kinds:I:1:forces:R:3 spacegroup="P 1" unit_cell=conventional occupancy="_JSON {\"0\": {\"In\": 1}, \"1\": {\"In\": 1}, \"2\": {\"In\": 1}, \"3\": {\"In\": 1}, \"4\": {\"In\": 1}, \"5\": {\"In\": 1}, \"6\": {\"In\": 1}, \"7\": {\"In\": 1}, \"8\": {\"In\": 1}, \"9\": {\"In\": 1}, \"10\": {\"In\": 1}, \"11\": {\"In\": 1}, \"12\": {\"In\": 1}, \"13\": {\"In\": 1}, \"14\": {\"In\": 1}, \"15\": {\"In\": 1}, \"16\": {\"O\": 1}, \"17\": {\"O\": 1}, \"18\": {\"O\": 1}, \"19\": {\"O\": 1}, \"20\": {\"O\": 1}, \"21\": {\"O\": 1}, \"22\": {\"O\": 1}, \"23\": {\"O\": 1}, \"24\": {\"O\": 1}, \"25\": {\"O\": 1}, \"26\": {\"O\": 1}, \"27\": {\"O\": 1}, \"28\": {\"O\": 1}, \"29\": {\"O\": 1}, \"30\": {\"O\": 1}, \"31\": {\"O\": 1}, \"32\": {\"O\": 1}, \"33\": {\"O\": 1}, \"34\": {\"O\": 1}, \"35\": {\"O\": 1}, \"36\": {\"O\": 1}, \"37\": {\"O\": 1}, \"38\": {\"O\": 1}, \"39\": {\"O\": 1}}" n_minim_iter=4 energy=-45150.12630188298 stress="-0.07535010910739481 -7.272369907545171e-13 -4.2793080226076315e-13 -7.272369907545171e-13 -0.07535010910742986 5.318483706372288e-13 -4.2793080226076315e-13 5.318483706372288e-13 -0.0753501091090876" free_energy=-45150.12630188298 pbc="T T T"
In      -4.09386284       2.89479818       5.53488191        0       0.00016622      -0.00011754       0.00020358
In       6.96488784       1.16544432       1.49766437        1      -0.00016622       0.00011754      -0.00020358
In       1.22283784      -0.86467693       5.01393751        2      -0.00016622       0.00011754      -0.00020358
In      -1.43551250      -2.03012124       3.51627314        3       0.00000000      -0.00000000       0.00000000
In      -1.22283784       3.90985880       3.25580094        4       0.00016622      -0.00011754      -0.00020358
In       4.51921216      -2.74441448       5.27440971        5       0.00016622       0.00023507      -0.00000000
In      -1.22283784       1.31582801       5.27440971        6       0.00016622       0.00023507      -0.00000000
In      -1.64818716       6.80465697       1.75813657        7      -0.00016622      -0.00023507      -0.00000000
In       4.09386284       0.15038370       3.77674534        8      -0.00016622       0.00011754       0.00020358
In      -1.43551250       4.06024249      -0.00000000        9       0.00000000      -0.00000000      -0.00000000
In       4.09386284       6.24074743       0.26047220       10      -0.00016622       0.00011754       0.00020358
In      -1.22283784      -2.18050494       6.77207408       11       0.00016622      -0.00011754      -0.00020358
In       4.09386284       2.74441448       1.75813657       12      -0.00016622      -0.00023507       0.00000000
In       1.64818716       4.92491942       2.01860877       13       0.00016622      -0.00011754       0.00020358
In       4.30653750       0.00000000      -0.00000000       14       0.00000000       0.00000000       0.00000000
In       1.43551250       2.03012125       3.51627314       15       0.00000000       0.00000000       0.00000000
O        0.83581437       4.05907446       3.86124836       16      -0.00003167       0.00814891      -0.00533045
O       -2.03521063       3.34452319       5.10293364       17      -0.00003167      -0.00869075      -0.00439194
O       -0.39728307       2.18633351       0.07643074       18      -0.00052142      -0.00834445      -0.00499175
O       -0.83581438      -0.71688733       1.93163573       19       0.00003167      -0.00054185      -0.00972238
O        3.83165024       4.82125713       1.85520499       20      -0.00818316      -0.00234014      -0.00473063
O        1.91039975       2.83409516       1.58666050       21       0.00818316       0.00292678      -0.00439194
O        1.91039975       6.04740446       0.26854448       22       0.00818316      -0.00526692      -0.00033870
O       -2.19372269       5.73614797       3.59270388       23       0.00769342       0.00327308      -0.00499175
O        3.26830806       1.87390899       6.95611555       24       0.00052142       0.00834445       0.00499175
O        5.06474769      -1.67590547       3.43984240       25      -0.00769342      -0.00327308       0.00499175
O        6.13933306       3.18947896       1.66106815       26       0.00052142      -0.00849521       0.00473063
O        3.54832731       2.27342009       3.78481763       27       0.00769342      -0.00595952      -0.00033870
O        0.67730231       4.17115942       6.68757106       28       0.00769342       0.00268644       0.00533045
O        2.19372269      -0.11091692       0.34497522       29      -0.00769342      -0.00268644      -0.00533045
O       -3.26830807       0.87076353       5.37147813       30      -0.00052142       0.00849521      -0.00473063
O        4.90623562       0.71571930       1.92961264       31       0.00003167       0.00869075       0.00439194
O        0.96062525       1.22614733       5.44588578       32      -0.00818316      -0.00292678       0.00439194
O        3.26830806      -1.00314545       5.44790887       33       0.00052142       0.00015075      -0.00972238
O        2.03521062       0.00116803       3.17129792       34       0.00003167      -0.00814891       0.00533045
O        0.96062525      -1.98716197       6.76400180       35      -0.00818316       0.00526692       0.00033870
O       -0.67730231       1.78682240       3.24772866       36      -0.00769342       0.00595952       0.00033870
O       -0.96062525      -0.76101464       5.17734130       37       0.00818316       0.00234014       0.00473063
O       -0.39728307       5.06338795       1.58463741       38      -0.00052142      -0.00015075       0.00972238
O        3.70683937       4.77712983       5.10091056       39      -0.00003167       0.00054185       0.00972238
