40
Lattice="9.609793674689335 7.531926193848903e-10 1.7763568394002505e-14 -3.203264558939895 9.060200363984162 -1.3045751146023576e-09 -3.203264557874737 -4.530100181238888 7.846363679457008" Properties=species:S:1:pos:R:3:spacegroup_kinds:I:1:forces:R:3 spacegroup="P 1" unit_cell=conventional occupancy="_JSON {\"0\": {\"In\": 1}, \"1\": {\"In\": 1}, \"2\": {\"In\": 1}, \"3\": {\"In\": 1}, \"4\": {\"In\": 1}, \"5\": {\"In\": 1}, \"6\": {\"In\": 1}, \"7\": {\"In\": 1}, \"8\": {\"In\": 1}, \"9\": {\"In\": 1}, \"10\": {\"In\": 1}, \"11\": {\"In\": 1}, \"12\": {\"In\": 1}, \"13\": {\"In\": 1}, \"14\": {\"In\": 1}, \"15\": {\"In\": 1}, \"16\": {\"O\": 1}, \"17\": {\"O\": 1}, \"18\": {\"O\": 1}, \"19\": {\"O\": 1}, \"20\": {\"O\": 1}, \"21\": {\"O\": 1}, \"22\": {\"O\": 1}, \"23\": {\"O\": 1}, \"24\": {\"O\": 1}, \"25\": {\"O\": 1}, \"26\": {\"O\": 1}, \"27\": {\"O\": 1}, \"28\": {\"O\": 1}, \"29\": {\"O\": 1}, \"30\": {\"O\": 1}, \"31\": {\"O\": 1}, \"32\": {\"O\": 1}, \"33\": {\"O\": 1}, \"34\": {\"O\": 1}, \"35\": {\"O\": 1}, \"36\": {\"O\": 1}, \"37\": {\"O\": 1}, \"38\": {\"O\": 1}, \"39\": {\"O\": 1}}" n_minim_iter=1 energy=-45144.26127993583 stress="0.10163788096405343 -2.784743450550812e-13 2.3169169387328416e-15 -2.784743450550812e-13 0.10163788096305047 -7.50611288522935e-14 2.3169169387328416e-15 -7.50611288522935e-14 0.10163788096322565" free_energy=-45144.26127993583 pbc="T T T"
In      -4.53502935       3.20675001       6.21529158        0       0.05075708      -0.03589067       0.06216447
In       7.73829391       1.32335018       1.63107210        1      -0.05075708       0.03589067      -0.06216447
In       1.33176479      -0.94169991       5.55425394        2      -0.05075708       0.03589067      -0.06216447
In      -1.60163228      -2.26505009       3.92318184        3      -0.00000000      -0.00000000      -0.00000000
In      -1.33176479       4.33927505       3.59266302        4       0.05075708      -0.03589067      -0.06216447
In       5.07476432      -3.01592487       5.88477276        5       0.05075708       0.07178135       0.00000000
In      -1.33176479       1.51417531       5.88477276        6       0.05075708       0.07178135       0.00000000
In      -1.87149977       7.54602506       1.96159092        7      -0.05075708      -0.07178135       0.00000000
In       4.53502935       0.19082513       4.25370066        8      -0.05075708       0.03589067       0.06216447
In      -1.60163228       4.53010018      -0.00000000        9      -0.00000000       0.00000000      -0.00000000
In       4.53502935       6.98597541       0.33051882       10      -0.05075708       0.03589067       0.06216447
In      -1.33176479      -2.45587522       7.51584486       11       0.05075708      -0.03589067      -0.06216447
In       4.53502935       3.01592488       1.96159092       12      -0.05075708      -0.07178135       0.00000000
In       1.87149976       5.47180010       2.29210974       13       0.05075708      -0.03589067       0.06216447
In       4.80489684       0.00000000      -0.00000000       14       0.00000000       0.00000000       0.00000000
In       1.60163228       2.26505009       3.92318184       15       0.00000000      -0.00000000       0.00000000
O        1.11632506       4.54984745       4.22242006       16       0.08356080       0.03551673      -0.04785165
O       -2.08693949       3.64684941       5.71805201       17       0.08356080      -0.05919911      -0.00683257
O       -0.44201056       2.48370901      -0.11369339       18       0.00552564      -0.00401992      -0.10240573
O       -1.11632507      -0.86350351       2.09410840       19      -0.08356080      -0.02368238      -0.05468422
O        4.13392909       5.32796278       2.20780179       20      -0.08366706      -0.03544160       0.04772151
O        2.27260002       3.01701905       1.79487017       21       0.08366706      -0.05904884      -0.00683257
O        2.27260002       6.84104392       0.41293161       22       0.08366706       0.02360724       0.05455408
O       -2.48900016       6.38397882       3.80948844       23       0.00563190      -0.00386965      -0.10240573
O        3.64527512       2.04639118       7.96005707       24      -0.00552564       0.00401992       0.10240573
O        5.69226472      -1.85387864       4.03687523       25      -0.00563190       0.00386965       0.10240573
O        6.84853967       3.40844323       1.71538005       26      -0.00552564      -0.09069593      -0.04772151
O        3.91752896       2.37217445       4.33611345       27       0.00563190      -0.08675114       0.05455408
O        0.71426440       4.83414728       7.54712545       28       0.00563190       0.09062079       0.04785165
O        2.48900016      -0.30404709       0.29923822       29      -0.00563190      -0.09062079      -0.04785165
O       -3.64527512       1.12165696       6.13098363       30       0.00552564       0.09069593       0.04772151
O        5.29020405       0.88325078       2.12831166       31      -0.08356080       0.05919911       0.00683257
O        0.93066453       1.51308114       6.05149350       32      -0.08366706       0.05904884       0.00683257
O        3.64527512      -0.92473422       6.01729023       33      -0.00552564       0.08667601      -0.05468422
O        2.08693949      -0.01974726       3.62394361       34      -0.08356080      -0.03551673       0.04785165
O        0.93066453      -2.31094373       7.43343206       35      -0.08366706      -0.02360724      -0.05455408
O       -0.71426440       2.15792573       3.51025022       36      -0.00563190       0.08675114      -0.05455408
O       -0.93066454      -0.79786259       5.63856189       37       0.08366706       0.03544160      -0.04772151
O       -0.44201056       5.45483441       1.82907344       38       0.00552564      -0.08667601       0.05468422
O        4.31958962       5.39360369       5.75225528       39       0.08356080       0.02368238       0.05468422
40
Lattice="9.609793674689328 7.531926193848899e-10 1.7763568394002464e-14 -3.2032645589398934 9.060200363984155 -1.3045751146023566e-09 -3.203264557874735 -4.530100181238884 7.846363679457003" Properties=species:S:1:pos:R:3:spacegroup_kinds:I:1:forces:R:3 spacegroup="P 1" unit_cell=conventional occupancy="_JSON {\"0\": {\"In\": 1}, \"1\": {\"In\": 1}, \"2\": {\"In\": 1}, \"3\": {\"In\": 1}, \"4\": {\"In\": 1}, \"5\": {\"In\": 1}, \"6\": {\"In\": 1}, \"7\": {\"In\": 1}, \"8\": {\"In\": 1}, \"9\": {\"In\": 1}, \"10\": {\"In\": 1}, \"11\": {\"In\": 1}, \"12\": {\"In\": 1}, \"13\": {\"In\": 1}, \"14\": {\"In\": 1}, \"15\": {\"In\": 1}, \"16\": {\"O\": 1}, \"17\": {\"O\": 1}, \"18\": {\"O\": 1}, \"19\": {\"O\": 1}, \"20\": {\"O\": 1}, \"21\": {\"O\": 1}, \"22\": {\"O\": 1}, \"23\": {\"O\": 1}, \"24\": {\"O\": 1}, \"25\": {\"O\": 1}, \"26\": {\"O\": 1}, \"27\": {\"O\": 1}, \"28\": {\"O\": 1}, \"29\": {\"O\": 1}, \"30\": {\"O\": 1}, \"31\": {\"O\": 1}, \"32\": {\"O\": 1}, \"33\": {\"O\": 1}, \"34\": {\"O\": 1}, \"35\": {\"O\": 1}, \"36\": {\"O\": 1}, \"37\": {\"O\": 1}, \"38\": {\"O\": 1}, \"39\": {\"O\": 1}}" n_minim_iter=2 energy=-45144.28998358133 stress="0.0970560436389499 -2.2054788691417306e-13 -1.1840190275873556e-13 -2.2054788691417306e-13 0.0970560436382445 -7.918974832021412e-14 -1.1840190275873556e-13 -7.918974832021412e-14 0.09705604363769466" free_energy=-45144.28998358133 pbc="T T T"
In      -4.52645493       3.20068697       6.22579306        0      -0.01848641       0.01307187      -0.02264114
In       7.72971948       1.32941321       1.62057061        1       0.01848641      -0.01307187       0.02264114
In       1.32319037      -0.93563688       5.54375245        2       0.01848641      -0.01307187       0.02264114
In      -1.60163228      -2.26505009       3.92318184        3       0.00000000       0.00000000       0.00000000
In      -1.32319037       4.33321202       3.58216153        4      -0.01848641       0.01307187       0.02264114
In       5.08333875      -3.00379881       5.88477276        5      -0.01848641      -0.02614373      -0.00000000
In      -1.32319037       1.52630138       5.88477276        6      -0.01848641      -0.02614373      -0.00000000
In      -1.88007419       7.53389899       1.96159092        7       0.01848641       0.02614373       0.00000000
In       4.52645492       0.19688817       4.26420214        8       0.01848641      -0.01307187      -0.02264114
In      -1.60163228       4.53010018      -0.00000000        9      -0.00000000      -0.00000000      -0.00000000
In       4.52645492       6.99203844       0.34102030       10       0.01848641      -0.01307187      -0.02264114
In      -1.32319037      -2.46193825       7.50534337       11      -0.01848641       0.01307187       0.02264114
In       4.52645492       3.00379881       1.96159092       12       0.01848641       0.02614373       0.00000000
In       1.88007419       5.46573707       2.30261122       13      -0.01848641       0.01307187      -0.02264114
In       4.80489684       0.00000000      -0.00000000       14       0.00000000      -0.00000000      -0.00000000
In       1.60163228       2.26505009       3.92318184       15      -0.00000000      -0.00000000      -0.00000000
O        1.13044104       4.55584732       4.21433645       16       0.05665123      -0.03482040       0.05733099
O       -2.07282352       3.63684887       5.71689778       17       0.05665123       0.06706029       0.00148985
O       -0.44107711       2.48302992      -0.13099286       18       0.04927981       0.07227267      -0.00753826
O       -1.13044105      -0.86750418       2.08487056       19      -0.05665123       0.03223990       0.05882084
O        4.11979516       5.32197561       2.21586341       20       0.04434130      -0.03659211       0.06635910
O        2.28673395       3.00704389       1.79371594       21      -0.04434130      -0.07576473       0.00148985
O        2.28673395       6.84503190       0.42214747       22      -0.04434130       0.03917261       0.06486925
O       -2.48804876       6.38332512       3.79218898       23      -0.05171273      -0.07055234      -0.00753826
O        3.64434167       2.04707027       7.97735653       24      -0.04927981      -0.07227267       0.00753826
O        5.69131332      -1.85322494       4.05417469       25       0.05171273       0.07055234       0.00753826
O        6.84760622       3.39312191       1.70731842       26      -0.04927981       0.02960801      -0.06635910
O        3.91848036       2.35751953       4.34532931       27      -0.05171273       0.02874785       0.06486925
O        0.71521580       4.84945590       7.55520906       28      -0.05171273       0.04180450      -0.05733099
O        2.48804876      -0.31935572       0.29115461       29       0.05171273      -0.04180450       0.05733099
O       -3.64434167       1.13697828       6.13904525       30       0.04927981      -0.02960801       0.06635910
O        5.27608807       0.89325132       2.12946589       31      -0.05665123      -0.06706029      -0.00148985
O        0.91653060       1.52305630       6.05264773       32       0.04434130       0.07576473      -0.00148985
O        3.64434167      -0.91009199       6.00805240       33      -0.04927981       0.04266466       0.05882084
O        2.07282351      -0.02574713       3.63202722       34      -0.05665123       0.03482040      -0.05733099
O        0.91653060      -2.31493172       7.42421620       35       0.04434130      -0.03917261      -0.06486925
O       -0.71521580       2.17258066       3.50103436       36       0.05171273      -0.02874785      -0.06486925
O       -0.91653061      -0.79187542       5.63050026       37      -0.04434130       0.03659211      -0.06635910
O       -0.44107711       5.44019218       1.83831128       38       0.04927981      -0.04266466      -0.05882084
O        4.33370560       5.39760437       5.76149312       39       0.05665123      -0.03223990      -0.05882084
40
Lattice="9.609793674689321 7.531926193848894e-10 1.776356839400247e-14 -3.2032645589398907 9.060200363984148 -1.3045751146023552e-09 -3.2032645578747325 -4.530100181238881 7.846363679456996" Properties=species:S:1:pos:R:3:spacegroup_kinds:I:1:forces:R:3 spacegroup="P 1" unit_cell=conventional occupancy="_JSON {\"0\": {\"In\": 1}, \"1\": {\"In\": 1}, \"2\": {\"In\": 1}, \"3\": {\"In\": 1}, \"4\": {\"In\": 1}, \"5\": {\"In\": 1}, \"6\": {\"In\": 1}, \"7\": {\"In\": 1}, \"8\": {\"In\": 1}, \"9\": {\"In\": 1}, \"10\": {\"In\": 1}, \"11\": {\"In\": 1}, \"12\": {\"In\": 1}, \"13\": {\"In\": 1}, \"14\": {\"In\": 1}, \"15\": {\"In\": 1}, \"16\": {\"O\": 1}, \"17\": {\"O\": 1}, \"18\": {\"O\": 1}, \"19\": {\"O\": 1}, \"20\": {\"O\": 1}, \"21\": {\"O\": 1}, \"22\": {\"O\": 1}, \"23\": {\"O\": 1}, \"24\": {\"O\": 1}, \"25\": {\"O\": 1}, \"26\": {\"O\": 1}, \"27\": {\"O\": 1}, \"28\": {\"O\": 1}, \"29\": {\"O\": 1}, \"30\": {\"O\": 1}, \"31\": {\"O\": 1}, \"32\": {\"O\": 1}, \"33\": {\"O\": 1}, \"34\": {\"O\": 1}, \"35\": {\"O\": 1}, \"36\": {\"O\": 1}, \"37\": {\"O\": 1}, \"38\": {\"O\": 1}, \"39\": {\"O\": 1}}" n_minim_iter=3 energy=-45144.30548231673 stress="0.0968945538057794 -2.4473414818156296e-13 4.882431057130053e-14 -2.4473414818156296e-13 0.09689455380577676 -5.109136018664972e-13 4.882431057130053e-14 -5.109136018664972e-13 0.09689455380517585" free_energy=-45144.30548231673 pbc="T T T"
In      -4.52893649       3.20244171       6.22275377        0      -0.00003006       0.00002126      -0.00003682
In       7.73220105       1.32765848       1.62360990        1       0.00003006      -0.00002126       0.00003682
In       1.32567193      -0.93739161       5.54679174        2       0.00003006      -0.00002126       0.00003682
In      -1.60163228      -2.26505009       3.92318184        3       0.00000000       0.00000000       0.00000000
In      -1.32567194       4.33496675       3.58520082        4      -0.00003006       0.00002126       0.00003682
In       5.08085718      -3.00730827       5.88477276        5      -0.00003006      -0.00004252       0.00000000
In      -1.32567194       1.52279191       5.88477276        6      -0.00003006      -0.00004252       0.00000000
In      -1.87759263       7.53740846       1.96159092        7       0.00003006       0.00004252      -0.00000000
In       4.52893649       0.19513343       4.26116285        8       0.00003006      -0.00002126      -0.00003682
In      -1.60163228       4.53010018      -0.00000000        9      -0.00000000       0.00000000       0.00000000
In       4.52893649       6.99028371       0.33798101       10       0.00003006      -0.00002126      -0.00003682
In      -1.32567194      -2.46018352       7.50838266       11      -0.00003006       0.00002126       0.00003682
In       4.52893649       3.00730828       1.96159092       12       0.00003006       0.00004252      -0.00000000
In       1.87759262       5.46749180       2.29957193       13      -0.00003006       0.00002126      -0.00003682
In       4.80489684       0.00000000      -0.00000000       14      -0.00000000       0.00000000      -0.00000000
In       1.60163228       2.26505009       3.92318184       15      -0.00000000       0.00000000      -0.00000000
O        1.14002403       4.55067597       4.22293887       16       0.05138632       0.04094907      -0.03053361
O       -2.06324053       3.64688445       5.71707509       17       0.05138632      -0.04691742      -0.02019613
O       -0.43329674       2.49434014      -0.13302329       18       0.01150176      -0.01871478      -0.06904454
O       -1.14002403      -0.86263995       2.09365028       19      -0.05138632      -0.00596835      -0.05072975
O        4.12606247       5.31593910       2.22667356       20      -0.06136294      -0.03389454       0.01831480
O        2.28046664       2.99466377       1.79389325       21       0.06136294      -0.03280835      -0.02019613
O        2.28046664       6.85137552       0.43278031       22       0.06136294      -0.00108619       0.03851093
O       -2.49611868       6.37221964       3.79015855       23       0.02147838      -0.00460571      -0.06904454
O        3.63656129       2.03576005       7.97938696       24      -0.01150176       0.01871478       0.06904454
O        5.69938323      -1.84211945       4.05620512       25      -0.02147838       0.00460571       0.06904454
O        6.83982585       3.39701862       1.69650827       26      -0.01150176      -0.06915172      -0.01831480
O        3.91041044       2.36131387       4.35596215       27       0.02147838      -0.05749148       0.03851093
O        0.70714588       4.85676705       7.54660665       28       0.02147838       0.06209718       0.03053361
O        2.49611868      -0.32666686       0.29975703       29      -0.02147838      -0.06209718      -0.03053361
O       -3.63656129       1.13308157       6.14985540       30       0.01150176       0.06915172       0.01831480
O        5.26650508       0.88321574       2.12928859       31      -0.05138632       0.04691742       0.02019613
O        0.92279791       1.53543642       6.05247043       32      -0.06136294       0.03280835       0.02019613
O        3.63656129      -0.90267848       6.01683212       33      -0.01150176       0.05043694      -0.05072975
O        2.06324053      -0.02057579       3.62342481       34      -0.05138632      -0.04094907       0.03053361
O        0.92279791      -2.32127533       7.41358336       35      -0.06136294       0.00108619      -0.03851093
O       -0.70714588       2.16878632       3.49040152       36      -0.02147838       0.05749148      -0.03851093
O       -0.92279791      -0.78583892       5.61969011       37       0.06136294       0.03389454      -0.01831480
O       -0.43329674       5.43277866       1.82953156       38       0.01150176      -0.05043694       0.05072975
O        4.34328859       5.39274013       5.75271340       39       0.05138632       0.00596835       0.05072975
40
Lattice="9.609793674689307 7.531926193848884e-10 1.7763568394002416e-14 -3.203264558939886 9.060200363984134 -1.304575114602353e-09 -3.2032645578747276 -4.530100181238874 7.846363679456984" Properties=species:S:1:pos:R:3:spacegroup_kinds:I:1:forces:R:3 spacegroup="P 1" unit_cell=conventional occupancy="_JSON {\"0\": {\"In\": 1}, \"1\": {\"In\": 1}, \"2\": {\"In\": 1}, \"3\": {\"In\": 1}, \"4\": {\"In\": 1}, \"5\": {\"In\": 1}, \"6\": {\"In\": 1}, \"7\": {\"In\": 1}, \"8\": {\"In\": 1}, \"9\": {\"In\": 1}, \"10\": {\"In\": 1}, \"11\": {\"In\": 1}, \"12\": {\"In\": 1}, \"13\": {\"In\": 1}, \"14\": {\"In\": 1}, \"15\": {\"In\": 1}, \"16\": {\"O\": 1}, \"17\": {\"O\": 1}, \"18\": {\"O\": 1}, \"19\": {\"O\": 1}, \"20\": {\"O\": 1}, \"21\": {\"O\": 1}, \"22\": {\"O\": 1}, \"23\": {\"O\": 1}, \"24\": {\"O\": 1}, \"25\": {\"O\": 1}, \"26\": {\"O\": 1}, \"27\": {\"O\": 1}, \"28\": {\"O\": 1}, \"29\": {\"O\": 1}, \"30\": {\"O\": 1}, \"31\": {\"O\": 1}, \"32\": {\"O\": 1}, \"33\": {\"O\": 1}, \"34\": {\"O\": 1}, \"35\": {\"O\": 1}, \"36\": {\"O\": 1}, \"37\": {\"O\": 1}, \"38\": {\"O\": 1}, \"39\": {\"O\": 1}}" n_minim_iter=4 energy=-45144.32368206801 stress="0.09026688527280988 1.9466376395197974e-14 -6.361094703665299e-13 1.9466376395197974e-14 0.09026688527365456 -2.8209594214874445e-13 -6.361094703665299e-13 -2.8209594214874445e-13 0.09026688527308623" free_energy=-45144.32368206801 pbc="T T T"
In      -4.52286332       3.19814732       6.23019187        0      -0.06006381       0.04247153      -0.07356285
In       7.72612787       1.33195286       1.61617181        1       0.06006381      -0.04247153       0.07356285
In       1.31959876      -0.93309723       5.53935365        2       0.06006381      -0.04247153       0.07356285
In      -1.60163228      -2.26505009       3.92318184        3      -0.00000000       0.00000000      -0.00000000
In      -1.31959876       4.33067237       3.57776273        4      -0.06006381       0.04247153       0.07356285
In       5.08693036      -2.99871950       5.88477276        5      -0.06006381      -0.08494306       0.00000000
In      -1.31959876       1.53138068       5.88477276        6      -0.06006381      -0.08494306       0.00000000
In      -1.88366580       7.52881969       1.96159092        7       0.06006381       0.08494306      -0.00000000
In       4.52286331       0.19942782       4.26860095        8       0.06006381      -0.04247153      -0.07356285
In      -1.60163228       4.53010018      -0.00000000        9       0.00000000      -0.00000000      -0.00000000
In       4.52286331       6.99457809       0.34541911       10       0.06006381      -0.04247153      -0.07356285
In      -1.31959876      -2.46447790       7.50094457       11      -0.06006381       0.04247153       0.07356285
In       4.52286331       2.99871951       1.96159092       12       0.06006381       0.08494306      -0.00000000
In       1.88366580       5.46319741       2.30701003       13      -0.06006381       0.04247153      -0.07356285
In       4.80489684       0.00000000      -0.00000000       14       0.00000000       0.00000000      -0.00000000
In       1.60163228       2.26505009       3.92318184       15      -0.00000000      -0.00000000       0.00000000
O        1.16990802       4.55176239       4.22448299       16       0.01710911       0.04939895      -0.00986525
O       -2.03335653       3.64767849       5.71536216       17       0.01710911      -0.03324304      -0.03784812
O       -0.42156249       2.50796799      -0.15696503       18       0.02093498      -0.03594833      -0.03316241
O       -1.16990803      -0.86075949       2.09348147       19      -0.01710911       0.01615592      -0.04771337
O        4.11684977       5.30023587       2.25044650       20      -0.03704487      -0.03530224      -0.01455097
O        2.28967934       2.96622419       1.79218032       21       0.03704487      -0.00504961      -0.03784812
O        2.28967934       6.86411187       0.45826618       22       0.03704487      -0.03025263       0.02329716
O       -2.50505573       6.35661387       3.76621681       23       0.04087074      -0.00775491      -0.03316241
O        3.62482704       2.02213220       8.00332870       24      -0.02093498       0.03594833       0.03316241
O        5.70832028      -1.82651368       4.08014686       25      -0.04087074       0.00775491       0.03316241
O        6.82809160       3.38309839       1.67273533       26      -0.02093498      -0.04669366       0.01455097
O        3.90147339       2.34838260       4.38144802       27       0.04087074      -0.02484203       0.02329716
O        0.69820883       4.88530409       7.54506252       28       0.04087074       0.03259694       0.00986525
O        2.50505572      -0.35520390       0.30130115       29      -0.04087074      -0.03259694      -0.00986525
O       -3.62482705       1.14700180       6.17362834       30       0.02093498       0.04669366      -0.01455097
O        5.23662109       0.88242170       2.13100151       31      -0.01710911       0.03324304       0.03784812
O        0.91358521       1.56387600       6.05418335       32      -0.03704487       0.00504961       0.03784812
O        3.62482704      -0.87513039       6.01666331       33      -0.02093498       0.01074532      -0.04771337
O        2.03335653      -0.02166220       3.62188068       34      -0.01710911      -0.04939895       0.00986525
O        0.91358521      -2.33401168       7.38809750       35      -0.03704487       0.03025263      -0.02329716
O       -0.69820884       2.18171759       3.46491566       36      -0.04087074       0.02484203      -0.02329716
O       -0.91358521      -0.77013569       5.59591717       37       0.03704487       0.03530224       0.01455097
O       -0.42156249       5.40523058       1.82970036       38       0.02093498      -0.01074532       0.04771337
O        4.37317258       5.39085967       5.75288220       39       0.01710911      -0.01615592       0.04771337
40
Lattice="9.60979367468925 7.531926193848842e-10 1.776356839400227e-14 -3.203264558939868 9.060200363984078 -1.3045751146023454e-09 -3.20326455787471 -4.530100181238846 7.846363679456941" Properties=species:S:1:pos:R:3:spacegroup_kinds:I:1:forces:R:3 spacegroup="P 1" unit_cell=conventional occupancy="_JSON {\"0\": {\"In\": 1}, \"1\": {\"In\": 1}, \"2\": {\"In\": 1}, \"3\": {\"In\": 1}, \"4\": {\"In\": 1}, \"5\": {\"In\": 1}, \"6\": {\"In\": 1}, \"7\": {\"In\": 1}, \"8\": {\"In\": 1}, \"9\": {\"In\": 1}, \"10\": {\"In\": 1}, \"11\": {\"In\": 1}, \"12\": {\"In\": 1}, \"13\": {\"In\": 1}, \"14\": {\"In\": 1}, \"15\": {\"In\": 1}, \"16\": {\"O\": 1}, \"17\": {\"O\": 1}, \"18\": {\"O\": 1}, \"19\": {\"O\": 1}, \"20\": {\"O\": 1}, \"21\": {\"O\": 1}, \"22\": {\"O\": 1}, \"23\": {\"O\": 1}, \"24\": {\"O\": 1}, \"25\": {\"O\": 1}, \"26\": {\"O\": 1}, \"27\": {\"O\": 1}, \"28\": {\"O\": 1}, \"29\": {\"O\": 1}, \"30\": {\"O\": 1}, \"31\": {\"O\": 1}, \"32\": {\"O\": 1}, \"33\": {\"O\": 1}, \"34\": {\"O\": 1}, \"35\": {\"O\": 1}, \"36\": {\"O\": 1}, \"37\": {\"O\": 1}, \"38\": {\"O\": 1}, \"39\": {\"O\": 1}}" n_minim_iter=5 energy=-45144.39521186433 stress="0.07262135222413425 -9.896920732417633e-14 -2.922369787460444e-14 -9.896920732417633e-14 0.07262135222510951 -1.259364636640373e-13 -2.922369787460444e-14 -1.259364636640373e-13 0.07262135222490296" free_energy=-45144.39521186433 pbc="T T T"
In      -4.55004273       3.21736607       6.19690402        0      -0.00315393       0.00223016      -0.00386275
In       7.75330729       1.31273412       1.64945965        1       0.00315393      -0.00223016       0.00386275
In       1.34677817      -0.95231597       5.57264149        2       0.00315393      -0.00223016       0.00386275
In      -1.60163228      -2.26505009       3.92318184        3      -0.00000000       0.00000000      -0.00000000
In      -1.34677817       4.34989112       3.61105057        4      -0.00315393       0.00223016       0.00386275
In       5.05975094      -3.03715700       5.88477276        5      -0.00315393      -0.00446032      -0.00000000
In      -1.34677817       1.49294318       5.88477276        6      -0.00315393      -0.00446032       0.00000000
In      -1.85648639       7.56725718       1.96159092        7       0.00315393       0.00446032      -0.00000000
In       4.55004273       0.18020907       4.23531310        8       0.00315393      -0.00223016      -0.00386275
In      -1.60163228       4.53010018      -0.00000000        9      -0.00000000      -0.00000000      -0.00000000
In       4.55004273       6.97535934       0.31213126       10       0.00315393      -0.00223016      -0.00386275
In      -1.34677817      -2.44525916       7.53423241       11      -0.00315393       0.00223016       0.00386275
In       4.55004273       3.03715700       1.96159092       12       0.00315393       0.00446032       0.00000000
In       1.85648639       5.48241616       2.27372218       13      -0.00315393       0.00223016      -0.00386275
In       4.80489684       0.00000000      -0.00000000       14       0.00000000       0.00000000       0.00000000
In       1.60163228       2.26505009       3.92318184       15       0.00000000       0.00000000      -0.00000000
O        1.25959523       4.56690218       4.24421226       16       0.02245906       0.10473543      -0.15373562
O       -1.94366933       3.65719464       5.69238608       17       0.02245906      -0.18550667      -0.01383573
O       -0.36842090       2.54332580      -0.22470017       18      -0.06866550      -0.12107188      -0.12544007
O       -1.25959523      -0.83610354       2.09023466       19      -0.02245906      -0.08077124      -0.16757136
O        4.09592595       5.23647302       2.31493483       20      -0.18238372       0.00834838      -0.04213128
O        2.31060316       2.87849423       1.76920424       21       0.18238372       0.04066095      -0.01383573
O        2.31060316       6.88807898       0.54573059       22       0.18238372      -0.03231257      -0.02829555
O       -2.52067753       6.29472557       3.69848167       23       0.09125916       0.10509575      -0.12544007
O        3.57168546       1.98677439       8.07106384       24       0.06866550       0.12107188       0.12544007
O        5.72394208      -1.76462538       4.14788201       25      -0.09125916      -0.10509575       0.12544007
O        6.77495002       3.34211694       1.60824700       26       0.06866550      -0.16917023       0.04213128
O        3.88585159       2.32066639       4.46891243       27       0.09125916      -0.16118216      -0.02829555
O        0.68258703       4.97490859       7.52533325       28       0.09125916       0.05608641       0.15373562
O        2.52067752      -0.44480841       0.32103042       29      -0.09125916      -0.05608641      -0.15373562
O       -3.57168546       1.18798325       6.23811667       30      -0.06866550       0.16917023      -0.04213128
O        5.14693388       0.87290554       2.15397760       31      -0.02245906       0.18550667       0.01383573
O        0.89266139       1.65160596       6.07715944       32      -0.18238372      -0.04066095       0.01383573
O        3.57168546      -0.79879114       6.01341650       33       0.06866550       0.04809835      -0.16757136
O        1.94366933      -0.03680200       3.60215141       34      -0.02245906      -0.10473543       0.15373562
O        0.89266139      -2.35797879       7.30063308       35      -0.18238372       0.03231257       0.02829555
O       -0.68258704       2.20943379       3.37745124       36      -0.09125916       0.16118216       0.02829555
O       -0.89266139      -0.70637284       5.53142884       37       0.18238372      -0.00834838       0.04213128
O       -0.36842090       5.32889132       1.83294717       38      -0.06866550      -0.04809835       0.16757136
O        4.46285979       5.36620373       5.75612901       39       0.02245906       0.08077124       0.16757136
40