40
Lattice="8.28146914271986 6.49078346626197e-10 5.32907051820075e-15 -2.760489714851912 7.80784398512279 -1.1242509145858995e-09 -2.760489713933982 -3.903921991912305 6.76179124065136" Properties=species:S:1:pos:R:3:spacegroup_kinds:I:1:forces:R:3 spacegroup="P 1" unit_cell=conventional occupancy="_JSON {\"0\": {\"In\": 1}, \"1\": {\"In\": 1}, \"2\": {\"In\": 1}, \"3\": {\"In\": 1}, \"4\": {\"In\": 1}, \"5\": {\"In\": 1}, \"6\": {\"In\": 1}, \"7\": {\"In\": 1}, \"8\": {\"In\": 1}, \"9\": {\"In\": 1}, \"10\": {\"In\": 1}, \"11\": {\"In\": 1}, \"12\": {\"In\": 1}, \"13\": {\"In\": 1}, \"14\": {\"In\": 1}, \"15\": {\"In\": 1}, \"16\": {\"O\": 1}, \"17\": {\"O\": 1}, \"18\": {\"O\": 1}, \"19\": {\"O\": 1}, \"20\": {\"O\": 1}, \"21\": {\"O\": 1}, \"22\": {\"O\": 1}, \"23\": {\"O\": 1}, \"24\": {\"O\": 1}, \"25\": {\"O\": 1}, \"26\": {\"O\": 1}, \"27\": {\"O\": 1}, \"28\": {\"O\": 1}, \"29\": {\"O\": 1}, \"30\": {\"O\": 1}, \"31\": {\"O\": 1}, \"32\": {\"O\": 1}, \"33\": {\"O\": 1}, \"34\": {\"O\": 1}, \"35\": {\"O\": 1}, \"36\": {\"O\": 1}, \"37\": {\"O\": 1}, \"38\": {\"O\": 1}, \"39\": {\"O\": 1}}" n_minim_iter=5 energy=-45143.87236195847 stress="-0.14979349302974854 9.365328320829635e-13 4.251510282980438e-15 9.365328320829635e-13 -0.14979349303086384 6.2402714689269706e-15 4.251510282980438e-15 6.2402714689269706e-15 -0.14979349302899445" free_energy=-45143.87236195847 pbc="T T T"
In      -3.82504038       2.70471199       5.45798827        0       0.00487643      -0.00344816       0.00597238
In       6.58553009       1.19921000       1.30380297        1      -0.00487643       0.00344816      -0.00597238
In       1.06455067      -0.75275099       4.68469859        2      -0.00487643       0.00344816      -0.00597238
In      -1.38024486      -1.95196099       3.38089562        3       0.00000000      -0.00000000       0.00000000
In      -1.06455067       3.68069249       2.99425078        4       0.00487643      -0.00344816      -0.00597238
In       4.45642876      -2.48148249       5.07134343        5       0.00487643       0.00689631       0.00000000
In      -1.06455067       1.42243950       5.07134343        6       0.00487643       0.00689631      -0.00000000
In      -1.69593905       6.38540448       1.69044781        7      -0.00487643      -0.00689631       0.00000000
In       3.82504038       0.22322950       3.76754046        8      -0.00487643       0.00344816       0.00597238
In      -1.38024486       3.90392199      -0.00000000        9       0.00000000      -0.00000000      -0.00000000
In       3.82504038       6.07911249       0.38664484       10      -0.00487643       0.00344816       0.00597238
In      -1.06455067      -2.17519050       6.37514640       11       0.00487643      -0.00344816      -0.00597238
In       3.82504038       2.48148249       1.69044781       12      -0.00487643      -0.00689631       0.00000000
In       1.69593904       4.65667299       2.07709265       13       0.00487643      -0.00344816       0.00597238
In       4.14073457       0.00000000      -0.00000000       14      -0.00000000       0.00000000       0.00000000
In       1.38024486       1.95196100       3.38089562       15      -0.00000000       0.00000000      -0.00000000
O        0.85387223       3.88880882       3.86093339       16       0.00466580       0.00180225      -0.00287072
O       -1.90661748       3.35122298       4.84441293       17       0.00466580      -0.00338724      -0.00012544
O       -0.25071438       2.18032267       0.11068052       18       0.00006093      -0.00013111      -0.00576523
O       -0.85387223      -0.56781218       1.94355508       19      -0.00466580      -0.00158499      -0.00299616
O        3.79510249       4.53563561       1.83287456       20      -0.00474879      -0.00174357       0.00276908
O        1.72587694       2.63246287       1.46351731       21       0.00474879      -0.00326988      -0.00012544
O        1.72587694       5.80709473       0.36935724       22       0.00474879       0.00152630       0.00289452
O       -2.13919939       5.36548455       3.49157614       23       0.00014392      -0.00001374      -0.00576523
O        3.01120409       1.72359932       6.65111071       24      -0.00006093       0.00013111       0.00576523
O        4.89968910      -1.46156256       3.27021509       25      -0.00014392       0.00001374       0.00576523
O        5.77169381       3.13797448       1.54802106       26      -0.00006093      -0.00505839      -0.00276908
O        3.38178004       2.29301236       3.75025286       27       0.00014392      -0.00498597       0.00289452
O        0.62129032       4.05326907       6.28175347       28       0.00014392       0.00499971       0.00287072
O        2.13919939      -0.14934707       0.48003777       29      -0.00014392      -0.00499971      -0.00287072
O       -3.01120410       0.76594752       5.21377018       30       0.00006093       0.00505839       0.00276908
O        4.66710719       0.55269901       1.91737830       31      -0.00466580       0.00338724       0.00012544
O        1.03461277       1.27145913       5.29827392       32      -0.00474879       0.00326988       0.00012544
O        3.01120409      -0.95765181       5.32445070       33      -0.00006093       0.00492729      -0.00299616
O        1.90661748       0.01511317       2.90085785       34      -0.00466580      -0.00180225       0.00287072
O        1.03461277      -1.90317273       6.39243400       35      -0.00474879      -0.00152630      -0.00289452
O       -0.62129033       1.61090963       3.01153838       36      -0.00014392       0.00498597      -0.00289452
O       -1.03461278      -0.63171361       4.92891668       37       0.00474879       0.00174357      -0.00276908
O       -0.25071438       4.86157380       1.43734053       38       0.00006093      -0.00492729       0.00299616
O        3.61436194       4.47173418       4.81823615       39       0.00466580       0.00158499       0.00299616
