40
Lattice="8.532574259677434 6.687597142729395e-10 1.021405182655156e-14 -2.8441914205229883 8.044588159771331 -1.1583387582447852e-09 -2.8441914195772293 -4.022294079216897 6.966817710117707" Properties=species:S:1:pos:R:3:spacegroup_kinds:I:1:forces:R:3 spacegroup="P 1" unit_cell=conventional occupancy="_JSON {\"0\": {\"In\": 1}, \"1\": {\"In\": 1}, \"2\": {\"In\": 1}, \"3\": {\"In\": 1}, \"4\": {\"In\": 1}, \"5\": {\"In\": 1}, \"6\": {\"In\": 1}, \"7\": {\"In\": 1}, \"8\": {\"In\": 1}, \"9\": {\"In\": 1}, \"10\": {\"In\": 1}, \"11\": {\"In\": 1}, \"12\": {\"In\": 1}, \"13\": {\"In\": 1}, \"14\": {\"In\": 1}, \"15\": {\"In\": 1}, \"16\": {\"O\": 1}, \"17\": {\"O\": 1}, \"18\": {\"O\": 1}, \"19\": {\"O\": 1}, \"20\": {\"O\": 1}, \"21\": {\"O\": 1}, \"22\": {\"O\": 1}, \"23\": {\"O\": 1}, \"24\": {\"O\": 1}, \"25\": {\"O\": 1}, \"26\": {\"O\": 1}, \"27\": {\"O\": 1}, \"28\": {\"O\": 1}, \"29\": {\"O\": 1}, \"30\": {\"O\": 1}, \"31\": {\"O\": 1}, \"32\": {\"O\": 1}, \"33\": {\"O\": 1}, \"34\": {\"O\": 1}, \"35\": {\"O\": 1}, \"36\": {\"O\": 1}, \"37\": {\"O\": 1}, \"38\": {\"O\": 1}, \"39\": {\"O\": 1}}" n_minim_iter=8 energy=-45148.921882507675 stress="-0.09968645695100312 2.9540483473695584e-13 1.0048568053339986e-12 2.9540483473695584e-13 -0.09968645695011295 7.106574738753765e-13 1.0048568053339986e-12 7.106574738753765e-13 -0.09968645694938438" free_energy=-45148.921882507675 pbc="T T T"
In      -4.03634943       2.85413005       5.50672830        0       0.00351771      -0.00248739       0.00430829
In       6.88054084       1.16816403       1.46008940        1      -0.00351771       0.00248739      -0.00430829
In       1.19215800      -0.84298301       4.94349826        2      -0.00351771       0.00248739      -0.00430829
In      -1.42209571      -2.01114704       3.48340885        3      -0.00000000      -0.00000000      -0.00000000
In      -1.19215801       3.85970357       3.20179383        4       0.00351771      -0.00248739      -0.00430829
In       4.49622483      -2.69153954       5.22511328        5       0.00351771       0.00497479       0.00000000
In      -1.19215801       1.33075454       5.22511328        6       0.00351771       0.00497479      -0.00000000
In      -1.65203342       6.71383362       1.74170442        7      -0.00351771      -0.00497479       0.00000000
In       4.03634942       0.16259051       3.76502388        8      -0.00351771       0.00248739       0.00430829
In      -1.42209571       4.02229408      -0.00000000        9      -0.00000000      -0.00000000      -0.00000000
In       4.03634942       6.19603163       0.28161502       10      -0.00351771       0.00248739       0.00430829
In      -1.19215801      -2.17373755       6.68520268       11       0.00351771      -0.00248739      -0.00430829
In       4.03634942       2.69153954       1.74170442       12      -0.00351771      -0.00497479      -0.00000000
In       1.65203341       4.86527709       2.02331945       13       0.00351771      -0.00248739       0.00430829
In       4.26628713       0.00000000      -0.00000000       14       0.00000000      -0.00000000      -0.00000000
In       1.42209571       2.01114704       3.48340885       15       0.00000000      -0.00000000       0.00000000
O        0.84210505       4.02257176       3.84000191       16      -0.00227378       0.00139130      -0.00492486
O       -2.00208637       3.32540037       5.04657628       17      -0.00227378      -0.00496070       0.00125753
O       -0.37607422       2.17563615       0.07120861       18      -0.00412319      -0.00365297      -0.00100753
O       -0.84210505      -0.69661604       1.91976048       19       0.00227378      -0.00356941      -0.00366733
O        3.80257965       4.76002243       1.84855186       20      -0.00391907       0.00298771      -0.00265980
O        1.88580318       2.79026538       1.56316742       21       0.00391907       0.00379730       0.00125753
O        1.88580318       5.99205113       0.28538443       22       0.00391907      -0.00080960      -0.00391733
O       -2.17656750       5.66279524       3.55461747       23       0.00206965       0.00510504      -0.00100753
O        3.22026563       1.84665794       6.89560909       24       0.00412319       0.00365297       0.00100753
O        5.02075892      -1.64050116       3.41220024       25      -0.00206965      -0.00510504       0.00100753
O        6.06445705       3.16063359       1.63485699       26       0.00412319      -0.00269903       0.00265980
O        3.51181534       2.25813845       3.76879329       27       0.00206965      -0.00342507      -0.00391733
O        0.66762392       4.14594855       6.61022465       28       0.00206965      -0.00167997       0.00492486
O        2.17656750      -0.12365447       0.35659305       29      -0.00206965       0.00167997      -0.00492486
O       -3.22026564       0.86166050       5.33196072       30      -0.00412319       0.00269903      -0.00265980
O        4.84627779       0.69689372       1.92024143       31       0.00227378       0.00496070      -0.00125753
O        0.95838823       1.23202870       5.40365028       32      -0.00391907      -0.00379730      -0.00125753
O        3.22026563      -0.98499744       5.40316933       33       0.00412319      -0.00095394      -0.00366733
O        2.00208637      -0.00027767       3.12681580       34       0.00227378      -0.00139130       0.00492486
O        0.95838823      -1.96975705       6.68143327       35      -0.00391907       0.00080960       0.00391733
O       -0.66762392       1.76415563       3.19802441       36      -0.00206965       0.00342507       0.00391733
O       -0.95838824      -0.73772835       5.11826584       37       0.00391907      -0.00298771       0.00265980
O       -0.37607422       5.00729152       1.56364837       38      -0.00412319       0.00095394       0.00366733
O        3.68629647       4.71891012       5.04705723       39      -0.00227378       0.00356941       0.00366733
