40
Lattice="8.994672341377653 7.049782979606807e-10 1.3322676295501547e-15 -2.9982241144572113 8.480258409283971 -1.2210579214411188e-09 -2.9982241134602234 -4.240129203937006 7.344119213910573" Properties=species:S:1:pos:R:3:spacegroup_kinds:I:1:forces:R:3 spacegroup="P 1" unit_cell=conventional occupancy="_JSON {\"0\": {\"In\": 1}, \"1\": {\"In\": 1}, \"2\": {\"In\": 1}, \"3\": {\"In\": 1}, \"4\": {\"In\": 1}, \"5\": {\"In\": 1}, \"6\": {\"In\": 1}, \"7\": {\"In\": 1}, \"8\": {\"In\": 1}, \"9\": {\"In\": 1}, \"10\": {\"In\": 1}, \"11\": {\"In\": 1}, \"12\": {\"In\": 1}, \"13\": {\"In\": 1}, \"14\": {\"In\": 1}, \"15\": {\"In\": 1}, \"16\": {\"O\": 1}, \"17\": {\"O\": 1}, \"18\": {\"O\": 1}, \"19\": {\"O\": 1}, \"20\": {\"O\": 1}, \"21\": {\"O\": 1}, \"22\": {\"O\": 1}, \"23\": {\"O\": 1}, \"24\": {\"O\": 1}, \"25\": {\"O\": 1}, \"26\": {\"O\": 1}, \"27\": {\"O\": 1}, \"28\": {\"O\": 1}, \"29\": {\"O\": 1}, \"30\": {\"O\": 1}, \"31\": {\"O\": 1}, \"32\": {\"O\": 1}, \"33\": {\"O\": 1}, \"34\": {\"O\": 1}, \"35\": {\"O\": 1}, \"36\": {\"O\": 1}, \"37\": {\"O\": 1}, \"38\": {\"O\": 1}, \"39\": {\"O\": 1}}" n_minim_iter=7 energy=-45151.8233522956 stress="0.012480397920360249 1.30707178158613e-13 -7.182823327194133e-13 1.30707178158613e-13 0.01248039792037291 2.2027045029428754e-13 -7.182823327194133e-13 2.2027045029428754e-13 0.01248039792068114" free_energy=-45151.8233522956 pbc="T T T"
In      -4.29295094       3.03557472       5.75840918        0       0.00563525      -0.00398472       0.00690174
In       7.29117505       1.20455449       1.58571003        1      -0.00563525       0.00398472      -0.00690174
In       1.29472682      -0.91551011       5.25776964        2      -0.00563525       0.00398472      -0.00690174
In      -1.49911206      -2.12006460       3.67205960        3      -0.00000000      -0.00000000      -0.00000000
In      -1.29472682       4.09560702       3.42173983        4       0.00563525      -0.00398472      -0.00690174
In       4.70172141      -2.89105253       5.50808941        5       0.00563525       0.00796945       0.00000000
In      -1.29472682       1.34907668       5.50808941        6       0.00563525       0.00796945       0.00000000
In      -1.70349730       7.13118174       1.83602980        7      -0.00563525      -0.00796945      -0.00000000
In       4.29295093       0.14452219       3.92237938        8      -0.00563525       0.00398472       0.00690174
In      -1.49911206       4.24012921      -0.00000000        9       0.00000000       0.00000000      -0.00000000
In       4.29295093       6.50471600       0.25031977       10      -0.00563525       0.00398472       0.00690174
In      -1.29472682      -2.26458679       7.09379944       11       0.00563525      -0.00398472      -0.00690174
In       4.29295093       2.89105253       1.83602980       12      -0.00563525      -0.00796945      -0.00000000
In       1.70349729       5.15563932       2.08634957       13       0.00563525      -0.00398472       0.00690174
In       4.49733617       0.00000000      -0.00000000       14      -0.00000000      -0.00000000      -0.00000000
In       1.49911206       2.12006460       3.67205960       15       0.00000000      -0.00000000       0.00000000
O        0.89408487       4.24171548       3.98867156       16      -0.00057196       0.00380027      -0.00504211
O       -2.10413924       3.45349777       5.34840967       17      -0.00057196      -0.00626673      -0.00077008
O       -0.44211939       2.27827226       0.03984075       18      -0.00251605      -0.00489205      -0.00315110
O       -0.89408488      -0.78504516       1.99296203       19       0.00057196      -0.00246646      -0.00581219
O        3.95736866       5.04817644       1.95312127       20      -0.00571768       0.00064717      -0.00266109
O        2.03907956       2.95270018       1.67635007       21       0.00571768       0.00262816      -0.00077008
O        2.03907956       6.33560547       0.27677121       22       0.00571768      -0.00198099      -0.00189101
O       -2.29534882       6.01760388       3.71190036       23       0.00377358       0.00400284      -0.00315110
O        3.44034350       1.96185695       7.30427846       24       0.00251605       0.00489205       0.00315110
O        5.29357293      -1.77747467       3.63221885       25      -0.00377358      -0.00400284       0.00315110
O        6.43856761       3.29370384       1.71893833       26       0.00251605      -0.00517496       0.00266109
O        3.70109941       2.32586267       3.94883081       27       0.00377358      -0.00473035      -0.00189101
O        0.70287530       4.37692107       7.02750725       28       0.00377358       0.00072751       0.00504211
O        2.29534881      -0.13679186       0.31661196       29      -0.00377358      -0.00072751      -0.00504211
O       -3.44034350       0.94642537       5.62518088       30      -0.00251605       0.00517496      -0.00266109
O        5.10236335       0.78663144       1.99570954       31       0.00057196       0.00626673       0.00077008
O        0.95914455       1.28742903       5.66776914       32      -0.00571768      -0.00262816       0.00077008
O        3.44034350      -1.01543157       5.66502163       33       0.00251605       0.00028291      -0.00581219
O        2.10413924      -0.00158627       3.35544764       34       0.00057196      -0.00380027       0.00504211
O        0.95914455      -2.09547626       7.06734800       35      -0.00571768       0.00198099       0.00189101
O       -0.70287530       1.91426653       3.39528839       36      -0.00377358       0.00473035       0.00189101
O       -0.95914455      -0.80804723       5.39099793       37       0.00571768      -0.00064717       0.00266109
O       -0.44211939       5.25556078       1.67909757       38      -0.00251605      -0.00028291       0.00581219
O        3.89230899       5.02517437       5.35115718       39      -0.00057196       0.00246646       0.00581219
