40
Lattice="9.13861147306917 7.162577198016606e-10 1.2434497875801753e-14 -3.0462038250316876 8.61596552407644 -1.2406053961910857e-09 -3.0462038240187486 -4.307982761321958 7.461645022808166" Properties=species:S:1:pos:R:3:spacegroup_kinds:I:1:forces:R:3 spacegroup="P 1" unit_cell=conventional occupancy="_JSON {\"0\": {\"In\": 1}, \"1\": {\"In\": 1}, \"2\": {\"In\": 1}, \"3\": {\"In\": 1}, \"4\": {\"In\": 1}, \"5\": {\"In\": 1}, \"6\": {\"In\": 1}, \"7\": {\"In\": 1}, \"8\": {\"In\": 1}, \"9\": {\"In\": 1}, \"10\": {\"In\": 1}, \"11\": {\"In\": 1}, \"12\": {\"In\": 1}, \"13\": {\"In\": 1}, \"14\": {\"In\": 1}, \"15\": {\"In\": 1}, \"16\": {\"O\": 1}, \"17\": {\"O\": 1}, \"18\": {\"O\": 1}, \"19\": {\"O\": 1}, \"20\": {\"O\": 1}, \"21\": {\"O\": 1}, \"22\": {\"O\": 1}, \"23\": {\"O\": 1}, \"24\": {\"O\": 1}, \"25\": {\"O\": 1}, \"26\": {\"O\": 1}, \"27\": {\"O\": 1}, \"28\": {\"O\": 1}, \"29\": {\"O\": 1}, \"30\": {\"O\": 1}, \"31\": {\"O\": 1}, \"32\": {\"O\": 1}, \"33\": {\"O\": 1}, \"34\": {\"O\": 1}, \"35\": {\"O\": 1}, \"36\": {\"O\": 1}, \"37\": {\"O\": 1}, \"38\": {\"O\": 1}, \"39\": {\"O\": 1}}" n_minim_iter=1 energy=-45151.12543987062 stress="0.038960208924608386 -4.514051845212933e-13 -1.0552485808868238e-12 -4.514051845212933e-13 0.03896020892456893 6.624399721162233e-13 -1.0552485808868238e-12 6.624399721162233e-13 0.03896020892360072" free_energy=-45151.12543987062 pbc="T T T"
In      -4.35849923       3.08192436       5.85441796        0       0.04528160      -0.03201893       0.05545841
In       7.40470305       1.22605841       1.60722706        1      -0.04528160       0.03201893      -0.05545841
In       1.31229540      -0.92793298       5.33804957        2      -0.04528160       0.03201893      -0.05545841
In      -1.52310191      -2.15399138       3.73082251        3      -0.00000000       0.00000000      -0.00000000
In      -1.31229540       4.15892005       3.47263832        4       0.04528160      -0.03201893      -0.05545841
In       4.78011224      -2.93286164       5.59623376        5       0.04528160       0.06403785       0.00000000
In      -1.31229540       1.37512112       5.59623376        6       0.04528160       0.06403785       0.00000000
In      -1.73390842       7.24084441       1.86541125        7      -0.04528160      -0.06403785       0.00000000
In       4.35849923       0.14906271       3.98900670        8      -0.04528160       0.03201893       0.05545841
In      -1.52310191       4.30798276      -0.00000000        9       0.00000000      -0.00000000      -0.00000000
In       4.35849922       6.61103686       0.25818419       10      -0.04528160       0.03201893       0.05545841
In      -1.31229540      -2.30305409       7.20346083       11       0.04528160      -0.03201893      -0.05545841
In       4.35849923       2.93286165       1.86541125       12      -0.04528160      -0.06403785       0.00000000
In       1.73390842       5.23591574       2.12359544       13       0.04528160      -0.03201893       0.05545841
In       4.56930573       0.00000000      -0.00000000       14       0.00000000       0.00000000       0.00000000
In       1.52310191       2.15399138       3.73082251       15      -0.00000000       0.00000000      -0.00000000
O        0.91946078       4.31088311       4.04395533       16       0.01801241      -0.00333529      -0.05951950
O       -2.12674304       3.50071788       5.43715558       17       0.01801241      -0.04987776       0.03264819
O       -0.45187524       2.31640749       0.02679631       18      -0.04416560      -0.00591126      -0.04350401
O       -0.91946079      -0.80436454       2.01946589       19      -0.01801241      -0.05321305      -0.02687131
O        4.00942281       5.12781817       1.99266957       20      -0.05302934       0.02809599       0.01663270
O        2.08298484       2.99219799       1.70633307       21       0.05302934      -0.00035634       0.03264819
O        2.08298484       6.44360294       0.28633650       22       0.05302934       0.02845234      -0.01601549
O       -2.33455501       6.11587037       3.75761882       23      -0.00914867       0.04361015      -0.04350401
O        3.49807906       1.99157527       7.43484870       24       0.04416560       0.00591126       0.04350401
O        5.38075883      -1.80788761       3.70402619       25       0.00914867      -0.04361015       0.04350401
O        6.54428288       3.33540142       1.73815293       26       0.04416560      -0.04063121      -0.01663270
O        3.75785264       2.35024956       4.01715901       27      -0.00914867      -0.05948065      -0.01601549
O        0.71164882       4.45782836       7.14851220       28      -0.00914867       0.01587050       0.05951950
O        2.33455501      -0.14984559       0.31313282       29       0.00914867      -0.01587050      -0.05951950
O       -3.49807906       0.97258135       5.72349209       30      -0.04416560       0.04063121       0.01663270
O        5.17294686       0.80726489       2.02448943       31      -0.01801241       0.04987776      -0.03264819
O        0.96321898       1.31578478       5.75531195       32      -0.05302934       0.00035634      -0.03264819
O        3.49807906      -1.01899392       5.75028840       33       0.04416560       0.03471995      -0.02687131
O        2.12674304      -0.00290034       3.41768969       34      -0.01801241       0.00333529       0.05951950
O        0.96321898      -2.13562017       7.17530852       35      -0.05302934      -0.02845234       0.01601549
O       -0.71164882       1.95773321       3.44448601       36       0.00914867       0.05948065       0.01601549
O       -0.96321899      -0.81983540       5.46897544       37       0.05302934      -0.02809599      -0.01663270
O       -0.45187524       5.32697669       1.71135662       38      -0.04416560      -0.03471995       0.02687131
O        3.96566461       5.11234731       5.44217913       39       0.01801241       0.05321305       0.02687131
40
Lattice="9.13861147306917 7.162577198016607e-10 1.2434497875801767e-14 -3.046203825031688 8.61596552407644 -1.240605396191086e-09 -3.046203824018749 -4.307982761321958 7.461645022808168" Properties=species:S:1:pos:R:3:spacegroup_kinds:I:1:forces:R:3 spacegroup="P 1" unit_cell=conventional occupancy="_JSON {\"0\": {\"In\": 1}, \"1\": {\"In\": 1}, \"2\": {\"In\": 1}, \"3\": {\"In\": 1}, \"4\": {\"In\": 1}, \"5\": {\"In\": 1}, \"6\": {\"In\": 1}, \"7\": {\"In\": 1}, \"8\": {\"In\": 1}, \"9\": {\"In\": 1}, \"10\": {\"In\": 1}, \"11\": {\"In\": 1}, \"12\": {\"In\": 1}, \"13\": {\"In\": 1}, \"14\": {\"In\": 1}, \"15\": {\"In\": 1}, \"16\": {\"O\": 1}, \"17\": {\"O\": 1}, \"18\": {\"O\": 1}, \"19\": {\"O\": 1}, \"20\": {\"O\": 1}, \"21\": {\"O\": 1}, \"22\": {\"O\": 1}, \"23\": {\"O\": 1}, \"24\": {\"O\": 1}, \"25\": {\"O\": 1}, \"26\": {\"O\": 1}, \"27\": {\"O\": 1}, \"28\": {\"O\": 1}, \"29\": {\"O\": 1}, \"30\": {\"O\": 1}, \"31\": {\"O\": 1}, \"32\": {\"O\": 1}, \"33\": {\"O\": 1}, \"34\": {\"O\": 1}, \"35\": {\"O\": 1}, \"36\": {\"O\": 1}, \"37\": {\"O\": 1}, \"38\": {\"O\": 1}, \"39\": {\"O\": 1}}" n_minim_iter=2 energy=-45151.13290495445 stress="0.03814674078262215 7.443196563527137e-13 -3.207277436932969e-13 7.443196563527137e-13 0.038146740783915875 3.767902398180264e-13 -3.207277436932969e-13 3.767902398180264e-13 0.03814674078270568" free_energy=-45151.13290495445 pbc="T T T"
In      -4.35526483       3.07963729       5.85837927        0       0.01316546      -0.00930938       0.01612432
In       7.40146865       1.22834547       1.60326575        1      -0.01316546       0.00930938      -0.01612432
In       1.30906100      -0.92564591       5.33408826        2      -0.01316546       0.00930938      -0.01612432
In      -1.52310191      -2.15399138       3.73082251        3       0.00000000      -0.00000000      -0.00000000
In      -1.30906100       4.15663299       3.46867700        4       0.01316546      -0.00930938      -0.01612432
In       4.78334664      -2.92828751       5.59623376        5       0.01316546       0.01861877       0.00000000
In      -1.30906100       1.37969525       5.59623376        6       0.01316546       0.01861877      -0.00000000
In      -1.73714282       7.23627028       1.86541125        7      -0.01316546      -0.01861877       0.00000000
In       4.35526483       0.15134978       3.99296802        8      -0.01316546       0.00930938       0.01612432
In      -1.52310191       4.30798276      -0.00000000        9       0.00000000      -0.00000000      -0.00000000
In       4.35526482       6.61332392       0.26214550       10      -0.01316546       0.00930938       0.01612432
In      -1.30906100      -2.30534116       7.19949951       11       0.01316546      -0.00930938      -0.01612432
In       4.35526483       2.92828752       1.86541125       12      -0.01316546      -0.01861877       0.00000000
In       1.73714282       5.23362868       2.12755676       13       0.01316546      -0.00930938       0.01612432
In       4.56930573       0.00000000      -0.00000000       14      -0.00000000       0.00000000      -0.00000000
In       1.52310191       2.15399138       3.73082251       15       0.00000000      -0.00000000      -0.00000000
O        0.92074738       4.31064487       4.03970393       16       0.02262596       0.00865003      -0.00807831
O       -2.12545644       3.49715518       5.43948760       17       0.02262596      -0.01132104      -0.00345199
O       -0.45502992       2.31598526       0.02368888       18       0.00502373       0.00112562      -0.02501022
O       -0.92074739      -0.80816547       2.01754651       19      -0.02262596      -0.00267101      -0.01153030
O        4.00563500       5.12982502       1.99385762       20      -0.01821557      -0.01176865       0.01347992
O        2.08677265       2.99217254       1.70866509       21       0.01821557      -0.01755828      -0.00345199
O        2.08677265       6.44563525       0.28519253       22       0.01821557       0.00578963       0.01693191
O       -2.33520849       6.11898538       3.75451139       23       0.00061334      -0.00511163      -0.02501022
O        3.50123374       1.99199751       7.43795613       24      -0.00502373      -0.00112562       0.02501022
O        5.38141231      -1.81100262       3.70713362       25      -0.00061334       0.00511163       0.02501022
O        6.54743757       3.33249919       1.73696488       26      -0.00502373      -0.02109668      -0.01347992
O        3.75719916       2.34600094       4.01601505       27       0.00061334      -0.01910368       0.01693191
O        0.71099534       4.45896197       7.15276359       28       0.00061334       0.02421530       0.00807831
O        2.33520848      -0.15097920       0.30888142       29      -0.00061334      -0.02421530      -0.00807831
O       -3.50123375       0.97548358       5.72468014       30       0.00502373       0.02109668       0.01347992
O        5.17166026       0.81082759       2.02215742       31      -0.02262596       0.01132104       0.00345199
O        0.95943117       1.31581023       5.75297993       32      -0.01821557       0.01755828       0.00345199
O        3.50123374      -1.01651393       5.74836902       33      -0.00502373       0.02222230      -0.01153030
O        2.12545644      -0.00266211       3.42194108       34      -0.02262596      -0.00865003       0.00807831
O        0.95943117      -2.13765248       7.17645248       35      -0.01821557      -0.00578963      -0.01693191
O       -0.71099534       1.96198182       3.44562997       36      -0.00061334       0.01910368      -0.01693191
O       -0.95943118      -0.82184226       5.46778739       37       0.01821557       0.01176865      -0.01347992
O       -0.45502992       5.32449669       1.71327600       38       0.00502373      -0.02222230       0.01153030
O        3.96695121       5.11614824       5.44409851       39       0.02262596       0.00267101       0.01153030
40
Lattice="9.138611473069169 7.162577198016608e-10 1.2434497875801769e-14 -3.0462038250316885 8.615965524076438 -1.2406053961910859e-09 -3.0462038240187495 -4.3079827613219575 7.4616450228081685" Properties=species:S:1:pos:R:3:spacegroup_kinds:I:1:forces:R:3 spacegroup="P 1" unit_cell=conventional occupancy="_JSON {\"0\": {\"In\": 1}, \"1\": {\"In\": 1}, \"2\": {\"In\": 1}, \"3\": {\"In\": 1}, \"4\": {\"In\": 1}, \"5\": {\"In\": 1}, \"6\": {\"In\": 1}, \"7\": {\"In\": 1}, \"8\": {\"In\": 1}, \"9\": {\"In\": 1}, \"10\": {\"In\": 1}, \"11\": {\"In\": 1}, \"12\": {\"In\": 1}, \"13\": {\"In\": 1}, \"14\": {\"In\": 1}, \"15\": {\"In\": 1}, \"16\": {\"O\": 1}, \"17\": {\"O\": 1}, \"18\": {\"O\": 1}, \"19\": {\"O\": 1}, \"20\": {\"O\": 1}, \"21\": {\"O\": 1}, \"22\": {\"O\": 1}, \"23\": {\"O\": 1}, \"24\": {\"O\": 1}, \"25\": {\"O\": 1}, \"26\": {\"O\": 1}, \"27\": {\"O\": 1}, \"28\": {\"O\": 1}, \"29\": {\"O\": 1}, \"30\": {\"O\": 1}, \"31\": {\"O\": 1}, \"32\": {\"O\": 1}, \"33\": {\"O\": 1}, \"34\": {\"O\": 1}, \"35\": {\"O\": 1}, \"36\": {\"O\": 1}, \"37\": {\"O\": 1}, \"38\": {\"O\": 1}, \"39\": {\"O\": 1}}" n_minim_iter=3 energy=-45151.133687293244 stress="0.037833481056909965 4.1075276485726807e-13 5.100338850696306e-13 4.1075276485726807e-13 0.03783348105653782 5.817254731872413e-13 5.100338850696306e-13 5.817254731872413e-13 0.03783348105580642" free_energy=-45151.133687293244 pbc="T T T"
In      -4.35406252       3.07878714       5.85985179        0       0.00225011      -0.00159107       0.00275581
In       7.40026634       1.22919563       1.60179323        1      -0.00225011       0.00159107      -0.00275581
In       1.30785870      -0.92479575       5.33261574        2      -0.00225011       0.00159107      -0.00275581
In      -1.52310191      -2.15399138       3.73082251        3       0.00000000      -0.00000000      -0.00000000
In      -1.30785870       4.15578283       3.46720448        4       0.00225011      -0.00159107      -0.00275581
In       4.78454895      -2.92658720       5.59623376        5       0.00225011       0.00318213       0.00000000
In      -1.30785870       1.38139557       5.59623376        6       0.00225011       0.00318213      -0.00000000
In      -1.73834513       7.23456996       1.86541125        7      -0.00225011      -0.00318213      -0.00000000
In       4.35406252       0.15219994       3.99444053        8      -0.00225011       0.00159107       0.00275581
In      -1.52310191       4.30798276      -0.00000000        9       0.00000000       0.00000000       0.00000000
In       4.35406252       6.61417408       0.26361802       10      -0.00225011       0.00159107       0.00275581
In      -1.30785870      -2.30619132       7.19802700       11       0.00225011      -0.00159107      -0.00275581
In       4.35406252       2.92658720       1.86541125       12      -0.00225011      -0.00318213      -0.00000000
In       1.73834512       5.23277852       2.12902928       13       0.00225011      -0.00159107       0.00275581
In       4.56930573       0.00000000      -0.00000000       14      -0.00000000      -0.00000000      -0.00000000
In       1.52310191       2.15399138       3.73082251       15      -0.00000000      -0.00000000       0.00000000
O        0.92155784       4.31074009       4.03829985       16       0.02305544       0.01022026       0.00912991
O       -2.12464599       3.49589160       5.44010718       17       0.02305544       0.00279660      -0.01341596
O       -0.45586132       2.31588264       0.02229762       18       0.01995756       0.00498713      -0.01721007
O       -0.92155784      -0.80933384       2.01676201       19      -0.02305544       0.01301686      -0.00428605
O        4.00417353       5.13019014       1.99446438       20      -0.00504849      -0.02295310       0.01292401
O        2.08823411       2.99182963       1.70928467       21       0.00504849      -0.02266907      -0.01341596
O        2.08823411       6.44634328       0.28517971       22       0.00504849      -0.00028403       0.02633998
O       -2.33538887       6.11980343       3.75312014       23       0.00195061      -0.02047855      -0.01721007
O        3.50206514       1.99210012       7.43934739       24      -0.01995756      -0.00498713       0.01721007
O        5.38159269      -1.81182067       3.70852488       25      -0.00195061       0.02047855       0.01721007
O        6.54826896       3.33124302       1.73635812       26      -0.01995756      -0.01241079      -0.01292401
O        3.75701878       2.34438705       4.01600222       27       0.00195061      -0.00466508       0.02633998
O        0.71081496       4.45975781       7.15416768       28       0.00195061       0.02514363      -0.00912991
O        2.33538886      -0.15177504       0.30747734       29      -0.00195061      -0.02514363       0.00912991
O       -3.50206514       0.97673975       5.72528689       30       0.01995756       0.01241079       0.01292401
O        5.17084981       0.81209116       2.02153784       31      -0.02305544      -0.00279660       0.01341596
O        0.95796971       1.31615314       5.75236035       32      -0.00504849       0.02266907       0.01341596
O        3.50206514      -1.01536037       5.74758452       33      -0.01995756       0.01739792      -0.00428605
O        2.12464598      -0.00275732       3.42334517       34      -0.02305544      -0.01022026      -0.00912991
O        0.95796971      -2.13836051       7.17646530       35      -0.00504849       0.00028403      -0.02633998
O       -0.71081496       1.96359571       3.44564279       36      -0.00195061       0.00466508      -0.02633998
O       -0.95796971      -0.82220738       5.46718063       37       0.00504849       0.02295310      -0.01292401
O       -0.45586132       5.32334314       1.71406049       38       0.01995756      -0.01739792       0.00428605
O        3.96776166       5.11731660       5.44488301       39       0.02305544      -0.01301686       0.00428605
40
Lattice="9.138611473069176 7.162577198016615e-10 1.243449787580177e-14 -3.046203825031691 8.615965524076444 -1.2406053961910867e-09 -3.046203824018752 -4.30798276132196 7.461645022808175" Properties=species:S:1:pos:R:3:spacegroup_kinds:I:1:forces:R:3 spacegroup="P 1" unit_cell=conventional occupancy="_JSON {\"0\": {\"In\": 1}, \"1\": {\"In\": 1}, \"2\": {\"In\": 1}, \"3\": {\"In\": 1}, \"4\": {\"In\": 1}, \"5\": {\"In\": 1}, \"6\": {\"In\": 1}, \"7\": {\"In\": 1}, \"8\": {\"In\": 1}, \"9\": {\"In\": 1}, \"10\": {\"In\": 1}, \"11\": {\"In\": 1}, \"12\": {\"In\": 1}, \"13\": {\"In\": 1}, \"14\": {\"In\": 1}, \"15\": {\"In\": 1}, \"16\": {\"O\": 1}, \"17\": {\"O\": 1}, \"18\": {\"O\": 1}, \"19\": {\"O\": 1}, \"20\": {\"O\": 1}, \"21\": {\"O\": 1}, \"22\": {\"O\": 1}, \"23\": {\"O\": 1}, \"24\": {\"O\": 1}, \"25\": {\"O\": 1}, \"26\": {\"O\": 1}, \"27\": {\"O\": 1}, \"28\": {\"O\": 1}, \"29\": {\"O\": 1}, \"30\": {\"O\": 1}, \"31\": {\"O\": 1}, \"32\": {\"O\": 1}, \"33\": {\"O\": 1}, \"34\": {\"O\": 1}, \"35\": {\"O\": 1}, \"36\": {\"O\": 1}, \"37\": {\"O\": 1}, \"38\": {\"O\": 1}, \"39\": {\"O\": 1}}" n_minim_iter=4 energy=-45151.13447157195 stress="0.03743585493570406 -8.700094388922916e-14 -4.1092434907056895e-13 -8.700094388922916e-14 0.03743585493544785 2.0063013254604576e-13 -4.1092434907056895e-13 2.0063013254604576e-13 0.037435854935473155" free_energy=-45151.13447157195 pbc="T T T"
In      -4.35233389       3.07756481       5.86196893        0      -0.00906894       0.00641271      -0.01110714
In       7.39853771       1.23041796       1.59967609        1       0.00906894      -0.00641271       0.01110714
In       1.30613006      -0.92357342       5.33049860        2       0.00906894      -0.00641271       0.01110714
In      -1.52310191      -2.15399138       3.73082251        3       0.00000000      -0.00000000       0.00000000
In      -1.30613006       4.15456050       3.46508735        4      -0.00906894       0.00641271       0.01110714
In       4.78627759      -2.92414253       5.59623376        5      -0.00906894      -0.01282542       0.00000000
In      -1.30613006       1.38384023       5.59623376        6      -0.00906894      -0.01282542       0.00000000
In      -1.74007377       7.23212530       1.86541125        7       0.00906894       0.01282542       0.00000000
In       4.35233388       0.15342227       3.99655767        8       0.00906894      -0.00641271      -0.01110714
In      -1.52310191       4.30798276      -0.00000000        9      -0.00000000      -0.00000000      -0.00000000
In       4.35233388       6.61539641       0.26573516       10       0.00906894      -0.00641271      -0.01110714
In      -1.30613006      -2.30741365       7.19590986       11      -0.00906894       0.00641271       0.01110714
In       4.35233388       2.92414254       1.86541125       12       0.00906894       0.01282542       0.00000000
In       1.74007376       5.23155619       2.13114641       13      -0.00906894       0.00641271      -0.01110714
In       4.56930573       0.00000000      -0.00000000       14       0.00000000      -0.00000000       0.00000000
In       1.52310191       2.15399138       3.73082251       15      -0.00000000      -0.00000000       0.00000000
O        0.92425310       4.31158154       4.03711787       16       0.01872963       0.00239472       0.02516033
O       -2.12195072       3.49444725       5.43996945       17       0.01872963       0.02059212      -0.01465405
O       -0.45553132       2.31611079       0.01926305       18       0.02791541       0.01409679      -0.00340381
O       -0.92425311      -0.80993674       2.01544230       19      -0.01872963       0.02298684       0.01050628
O        4.00191336       5.12904104       1.99617925       20       0.01317123      -0.02495203       0.01391009
O        2.09049428       2.98976996       1.70914694       21      -0.01317123      -0.02452251      -0.01465405
O        2.09049428       6.44725384       0.28703230       22      -0.01317123      -0.00042953       0.02856414
O       -2.33549396       6.11941626       3.75008556       23      -0.00398545      -0.03101784      -0.00340381
O        3.50173514       1.99187198       7.44238196       24      -0.02791541      -0.01409679       0.00340381
O        5.38169778      -1.81143349       3.71155945       25       0.00398545       0.03101784       0.00340381
O        6.54793896       3.32872907       1.73464326       26      -0.02791541       0.00410061      -0.01391009
O        3.75691369       2.34195262       4.01785481       27      -0.00398545       0.01256113       0.02856414
O        0.71070986       4.46257941       7.15534966       28      -0.00398545       0.01845670      -0.02516033
O        2.33549396      -0.15459665       0.30629536       29       0.00398545      -0.01845670       0.02516033
O       -3.50173514       0.97925370       5.72700176       30       0.02791541      -0.00410061       0.01391009
O        5.16815454       0.81353552       2.02167556       31      -0.01872963      -0.02059212       0.01465405
O        0.95570954       1.31821281       5.75249807       32       0.01317123       0.02452251       0.01465405
O        3.50173514      -1.01261828       5.74626481       33      -0.02791541       0.00999618       0.01050628
O        2.12195072      -0.00359877       3.42452715       34      -0.01872963      -0.00239472      -0.02516033
O        0.95570954      -2.13927107       7.17461272       35       0.01317123       0.00042953      -0.02856414
O       -0.71070987       1.96603015       3.44379020       36       0.00398545      -0.01256113      -0.02856414
O       -0.95570954      -0.82105827       5.46546577       37      -0.01317123       0.02495203      -0.01391009
O       -0.45553132       5.32060105       1.71538020       38       0.02791541      -0.00999618      -0.01050628
O        3.97045693       5.11791951       5.44620271       39       0.01872963      -0.02298684      -0.01050628
40
Lattice="9.138611473069183 7.162577198016623e-10 1.2434497875801774e-14 -3.0462038250316947 8.61596552407645 -1.2406053961910875e-09 -3.0462038240187557 -4.307982761321964 7.461645022808181" Properties=species:S:1:pos:R:3:spacegroup_kinds:I:1:forces:R:3 spacegroup="P 1" unit_cell=conventional occupancy="_JSON {\"0\": {\"In\": 1}, \"1\": {\"In\": 1}, \"2\": {\"In\": 1}, \"3\": {\"In\": 1}, \"4\": {\"In\": 1}, \"5\": {\"In\": 1}, \"6\": {\"In\": 1}, \"7\": {\"In\": 1}, \"8\": {\"In\": 1}, \"9\": {\"In\": 1}, \"10\": {\"In\": 1}, \"11\": {\"In\": 1}, \"12\": {\"In\": 1}, \"13\": {\"In\": 1}, \"14\": {\"In\": 1}, \"15\": {\"In\": 1}, \"16\": {\"O\": 1}, \"17\": {\"O\": 1}, \"18\": {\"O\": 1}, \"19\": {\"O\": 1}, \"20\": {\"O\": 1}, \"21\": {\"O\": 1}, \"22\": {\"O\": 1}, \"23\": {\"O\": 1}, \"24\": {\"O\": 1}, \"25\": {\"O\": 1}, \"26\": {\"O\": 1}, \"27\": {\"O\": 1}, \"28\": {\"O\": 1}, \"29\": {\"O\": 1}, \"30\": {\"O\": 1}, \"31\": {\"O\": 1}, \"32\": {\"O\": 1}, \"33\": {\"O\": 1}, \"34\": {\"O\": 1}, \"35\": {\"O\": 1}, \"36\": {\"O\": 1}, \"37\": {\"O\": 1}, \"38\": {\"O\": 1}, \"39\": {\"O\": 1}}" n_minim_iter=5 energy=-45151.136132590815 stress="0.03759024014308526 -4.004841677748771e-13 -5.19903378783633e-13 -4.004841677748771e-13 0.037590240142925634 -5.058810935811745e-13 -5.19903378783633e-13 -5.058810935811745e-13 0.03759024014367775" free_energy=-45151.136132590815 pbc="T T T"
In      -4.35222225       3.07748587       5.86210565        0       0.00236783      -0.00167431       0.00289999
In       7.39842607       1.23049690       1.59953937        1      -0.00236783       0.00167431      -0.00289999
In       1.30601842      -0.92349448       5.33036188        2      -0.00236783       0.00167431      -0.00289999
In      -1.52310191      -2.15399138       3.73082251        3      -0.00000000       0.00000000       0.00000000
In      -1.30601843       4.15448156       3.46495062        4       0.00236783      -0.00167431      -0.00289999
In       4.78638922      -2.92398466       5.59623376        5       0.00236783       0.00334862      -0.00000000
In      -1.30601843       1.38399810       5.59623376        6       0.00236783       0.00334862       0.00000000
In      -1.74018540       7.23196742       1.86541125        7      -0.00236783      -0.00334862       0.00000000
In       4.35222225       0.15350121       3.99669440        8      -0.00236783       0.00167431       0.00289999
In      -1.52310191       4.30798276      -0.00000000        9      -0.00000000       0.00000000      -0.00000000
In       4.35222225       6.61547535       0.26587188       10      -0.00236783       0.00167431       0.00289999
In      -1.30601843      -2.30749258       7.19577313       11       0.00236783      -0.00167431      -0.00289999
In       4.35222225       2.92398466       1.86541125       12      -0.00236783      -0.00334862      -0.00000000
In       1.74018540       5.23147725       2.13128314       13       0.00236783      -0.00167431       0.00289999
In       4.56930573       0.00000000      -0.00000000       14      -0.00000000      -0.00000000      -0.00000000
In       1.52310191       2.15399138       3.73082251       15       0.00000000       0.00000000      -0.00000000
O        0.92854608       4.31314350       4.03933676       16       0.00577922      -0.01941387       0.00228082
O       -2.11765774       3.49558788       5.43750731       17       0.00577922       0.01168218       0.01567250
O       -0.45155229       2.31747342       0.01641639       18      -0.00536310       0.01956099       0.00202599
O       -0.92854609      -0.80723415       2.01519905       19      -0.00577922      -0.00773169       0.01795331
O        4.00155777       5.12469492       1.99878265       20       0.00908766       0.00890140       0.01592732
O        2.09084987       2.98534229       1.70668480       21      -0.00908766      -0.00934276       0.01567250
O        2.09084987       6.44733540       0.29209785       22      -0.00908766       0.01824416       0.00025482
O       -2.33545233       6.11521059       3.74723891       23      -0.02022998      -0.00146395       0.00202599
O        3.49775611       1.99050934       7.44522862       24       0.00536310      -0.01956099      -0.00202599
O        5.38165615      -1.80722782       3.71440611       25       0.02022998       0.00146395      -0.00202599
O        6.54395994       3.32694511       1.73203985       26       0.00536310       0.01153506      -0.01592732
O        3.75695532       2.34159018       4.02292036       27      -0.02022998       0.00248654       0.00025482
O        0.71075150       4.46714753       7.15313077       28      -0.02022998      -0.00102259      -0.00228081
O        2.33545232      -0.15916476       0.30851425       29       0.02022998       0.00102259       0.00228082
O       -3.49775612       0.98103766       5.72960517       30      -0.00536310      -0.01153506       0.01592732
O        5.16386156       0.81239488       2.02413770       31      -0.00577922      -0.01168218      -0.01567250
O        0.95535395       1.32264048       5.75496021       32       0.00908766       0.00934276      -0.01567250
O        3.49775611      -1.00947169       5.74602156       33       0.00536310       0.00802593       0.01795331
O        2.11765774      -0.00516073       3.42230826       34      -0.00577922       0.01941387      -0.00228082
O        0.95535395      -2.13935263       7.16954717       35       0.00908766      -0.01824416      -0.00025482
O       -0.71075150       1.96639259       3.43872466       36       0.02022998      -0.00248654      -0.00025482
O       -0.95535395      -0.81671216       5.46286236       37      -0.00908766      -0.00890140      -0.01592732
O       -0.45155229       5.31745445       1.71562345       38      -0.00536310      -0.00802593      -0.01795331
O        3.97474991       5.11521691       5.44644596       39       0.00577922       0.00773169      -0.01795331
40