40
Lattice="9.138611473069185 7.162577198016625e-10 1.2434497875801778e-14 -3.0462038250316956 8.615965524076454 -1.2406053961910877e-09 -3.0462038240187566 -4.3079827613219654 7.461645022808183" Properties=species:S:1:pos:R:3:spacegroup_kinds:I:1:forces:R:3 spacegroup="P 1" unit_cell=conventional occupancy="_JSON {\"0\": {\"In\": 1}, \"1\": {\"In\": 1}, \"2\": {\"In\": 1}, \"3\": {\"In\": 1}, \"4\": {\"In\": 1}, \"5\": {\"In\": 1}, \"6\": {\"In\": 1}, \"7\": {\"In\": 1}, \"8\": {\"In\": 1}, \"9\": {\"In\": 1}, \"10\": {\"In\": 1}, \"11\": {\"In\": 1}, \"12\": {\"In\": 1}, \"13\": {\"In\": 1}, \"14\": {\"In\": 1}, \"15\": {\"In\": 1}, \"16\": {\"O\": 1}, \"17\": {\"O\": 1}, \"18\": {\"O\": 1}, \"19\": {\"O\": 1}, \"20\": {\"O\": 1}, \"21\": {\"O\": 1}, \"22\": {\"O\": 1}, \"23\": {\"O\": 1}, \"24\": {\"O\": 1}, \"25\": {\"O\": 1}, \"26\": {\"O\": 1}, \"27\": {\"O\": 1}, \"28\": {\"O\": 1}, \"29\": {\"O\": 1}, \"30\": {\"O\": 1}, \"31\": {\"O\": 1}, \"32\": {\"O\": 1}, \"33\": {\"O\": 1}, \"34\": {\"O\": 1}, \"35\": {\"O\": 1}, \"36\": {\"O\": 1}, \"37\": {\"O\": 1}, \"38\": {\"O\": 1}, \"39\": {\"O\": 1}}" n_minim_iter=6 energy=-45151.136615380325 stress="0.037469321387345614 -4.2704721810018505e-13 -1.2006170696164725e-14 -4.2704721810018505e-13 0.0374693213882061 2.562464719223103e-13 -1.2006170696164725e-14 2.562464719223103e-13 0.0374693213880657" free_energy=-45151.136615380325 pbc="T T T"
In      -4.35144668       3.07693746       5.86305552        0      -0.00025870       0.00018293      -0.00031684
In       7.39765050       1.23104531       1.59858949        1       0.00025870      -0.00018293       0.00031684
In       1.30524286      -0.92294607       5.32941200        2       0.00025870      -0.00018293       0.00031684
In      -1.52310191      -2.15399138       3.73082251        3      -0.00000000       0.00000000      -0.00000000
In      -1.30524286       4.15393315       3.46400075        4      -0.00025870       0.00018293       0.00031684
In       4.78716479      -2.92288784       5.59623376        5      -0.00025870      -0.00036585      -0.00000000
In      -1.30524286       1.38509492       5.59623376        6      -0.00025870      -0.00036585      -0.00000000
In      -1.74096097       7.23087061       1.86541125        7       0.00025870       0.00036585      -0.00000000
In       4.35144668       0.15404962       3.99764427        8       0.00025870      -0.00018293      -0.00031684
In      -1.52310191       4.30798276      -0.00000000        9       0.00000000       0.00000000       0.00000000
In       4.35144668       6.61602376       0.26682176       10       0.00025870      -0.00018293      -0.00031684
In      -1.30524286      -2.30804099       7.19482326       11      -0.00025870       0.00018293       0.00031684
In       4.35144668       2.92288784       1.86541125       12       0.00025870       0.00036585       0.00000000
In       1.74096096       5.23092884       2.13223301       13      -0.00025870       0.00018293      -0.00031684
In       4.56930573       0.00000000      -0.00000000       14      -0.00000000      -0.00000000      -0.00000000
In       1.52310191       2.15399138       3.73082251       15       0.00000000       0.00000000      -0.00000000
O        0.93067234       4.31228746       4.03951845       16       0.00060625      -0.00742248       0.00435686
O       -2.11553148       3.49617325       5.43815782       17       0.00060625       0.00748439       0.00424963
O       -0.45109873       2.31924157       0.01501828       18       0.00026045       0.00772891       0.00382612
O       -0.93067234      -0.80750481       2.01603125       19      -0.00060625       0.00006191       0.00860649
O        4.00140091       5.12415839       2.00101297       20       0.00685427       0.00214710       0.00478037
O        2.09100673       2.98314251       1.70733531       21      -0.00685427      -0.00306637       0.00424963
O        2.09100673       6.44899864       0.29367766       22      -0.00685427       0.00521347       0.00053074
O       -2.33696816       6.11419358       3.74584079       23      -0.00720007      -0.00282186       0.00382612
O        3.49730255       1.98874120       7.44662674       24      -0.00026045      -0.00772891      -0.00382612
O        5.38317198      -1.80621082       3.71580423       25       0.00720007       0.00282186      -0.00382612
O        6.54350637       3.32661838       1.72980954       26      -0.00026045       0.00717797      -0.00478037
O        3.75543949       2.34088788       4.02450017       27      -0.00720007       0.00472445       0.00053074
O        0.70923566       4.46886684       7.15294908       28      -0.00720007      -0.00190259      -0.00435686
O        2.33696816      -0.16088407       0.30869594       29       0.00720007       0.00190259       0.00435686
O       -3.49730255       0.98136439       5.73183548       30       0.00026045      -0.00717797       0.00478037
O        5.16173530       0.81180951       2.02348720       31      -0.00060625      -0.00748439      -0.00424963
O        0.95519709       1.32484026       5.75430971       32       0.00685427       0.00306637      -0.00424963
O        3.49730255      -1.00737681       5.74685376       33      -0.00026045       0.00055094       0.00860649
O        2.11553148      -0.00430469       3.42212657       34      -0.00060625       0.00742248      -0.00435686
O        0.95519709      -2.14101588       7.16796736       35       0.00685427      -0.00521347      -0.00053074
O       -0.70923567       1.96709489       3.43714485       36       0.00720007      -0.00472445      -0.00053074
O       -0.95519709      -0.81617562       5.46063205       37      -0.00685427      -0.00214710      -0.00478037
O       -0.45109873       5.31535957       1.71479126       38       0.00026045      -0.00055094      -0.00860649
O        3.97687617       5.11548758       5.44561377       39       0.00060625      -0.00006191      -0.00860649
