40
Lattice="8.769710576752997 6.873468358012755e-10 3.962345976729508e-15 -2.923236859565702 8.268162423591464 -1.1905198682581867e-09 -2.92323685859365 -4.134081211108386 7.160438702239797" Properties=species:S:1:pos:R:3:spacegroup_kinds:I:1:forces:R:3 spacegroup="P 1" unit_cell=conventional occupancy="_JSON {\"0\": {\"In\": 1}, \"1\": {\"In\": 1}, \"2\": {\"In\": 1}, \"3\": {\"In\": 1}, \"4\": {\"In\": 1}, \"5\": {\"In\": 1}, \"6\": {\"In\": 1}, \"7\": {\"In\": 1}, \"8\": {\"In\": 1}, \"9\": {\"In\": 1}, \"10\": {\"In\": 1}, \"11\": {\"In\": 1}, \"12\": {\"In\": 1}, \"13\": {\"In\": 1}, \"14\": {\"In\": 1}, \"15\": {\"In\": 1}, \"16\": {\"O\": 1}, \"17\": {\"O\": 1}, \"18\": {\"O\": 1}, \"19\": {\"O\": 1}, \"20\": {\"O\": 1}, \"21\": {\"O\": 1}, \"22\": {\"O\": 1}, \"23\": {\"O\": 1}, \"24\": {\"O\": 1}, \"25\": {\"O\": 1}, \"26\": {\"O\": 1}, \"27\": {\"O\": 1}, \"28\": {\"O\": 1}, \"29\": {\"O\": 1}, \"30\": {\"O\": 1}, \"31\": {\"O\": 1}, \"32\": {\"O\": 1}, \"33\": {\"O\": 1}, \"34\": {\"O\": 1}, \"35\": {\"O\": 1}, \"36\": {\"O\": 1}, \"37\": {\"O\": 1}, \"38\": {\"O\": 1}, \"39\": {\"O\": 1}}" n_minim_iter=5 energy=-45151.81783559203 stress="-0.01380223211052418 -2.430204601543208e-15 -4.873977012041533e-13 -2.430204601543208e-15 -0.013802232110852363 -1.4215217627817979e-13 -4.873977012041533e-13 -1.4215217627817979e-13 -0.013802232112321088" free_energy=-45151.81783559203 pbc="T T T"
In      -4.18745816       2.96098006       5.61209015        0      -0.00448519       0.00317151      -0.00549321
In       7.11069501       1.17310116       1.54834854        1       0.00448519      -0.00317151       0.00549321
In       1.26422129      -0.89393945       5.12856790        2       0.00448519      -0.00317151       0.00549321
In      -1.46161843      -2.06704060       3.58021935        3      -0.00000000       0.00000000      -0.00000000
In      -1.26422130       3.99450036       3.33845822        4      -0.00448519       0.00317151       0.00549321
In       4.58225242      -2.82139920       5.37032902        5      -0.00448519      -0.00634301      -0.00000000
In      -1.26422130       1.31268201       5.37032902        6      -0.00448519      -0.00634301      -0.00000000
In      -1.65901557       6.95548042       1.79010967        7       0.00448519       0.00634301      -0.00000000
In       4.18745815       0.13958085       3.82198048        8       0.00448519      -0.00317151      -0.00549321
In      -1.46161843       4.13408121      -0.00000000        9       0.00000000       0.00000000      -0.00000000
In       4.18745815       6.34070267       0.24176113       10       0.00448519      -0.00317151      -0.00549321
In      -1.26422130      -2.20662146       6.91867757       11      -0.00448519       0.00317151       0.00549321
In       4.18745815       2.82139921       1.79010967       12       0.00448519       0.00634301       0.00000000
In       1.65901556       5.02802066       2.03187080       13      -0.00448519       0.00317151      -0.00549321
In       4.38485529       0.00000000      -0.00000000       14      -0.00000000       0.00000000       0.00000000
In       1.46161843       2.06704061       3.58021935       15      -0.00000000       0.00000000       0.00000000
O        0.85405460       4.13306474       3.90282759       16      -0.00742433       0.00460211      -0.00287320
O       -2.06918225       3.38045608       5.20990519       17      -0.00742433      -0.00478932      -0.00254894
O       -0.42679806       2.21911508       0.06096811       18      -0.00265128      -0.00816437       0.00329682
O       -0.85405461      -0.75464160       1.95229408       19       0.00742433      -0.00018721      -0.00542214
O        3.87685197       4.92392277       1.89132597       20      -0.00204064       0.00209063      -0.00871897
O        1.96962174       2.89106565       1.62968584       21       0.00204064       0.00859616      -0.00254894
O        1.96962174       6.16693834       0.26164013       22       0.00204064      -0.00650553      -0.00617002
O       -2.23446778       5.86380586       3.64118746       23       0.00681368       0.00522111       0.00329682
O        3.35003492       1.91496614       7.09947059       24       0.00265128       0.00816437      -0.00329682
O        5.15770464      -1.72972465       3.51925124       25      -0.00681368      -0.00522111      -0.00329682
O        6.27327178       3.22939808       1.68889337       26       0.00265128      -0.00122705       0.00871897
O        3.61200594       2.28849852       3.84185948       27       0.00681368       0.00024458      -0.00617002
O        0.68876908       4.24993926       6.83783046       28       0.00681368      -0.00546569       0.00287320
O        2.23446778      -0.11585804       0.32260824       29      -0.00681368       0.00546569      -0.00287320
O       -3.35003492       0.90468314       5.47154532       30      -0.00265128       0.00122705      -0.00871897
O        4.99241911       0.75362514       1.95053350       31       0.00742433       0.00478932       0.00254894
O        0.95361511       1.24301556       5.53075286       32      -0.00204064      -0.00859616       0.00254894
O        3.35003492      -1.01028300       5.53251343       33       0.00265128      -0.00693732      -0.00542214
O        2.06918225       0.00101647       3.25761111       34       0.00742433      -0.00460211       0.00287320
O        0.95361511      -2.03285712       6.89879857       35      -0.00204064       0.00650553       0.00617002
O       -0.68876908       1.84558270       3.31857922       36      -0.00681368      -0.00024458       0.00617002
O       -0.95361511      -0.78984156       5.26911272       37       0.00204064      -0.00209063       0.00871897
O       -0.42679806       5.14436421       1.62792526       38      -0.00265128       0.00693732       0.00542214
O        3.77729146       4.88872282       5.20814461       39      -0.00742433       0.00018721       0.00542214
