40
Lattice="9.346377950271489 7.325450925909224e-10 1.699947818048388e-14 -3.1154593174478125 8.81184963731501 -1.2688092892083993e-09 -3.115459316411852 -4.40592481792496 7.631285641089355" Properties=species:S:1:pos:R:3:spacegroup_kinds:I:1:forces:R:3 spacegroup="P 1" unit_cell=conventional occupancy="_JSON {\"0\": {\"In\": 1}, \"1\": {\"In\": 1}, \"2\": {\"In\": 1}, \"3\": {\"In\": 1}, \"4\": {\"In\": 1}, \"5\": {\"In\": 1}, \"6\": {\"In\": 1}, \"7\": {\"In\": 1}, \"8\": {\"In\": 1}, \"9\": {\"In\": 1}, \"10\": {\"In\": 1}, \"11\": {\"In\": 1}, \"12\": {\"In\": 1}, \"13\": {\"In\": 1}, \"14\": {\"In\": 1}, \"15\": {\"In\": 1}, \"16\": {\"O\": 1}, \"17\": {\"O\": 1}, \"18\": {\"O\": 1}, \"19\": {\"O\": 1}, \"20\": {\"O\": 1}, \"21\": {\"O\": 1}, \"22\": {\"O\": 1}, \"23\": {\"O\": 1}, \"24\": {\"O\": 1}, \"25\": {\"O\": 1}, \"26\": {\"O\": 1}, \"27\": {\"O\": 1}, \"28\": {\"O\": 1}, \"29\": {\"O\": 1}, \"30\": {\"O\": 1}, \"31\": {\"O\": 1}, \"32\": {\"O\": 1}, \"33\": {\"O\": 1}, \"34\": {\"O\": 1}, \"35\": {\"O\": 1}, \"36\": {\"O\": 1}, \"37\": {\"O\": 1}, \"38\": {\"O\": 1}, \"39\": {\"O\": 1}}" n_minim_iter=6 energy=-45149.82974626582 stress="0.05900291173881312 1.1729262499244473e-13 5.62402071458433e-13 1.1729262499244473e-13 0.05900291173880095 -4.3863291508872406e-13 5.62402071458433e-13 -4.3863291508872406e-13 0.059002911739349295" free_energy=-45149.82974626582 pbc="T T T"
In      -4.43747217       3.13776666       6.01215718        0       0.00102200      -0.00072266       0.00125169
In       7.55293148       1.26815816       1.61912846        1      -0.00102200       0.00072266      -0.00125169
In       1.32201285      -0.93480425       5.43477128        2      -0.00102200       0.00072266      -0.00125169
In      -1.55772966      -2.20296241       3.81564282        3      -0.00000000      -0.00000000      -0.00000000
In      -1.32201285       4.23924787       3.52694987        4       0.00102200      -0.00072266      -0.00125169
In       4.90890578      -2.97108970       5.72346423        5       0.00102200       0.00144533       0.00000000
In      -1.32201285       1.43483511       5.72346423        6       0.00102200       0.00144533       0.00000000
In      -1.79344647       7.37701453       1.90782141        7      -0.00102200      -0.00144533       0.00000000
In       4.43747217       0.16667696       4.10433577        8      -0.00102200       0.00072266       0.00125169
In      -1.55772966       4.40592482      -0.00000000        9      -0.00000000       0.00000000      -0.00000000
In       4.43747216       6.77556418       0.28869295       10      -0.00102200       0.00072266       0.00125169
In      -1.32201285      -2.36963936       7.34259269       11       0.00102200      -0.00072266      -0.00125169
In       4.43747217       2.97108971       1.90782141       12      -0.00102200      -0.00144533       0.00000000
In       1.79344646       5.34072907       2.19651436       13       0.00102200      -0.00072266       0.00125169
In       4.67318897       0.00000000      -0.00000000       14       0.00000000       0.00000000       0.00000000
In       1.55772966       2.20296241       3.81564282       15      -0.00000000      -0.00000000       0.00000000
O        0.97363780       4.41354590       4.12184082       16       0.00041592      -0.00512156       0.00047254
O       -2.14182152       3.56580832       5.56376518       17       0.00041592       0.00297001       0.00419913
O       -0.46033828       2.37682012      -0.00813248       18      -0.00188986       0.00460044       0.00137514
O       -0.97363780      -0.83249542       2.05432036       19      -0.00041592      -0.00215155       0.00467167
O        4.07581683       5.23372495       2.06245284       20       0.00266151       0.00294549       0.00329653
O        2.15510180       3.03368833       1.74812236       21      -0.00266151      -0.00138213       0.00419913
O        2.15510180       6.60596144       0.31433048       22      -0.00266151       0.00432762      -0.00090260
O       -2.39433359       6.25062495       3.80751034       23      -0.00496729       0.00024830       0.00137514
O        3.57579759       2.02910470       7.63941812       24       0.00188986      -0.00460044      -0.00137514
O        5.50979291      -1.84470012       3.82377530       25       0.00496729      -0.00024830      -0.00137514
O        6.69125691       3.38432954       1.75318998       26       0.00188986       0.00349113      -0.00329653
O        3.83658504       2.37505062       4.12997330       27      -0.00496729       0.00106676      -0.00090260
O        0.72112572       4.59209890       7.32508764       28      -0.00496729      -0.00131506      -0.00047254
O        2.39433359      -0.18617407       0.30619800       29       0.00496729       0.00131506       0.00047254
O       -3.57579759       1.02159528       5.87809566       30      -0.00188986      -0.00349113       0.00329653
O        5.25728083       0.84011650       2.06752045       31      -0.00041592      -0.00297001      -0.00419913
O        0.96035751       1.37223649       5.88316327       32       0.00266151       0.00138213      -0.00419913
O        3.57579759      -1.00750941       5.86996318       33       0.00188986       0.00110931       0.00467167
O        2.14182152      -0.00762108       3.50944482       34      -0.00041592       0.00512156      -0.00047254
O        0.96035752      -2.20003662       7.31695516       35       0.00266151      -0.00432762       0.00090260
O       -0.72112573       2.03087420       3.50131234       36       0.00496729      -0.00106676       0.00090260
O       -0.96035752      -0.82780013       5.56883280       37      -0.00266151      -0.00294549      -0.00329653
O       -0.46033828       5.41343424       1.76132245       38      -0.00188986      -0.00110931      -0.00467167
O        4.08909711       5.23842024       5.57696527       39       0.00041592       0.00215155      -0.00467167
