40
Lattice="8.45052519443842 6.623289340938662e-10 1.0115833706302457e-14 -2.8168417321039207 7.967231559212776 -1.147200195666638e-09 -2.816841731167256 -3.9836157789440496 6.899824928876166" Properties=species:S:1:pos:R:3:spacegroup_kinds:I:1:forces:R:3 spacegroup="P 1" unit_cell=conventional occupancy="_JSON {\"0\": {\"In\": 1}, \"1\": {\"In\": 1}, \"2\": {\"In\": 1}, \"3\": {\"In\": 1}, \"4\": {\"In\": 1}, \"5\": {\"In\": 1}, \"6\": {\"In\": 1}, \"7\": {\"In\": 1}, \"8\": {\"In\": 1}, \"9\": {\"In\": 1}, \"10\": {\"In\": 1}, \"11\": {\"In\": 1}, \"12\": {\"In\": 1}, \"13\": {\"In\": 1}, \"14\": {\"In\": 1}, \"15\": {\"In\": 1}, \"16\": {\"O\": 1}, \"17\": {\"O\": 1}, \"18\": {\"O\": 1}, \"19\": {\"O\": 1}, \"20\": {\"O\": 1}, \"21\": {\"O\": 1}, \"22\": {\"O\": 1}, \"23\": {\"O\": 1}, \"24\": {\"O\": 1}, \"25\": {\"O\": 1}, \"26\": {\"O\": 1}, \"27\": {\"O\": 1}, \"28\": {\"O\": 1}, \"29\": {\"O\": 1}, \"30\": {\"O\": 1}, \"31\": {\"O\": 1}, \"32\": {\"O\": 1}, \"33\": {\"O\": 1}, \"34\": {\"O\": 1}, \"35\": {\"O\": 1}, \"36\": {\"O\": 1}, \"37\": {\"O\": 1}, \"38\": {\"O\": 1}, \"39\": {\"O\": 1}}" n_minim_iter=8 energy=-45148.921882507675 stress="-0.09968645695100312 2.9540483473695584e-13 1.0048568053339986e-12 2.9540483473695584e-13 -0.09968645695011295 7.106574738753765e-13 1.0048568053339986e-12 7.106574738753765e-13 -0.09968645694938438" free_energy=-45148.921882507675 pbc="T T T"
In      -3.99753597       2.82668479       5.45377571        0       0.00351771      -0.00248739       0.00430829
In       6.81437770       1.15693099       1.44604921        1      -0.00351771       0.00248739      -0.00430829
In       1.18069424      -0.83487690       4.89596167        2      -0.00351771       0.00248739      -0.00430829
In      -1.40842087      -1.99180789       3.44991246        3      -0.00000000      -0.00000000      -0.00000000
In      -1.18069424       3.82258874       3.17100544        4       0.00351771      -0.00248739      -0.00430829
In       4.45298922      -2.66565775       5.17486869        5       0.00351771       0.00497479       0.00000000
In      -1.18069424       1.31795803       5.17486869        6       0.00351771       0.00497479      -0.00000000
In      -1.63614750       6.64927353       1.72495623        7      -0.00351771      -0.00497479       0.00000000
In       3.99753597       0.16102704       3.72881948        8      -0.00351771       0.00248739       0.00430829
In      -1.40842087       3.98361578      -0.00000000        9      -0.00000000      -0.00000000      -0.00000000
In       3.99753597       6.13645071       0.27890702       10      -0.00351771       0.00248739       0.00430829
In      -1.18069424      -2.15283493       6.62091791       11       0.00351771      -0.00248739      -0.00430829
In       3.99753597       2.66565775       1.72495623       12      -0.00351771      -0.00497479      -0.00000000
In       1.63614749       4.81849268       2.00386325       13       0.00351771      -0.00248739       0.00430829
In       4.22526260       0.00000000      -0.00000000       14       0.00000000      -0.00000000      -0.00000000
In       1.40842086       1.99180789       3.44991246       15       0.00000000      -0.00000000       0.00000000
O        0.83400738       3.98389079       3.80307652       16      -0.00227378       0.00139130      -0.00492486
O       -1.98283435       3.29342338       4.99804850       17      -0.00227378      -0.00496070       0.00125753
O       -0.37245789       2.15471527       0.07052387       18      -0.00412319      -0.00365297      -0.00100753
O       -0.83400739      -0.68991739       1.90130010       19       0.00227378      -0.00356941      -0.00366733
O        3.76601412       4.71425015       1.83077622       20      -0.00391907       0.00298771      -0.00265980
O        1.86766934       2.76343425       1.54813604       21       0.00391907       0.00379730       0.00125753
O        1.86766934       5.93443169       0.28264018       22       0.00391907      -0.00080960      -0.00391733
O       -2.15563767       5.60834192       3.52043634       23       0.00206965       0.00510504      -0.00100753
O        3.18929962       1.82890051       6.82930105       24       0.00412319       0.00365297       0.00100753
O        4.97247940      -1.62472613       3.37938859       25      -0.00206965      -0.00510504       0.00100753
O        6.00614135       3.13024100       1.61913624       26       0.00412319      -0.00269903       0.00265980
O        3.47804579       2.23642424       3.73255265       27       0.00206965      -0.00342507      -0.00391733
O        0.66120406       4.10608119       6.54666086       28       0.00206965      -0.00167997       0.00492486
O        2.15563767      -0.12246541       0.35316406       29      -0.00206965       0.00167997      -0.00492486
O       -3.18929963       0.85337479       5.28068869       30      -0.00412319       0.00269903      -0.00265980
O        4.79967608       0.69019240       1.90177642       31       0.00227378       0.00496070      -0.00125753
O        0.94917239       1.22018154       5.35168889       32      -0.00391907      -0.00379730      -0.00125753
O        3.18929962      -0.97552572       5.35121256       33       0.00412319      -0.00095394      -0.00366733
O        1.98283434      -0.00027500       3.09674840       34       0.00227378      -0.00139130       0.00492486
O        0.94917239      -1.95081590       6.61718474       35      -0.00391907       0.00080960       0.00391733
O       -0.66120406       1.74719155       3.16727227       36      -0.00206965       0.00342507       0.00391733
O       -0.94917239      -0.73063437       5.06904870       37       0.00391907      -0.00298771       0.00265980
O       -0.37245789       4.95914150       1.54861236       38      -0.00412319       0.00095394       0.00366733
O        3.65084911       4.67353317       4.99852482       39      -0.00227378       0.00356941       0.00366733
