40
Lattice="8.281469142719866 6.490776667055285e-10 4.8351310819678616e-15 -2.7604897148519147 7.8078439851228 -1.124255008917e-09 -2.760489713933981 -3.9039219919123083 6.761791240651364" Properties=species:S:1:pos:R:3:spacegroup_kinds:I:1:forces:R:3 spacegroup="P 1" unit_cell=conventional occupancy="_JSON {\"0\": {\"In\": 1}, \"1\": {\"In\": 1}, \"2\": {\"In\": 1}, \"3\": {\"In\": 1}, \"4\": {\"In\": 1}, \"5\": {\"In\": 1}, \"6\": {\"In\": 1}, \"7\": {\"In\": 1}, \"8\": {\"In\": 1}, \"9\": {\"In\": 1}, \"10\": {\"In\": 1}, \"11\": {\"In\": 1}, \"12\": {\"In\": 1}, \"13\": {\"In\": 1}, \"14\": {\"In\": 1}, \"15\": {\"In\": 1}, \"16\": {\"O\": 1}, \"17\": {\"O\": 1}, \"18\": {\"O\": 1}, \"19\": {\"O\": 1}, \"20\": {\"O\": 1}, \"21\": {\"O\": 1}, \"22\": {\"O\": 1}, \"23\": {\"O\": 1}, \"24\": {\"O\": 1}, \"25\": {\"O\": 1}, \"26\": {\"O\": 1}, \"27\": {\"O\": 1}, \"28\": {\"O\": 1}, \"29\": {\"O\": 1}, \"30\": {\"O\": 1}, \"31\": {\"O\": 1}, \"32\": {\"O\": 1}, \"33\": {\"O\": 1}, \"34\": {\"O\": 1}, \"35\": {\"O\": 1}, \"36\": {\"O\": 1}, \"37\": {\"O\": 1}, \"38\": {\"O\": 1}, \"39\": {\"O\": 1}}" n_minim_iter=6 energy=-45145.91032120151 stress="-0.13393333592794063 -8.388025515085452e-13 2.5222837553014956e-13 -8.388025515085452e-13 -0.1339333359251791 1.5411652637273214e-13 2.5222837553014956e-13 1.5411652637273214e-13 -0.13393333592785228" free_energy=-45145.91032120151 pbc="T T T"
In      -3.85828298       2.72821806       5.41727457        0      -0.00088876       0.00062845      -0.00108850
In       6.61877269       1.17570394       1.34451667        1       0.00088876      -0.00062845       0.00108850
In       1.09779326      -0.77625706       4.72541229        2       0.00088876      -0.00062845       0.00108850
In      -1.38024486      -1.95196099       3.38089562        3       0.00000000       0.00000000       0.00000000
In      -1.09779327       3.70419856       3.03496448        4      -0.00088876       0.00062845       0.00108850
In       4.42318616      -2.52849462       5.07134343        5      -0.00088876      -0.00125689       0.00000000
In      -1.09779327       1.37542737       5.07134343        6      -0.00088876      -0.00125689       0.00000000
In      -1.66269645       6.43241662       1.69044781        7       0.00088876       0.00125689      -0.00000000
In       3.85828298       0.19972344       3.72682676        8       0.00088876      -0.00062845      -0.00108850
In      -1.38024486       3.90392199      -0.00000000        9       0.00000000      -0.00000000      -0.00000000
In       3.85828298       6.05560643       0.34593114       10       0.00088876      -0.00062845      -0.00108850
In      -1.09779327      -2.15168443       6.41586010       11      -0.00088876       0.00062845       0.00108850
In       3.85828298       2.52849462       1.69044781       12       0.00088876       0.00125689      -0.00000000
In       1.66269645       4.68017906       2.03637895       13      -0.00088876       0.00062845      -0.00108850
In       4.14073457       0.00000000      -0.00000000       14       0.00000000      -0.00000000       0.00000000
In       1.38024486       1.95196100       3.38089562       15       0.00000000      -0.00000000       0.00000000
O        0.84887147       3.89809805       3.78923974       16       0.00012183      -0.00019459       0.00099681
O       -1.91161825       3.28448985       4.87221505       17       0.00012183       0.00096056      -0.00032989
O       -0.30653994       2.14952809       0.07623524       18       0.00076278       0.00050734       0.00045510
O       -0.84887147      -0.62525609       1.89966355       19      -0.00012183       0.00076597       0.00066692
O        3.73385280       4.57319252       1.82342831       20       0.00086501      -0.00050322       0.00021182
O        1.78712662       2.65942201       1.49131943       21      -0.00086501      -0.00043505      -0.00032989
O        1.78712662       5.81769250       0.33210888       22      -0.00086501      -0.00006817       0.00054171
O       -2.12877450       5.42838225       3.45713086       23      -0.00022407      -0.00088827       0.00045510
O        3.06702965       1.75439390       6.68555600       24      -0.00076278      -0.00050734      -0.00045510
O        4.88926421      -1.52446025       3.30466038       25       0.00022407       0.00088827      -0.00045510
O        5.82751936       3.09274670       1.55746730       26      -0.00076278       0.00064780      -0.00021182
O        3.39220493       2.23173302       3.71300450       27      -0.00022407       0.00083826       0.00054171
O        0.63171521       4.05165071       6.35344712       28      -0.00022407       0.00005000      -0.00099681
O        2.12877450      -0.14772871       0.40834412       29       0.00022407      -0.00005000       0.00099681
O       -3.06702965       0.81117530       5.20432393       30       0.00076278      -0.00064780       0.00021182
O        4.67210796       0.61943215       1.88957618       31      -0.00012183      -0.00096056       0.00032989
O        0.97336309       1.24449998       5.27047180       32       0.00086501       0.00043505       0.00032989
O        3.06702965      -0.94321860       5.28055917       33      -0.00076278      -0.00014046       0.00066692
O        1.91161824       0.00582395       2.97255150       34      -0.00012183       0.00019459      -0.00099681
O        0.97336309      -1.91377050       6.42968236       35       0.00086501       0.00006817      -0.00054171
O       -0.63171522       1.67218898       3.04878674       36       0.00022407      -0.00083826      -0.00054171
O       -0.97336309      -0.66927052       4.93836292       37      -0.00086501       0.00050322      -0.00021182
O       -0.30653994       4.84714060       1.48123206       38       0.00076278       0.00014046      -0.00066692
O        3.60936118       4.52917808       4.86212768       39       0.00012183      -0.00076597      -0.00066692
