40
Lattice="8.845972757463866 6.933247834254463e-10 3.0825003391500097e-15 -2.9486575864749613 8.340063097094442 -1.200872115339426e-09 -2.948657585494455 -4.170031547853899 7.2227065120494895" Properties=species:S:1:pos:R:3:spacegroup_kinds:I:1:forces:R:3 spacegroup="P 1" unit_cell=conventional occupancy="_JSON {\"0\": {\"In\": 1}, \"1\": {\"In\": 1}, \"2\": {\"In\": 1}, \"3\": {\"In\": 1}, \"4\": {\"In\": 1}, \"5\": {\"In\": 1}, \"6\": {\"In\": 1}, \"7\": {\"In\": 1}, \"8\": {\"In\": 1}, \"9\": {\"In\": 1}, \"10\": {\"In\": 1}, \"11\": {\"In\": 1}, \"12\": {\"In\": 1}, \"13\": {\"In\": 1}, \"14\": {\"In\": 1}, \"15\": {\"In\": 1}, \"16\": {\"O\": 1}, \"17\": {\"O\": 1}, \"18\": {\"O\": 1}, \"19\": {\"O\": 1}, \"20\": {\"O\": 1}, \"21\": {\"O\": 1}, \"22\": {\"O\": 1}, \"23\": {\"O\": 1}, \"24\": {\"O\": 1}, \"25\": {\"O\": 1}, \"26\": {\"O\": 1}, \"27\": {\"O\": 1}, \"28\": {\"O\": 1}, \"29\": {\"O\": 1}, \"30\": {\"O\": 1}, \"31\": {\"O\": 1}, \"32\": {\"O\": 1}, \"33\": {\"O\": 1}, \"34\": {\"O\": 1}, \"35\": {\"O\": 1}, \"36\": {\"O\": 1}, \"37\": {\"O\": 1}, \"38\": {\"O\": 1}, \"39\": {\"O\": 1}}" n_minim_iter=1 energy=-45151.90782421172 stress="7.868906503203888e-06 -4.664926807712962e-13 1.4937851383798932e-13 -4.664926807712962e-13 7.86890840660395e-06 2.972836380047151e-13 1.4937851383798932e-13 2.972836380047151e-13 7.868906469977152e-06" free_energy=-45151.90782421172 pbc="T T T"
In      -4.22467796       2.98729843       5.65990710        0       0.00148748      -0.00105181       0.00182178
In       7.17333554       1.18273312       1.56279940        1      -0.00148748       0.00105181      -0.00182178
In       1.27602037      -0.90228266       5.17415266        2      -0.00148748       0.00105181      -0.00182178
In      -1.47432879      -2.08501577       3.61135325        3       0.00000000       0.00000000       0.00000000
In      -1.27602037       4.02980632       3.36847603        4       0.00148748      -0.00105181      -0.00182178
In       4.62129480      -2.84707320       5.41702988        5       0.00148748       0.00210361      -0.00000000
In      -1.27602037       1.32295835       5.41702988        6       0.00148748       0.00210361       0.00000000
In      -1.67263722       7.01710475       1.80567662        7      -0.00148748      -0.00210361       0.00000000
In       4.22467796       0.14022523       3.85423048        8      -0.00148748       0.00105181       0.00182178
In      -1.47432879       4.17003155      -0.00000000        9       0.00000000      -0.00000000      -0.00000000
In       4.22467796       6.39527255       0.24287722       10      -0.00148748       0.00105181       0.00182178
In      -1.27602037      -2.22524100       6.97982929       11       0.00148748      -0.00105181      -0.00182178
In       4.22467796       2.84707320       1.80567663       12      -0.00148748      -0.00210361      -0.00000000
In       1.67263721       5.07231421       2.04855385       13       0.00148748      -0.00105181       0.00182178
In       4.42298638       0.00000000      -0.00000000       14       0.00000000       0.00000000       0.00000000
In       1.47432879       2.08501578       3.61135325       15       0.00000000      -0.00000000      -0.00000000
O        0.86716984       4.17093188       3.92866285       16       0.00487557      -0.00601200       0.00524419
O       -2.08148774       3.40187167       5.25759538       17       0.00487557       0.00754760       0.00258445
O       -0.43432263       2.23715005       0.05224589       18       0.00307297       0.00882223       0.00037672
O       -0.86716985      -0.76725955       1.96355171       19      -0.00487557       0.00153560       0.00782864
O        3.90114461       4.96745528       1.91130582       20       0.00549075      -0.00131810       0.00745192
O        1.99617056       2.91350402       1.64624212       21      -0.00549075      -0.00711260       0.00258445
O        1.99617056       6.22398282       0.26506370       22      -0.00549075       0.00579450       0.00486747
O       -2.25397950       5.91881395       3.66359914       23      -0.00729336      -0.00583797       0.00037672
O        3.38298021       1.93288151       7.17046062       24      -0.00307297      -0.00882223      -0.00037672
O        5.20263708      -1.74878239       3.55910736       25       0.00729336       0.00583797      -0.00037672
O        6.33163780       3.24883707       1.70004743       26      -0.00307297       0.00473736      -0.00745192
O        3.64333567       2.29837873       3.87641696       27      -0.00729336       0.00324523       0.00486747
O        0.69467808       4.29290197       6.90539692       28      -0.00729336       0.00259274      -0.00524419
O        2.25397950      -0.12287042       0.31730959       29       0.00729336      -0.00259274       0.00524419
O       -3.38298022       0.92119449       5.52265908       30       0.00307297      -0.00473736       0.00745192
O        5.03014532       0.76815989       1.96511113       31      -0.00487557      -0.00754760      -0.00258445
O        0.95248702       1.25652754       5.57646439       32       0.00549075       0.00711260      -0.00258445
O        3.38298021      -1.01168702       5.57490497       33      -0.00307297       0.00408487       0.00782864
O        2.08148774      -0.00090033       3.29404366       34      -0.00487557       0.00601200      -0.00524419
O        0.95248702      -2.05395126       6.95764281       35       0.00549075      -0.00579450      -0.00486747
O       -0.69467809       1.87165282       3.34628955       36       0.00729336      -0.00324523      -0.00486747
O       -0.95248703      -0.79742373       5.31140068       37      -0.00549075       0.00131810      -0.00745192
O       -0.43432263       5.18171857       1.64780154       38       0.00307297      -0.00408487      -0.00782864
O        3.81582743       4.93729111       5.25915479       39       0.00487557      -0.00153560      -0.00782864
