40
Lattice="9.278153781162885 7.271972465425596e-10 1.6554849018247085e-14 -3.0927179277399057 8.747527273826778 -1.2595501841372737e-09 -3.0927179267115066 -4.37376363618619 7.575580840270912" Properties=species:S:1:pos:R:3:spacegroup_kinds:I:1:forces:R:3 spacegroup="P 1" unit_cell=conventional occupancy="_JSON {\"0\": {\"In\": 1}, \"1\": {\"In\": 1}, \"2\": {\"In\": 1}, \"3\": {\"In\": 1}, \"4\": {\"In\": 1}, \"5\": {\"In\": 1}, \"6\": {\"In\": 1}, \"7\": {\"In\": 1}, \"8\": {\"In\": 1}, \"9\": {\"In\": 1}, \"10\": {\"In\": 1}, \"11\": {\"In\": 1}, \"12\": {\"In\": 1}, \"13\": {\"In\": 1}, \"14\": {\"In\": 1}, \"15\": {\"In\": 1}, \"16\": {\"O\": 1}, \"17\": {\"O\": 1}, \"18\": {\"O\": 1}, \"19\": {\"O\": 1}, \"20\": {\"O\": 1}, \"21\": {\"O\": 1}, \"22\": {\"O\": 1}, \"23\": {\"O\": 1}, \"24\": {\"O\": 1}, \"25\": {\"O\": 1}, \"26\": {\"O\": 1}, \"27\": {\"O\": 1}, \"28\": {\"O\": 1}, \"29\": {\"O\": 1}, \"30\": {\"O\": 1}, \"31\": {\"O\": 1}, \"32\": {\"O\": 1}, \"33\": {\"O\": 1}, \"34\": {\"O\": 1}, \"35\": {\"O\": 1}, \"36\": {\"O\": 1}, \"37\": {\"O\": 1}, \"38\": {\"O\": 1}, \"39\": {\"O\": 1}}" n_minim_iter=7 energy=-45150.55502586843 stress="0.04746302048369998 5.312055182193373e-13 -2.290333024468106e-13 5.312055182193373e-13 0.047463020484844534 -4.960414355582485e-13 -2.290333024468106e-13 -4.960414355582485e-13 0.047463020483086454" free_energy=-45150.55502586843 pbc="T T T"
In      -4.40995572       3.11830959       5.96230061        0      -0.00040983       0.00028979      -0.00050194
In       7.50267364       1.25545405       1.61328023        1       0.00040983      -0.00028979       0.00050194
In       1.31723779      -0.93142777       5.40107065        2       0.00040983      -0.00028979       0.00050194
In      -1.54635896      -2.18688182       3.78779042        3       0.00000000      -0.00000000      -0.00000000
In      -1.31723779       4.21175050       3.50717543        4      -0.00040983       0.00028979       0.00050194
In       4.86819806      -2.95629645       5.68168563        5      -0.00040983      -0.00057959      -0.00000000
In      -1.31723779       1.41746718       5.68168563        6      -0.00040983      -0.00057959       0.00000000
In      -1.77548014       7.33006010       1.89389521        7       0.00040983       0.00057959      -0.00000000
In       4.40995572       0.16201314       4.06840540        8       0.00040983      -0.00028980      -0.00050194
In      -1.54635897       4.37376364      -0.00000000        9      -0.00000000       0.00000000      -0.00000000
In       4.40995572       6.72265859       0.28061498       10       0.00040983      -0.00028980      -0.00050194
In      -1.31723779      -2.34889495       7.29496586       11      -0.00040983       0.00028979       0.00050194
In       4.40995572       2.95629646       1.89389521       12       0.00040983       0.00057959      -0.00000000
In       1.77548013       5.30519141       2.17451019       13      -0.00040983       0.00028979      -0.00050194
In       4.63907689       0.00000000      -0.00000000       14      -0.00000000      -0.00000000       0.00000000
In       1.54635896       2.18688182       3.78779042       15      -0.00000000      -0.00000000       0.00000000
O        0.95477401       4.37996248       4.09830112       16       0.00328541      -0.00846579      -0.00247716
O       -2.13794392       3.54613347       5.52106192       17       0.00328541       0.00208761       0.00857017
O       -0.45619488       2.35695732       0.00519459       18      -0.00491827       0.00788849      -0.00147725
O       -0.95477401      -0.82143133       2.04378221       19      -0.00328541      -0.00637818       0.00609301
O        4.05597467       5.19819407       2.03858761       20       0.00087308       0.00552529       0.00757025
O        2.12946118       3.02051019       1.73327150       21      -0.00087308      -0.00379339       0.00857017
O        2.12946118       6.55144752       0.30531611       22      -0.00087308       0.00931868      -0.00099992
O       -2.37422563       6.20509768       3.79298501       23      -0.00907676       0.00200749      -0.00147725
O        3.54891281       2.01680632       7.57038624       24       0.00491827      -0.00788849       0.00147725
O        5.46694356      -1.83133403       3.78259583       25       0.00907676      -0.00200749       0.00147725
O        6.64163073       3.36985913       1.74920280       26       0.00491827       0.00266491      -0.00757025
O        3.81121022       2.36915436       4.09310653       27      -0.00907676      -0.00228308      -0.00099992
O        0.71849230       4.54703888       7.26507013       28      -0.00907676       0.00027559       0.00247716
O        2.37422563      -0.17327524       0.31051070       29       0.00907676      -0.00027559      -0.00247716
O       -3.54891281       1.00390451       5.82637803       30      -0.00491827      -0.00266491       0.00757025
O        5.23066184       0.82763017       2.05451892       31      -0.00328541      -0.00208761      -0.00857017
O        0.96325674       1.35325345       5.84230934       32       0.00087308       0.00379339      -0.00857017
O        3.54891281      -1.01290181       5.83157263       33       0.00491827       0.00522358       0.00609301
O        2.13794392      -0.00619884       3.47727971       34      -0.00328541       0.00846579       0.00247716
O        0.96325674      -2.17768387       7.27026472       35       0.00087308      -0.00931868       0.00099992
O       -0.71849230       2.00460928       3.48247430       36       0.00907676       0.00228308       0.00099992
O       -0.96325674      -0.82443042       5.53699322       37      -0.00087308      -0.00552529      -0.00757025
O       -0.45619488       5.38666545       1.74400821       38      -0.00491827      -0.00522358      -0.00609301
O        4.04749193       5.19519497       5.53179863       39       0.00328541       0.00637818      -0.00609301
