40
Lattice="9.41362039134835 7.378149784713599e-10 1.8785936656310533e-14 -3.137873464478403 8.875246418738563 -1.2779392835294783e-09 -3.1378734634349894 -4.437623208631465 7.686188864326411" Properties=species:S:1:pos:R:3:spacegroup_kinds:I:1:forces:R:3 spacegroup="P 1" unit_cell=conventional occupancy="_JSON {\"0\": {\"In\": 1}, \"1\": {\"In\": 1}, \"2\": {\"In\": 1}, \"3\": {\"In\": 1}, \"4\": {\"In\": 1}, \"5\": {\"In\": 1}, \"6\": {\"In\": 1}, \"7\": {\"In\": 1}, \"8\": {\"In\": 1}, \"9\": {\"In\": 1}, \"10\": {\"In\": 1}, \"11\": {\"In\": 1}, \"12\": {\"In\": 1}, \"13\": {\"In\": 1}, \"14\": {\"In\": 1}, \"15\": {\"In\": 1}, \"16\": {\"O\": 1}, \"17\": {\"O\": 1}, \"18\": {\"O\": 1}, \"19\": {\"O\": 1}, \"20\": {\"O\": 1}, \"21\": {\"O\": 1}, \"22\": {\"O\": 1}, \"23\": {\"O\": 1}, \"24\": {\"O\": 1}, \"25\": {\"O\": 1}, \"26\": {\"O\": 1}, \"27\": {\"O\": 1}, \"28\": {\"O\": 1}, \"29\": {\"O\": 1}, \"30\": {\"O\": 1}, \"31\": {\"O\": 1}, \"32\": {\"O\": 1}, \"33\": {\"O\": 1}, \"34\": {\"O\": 1}, \"35\": {\"O\": 1}, \"36\": {\"O\": 1}, \"37\": {\"O\": 1}, \"38\": {\"O\": 1}, \"39\": {\"O\": 1}}" n_minim_iter=5 energy=-45148.941832412886 stress="0.0708024861575985 -7.825749211516843e-14 -1.1181471271415309e-13 -7.825749211516843e-14 0.07080248615724384 4.4118931811698254e-13 -1.1181471271415309e-13 4.4118931811698254e-13 0.07080248615765757" free_energy=-45148.941832412886 pbc="T T T"
In      -4.46168055       3.15488458       6.06486292        0      -0.00454089       0.00321089      -0.00556143
In       7.59955401       1.28273864       1.62132594        1       0.00454089      -0.00321089       0.00556143
In       1.32380709      -0.93607297       5.46442037        2       0.00454089      -0.00321089       0.00556143
In      -1.56893673      -2.21881160       3.84309443        3       0.00000000      -0.00000000       0.00000000
In      -1.32380709       4.26429038       3.54287316        4      -0.00454089       0.00321089       0.00556143
In       4.95193984      -2.98155174       5.76464165        5      -0.00454089      -0.00642178      -0.00000000
In      -1.32380709       1.45607147       5.76464165        6      -0.00454089      -0.00642178       0.00000000
In      -1.81406638       7.41917495       1.92154721        7       0.00454089       0.00642178      -0.00000000
In       4.46168055       0.17333284       4.14331570        8       0.00454089      -0.00321089      -0.00556143
In      -1.56893673       4.43762321      -0.00000000        9       0.00000000       0.00000000       0.00000000
In       4.46168055       6.82976765       0.30022127       10       0.00454089      -0.00321089      -0.00556143
In      -1.32380709      -2.39214444       7.38596759       11      -0.00454089       0.00321089       0.00556143
In       4.46168055       2.98155174       1.92154721       12       0.00454089       0.00642178       0.00000000
In       1.81406637       5.37369618       2.22176849       13      -0.00454089       0.00321089      -0.00556143
In       4.70681019       0.00000000      -0.00000000       14      -0.00000000      -0.00000000      -0.00000000
In       1.56893673       2.21881161       3.84309443       15       0.00000000       0.00000000      -0.00000000
O        0.99253100       4.44597368       4.14614879       16       0.00283645       0.00481900       0.00191993
O       -2.14534247       3.58649495       5.60588274       17       0.00283645      -0.00074679      -0.00513334
O       -0.46373485       2.39741880      -0.02076582       18       0.00478480      -0.00212448      -0.00274711
O       -0.99253100      -0.84277778       2.06584268       19      -0.00283645       0.00407221      -0.00321341
O        4.09649402       5.26841185       2.08660849       20      -0.00164956      -0.00565825      -0.00046630
O        2.17925290       3.04596156       1.76278831       21       0.00164956      -0.00242530      -0.00513334
O        2.17925290       6.66007349       0.32382018       22       0.00164956      -0.00323296       0.00466704
O       -2.41488641       6.29450863       3.82232861       23       0.00359791      -0.00380299      -0.00274711
O        3.60160831       2.04020441       7.70695468       24      -0.00478480       0.00212448       0.00274711
O        5.55275987      -1.85688541       3.86386025       25      -0.00359791       0.00380299       0.00274711
O        6.73948178       3.39953728       1.75648593       26      -0.00478480      -0.00344130       0.00046630
O        3.86086052       2.38179098       4.16691461       27       0.00359791      -0.00047757       0.00466704
O        0.72298705       4.63657003       7.38313449       28       0.00359791       0.00428056      -0.00191993
O        2.41488641      -0.19894682       0.30305436       29      -0.00359791      -0.00428056       0.00191993
O       -3.60160832       1.03808593       5.92970293       30       0.00478480       0.00344130      -0.00046630
O        5.28321593       0.85112826       2.08030612       31      -0.00283645       0.00074679       0.00513334
O        0.95862056       1.39166165       5.92340055       32      -0.00164956       0.00242530       0.00513334
O        3.60160831      -1.00211847       5.90893711       33      -0.00478480       0.00131682      -0.00321341
O        2.14534246      -0.00835047       3.54004006       34      -0.00283645      -0.00481900      -0.00191993
O        0.95862056      -2.22245028       7.36236868       35      -0.00164956       0.00323296      -0.00466704
O       -0.72298706       2.05583224       3.51927424       36      -0.00359791       0.00047757      -0.00466704
O       -0.95862056      -0.83078863       5.59958037       37       0.00164956       0.00565825       0.00046630
O       -0.46373485       5.43974169       1.77725175       38       0.00478480      -0.00131682       0.00321341
O        4.13040446       5.28040100       5.62034618       39       0.00283645      -0.00407221       0.00321341
