1
Lattice="14.999998938496564 0.0 0.0 0.0 14.999998938496564 0.0 0.0 0.0 14.999998938496564" Properties=species:S:1:pos:R:3:forces:R:3 uid=atomc type=isolated_atom energy=-241.71166518929087 pbc="T T T"
C        0.00000000       0.00000000       0.00000000       0.00000000       0.00000000       0.00000000
1
Lattice="14.999998938496564 0.0 0.0 0.0 14.999998938496564 0.0 0.0 0.0 14.999998938496564" Properties=species:S:1:pos:R:3:forces:R:3 uid=atomin type=isolated_atom energy=-1968.1361344631252 pbc="T T T"
In       0.00000000       0.00000000       0.00000000       0.00000000       0.00000000       0.00000000
1
Lattice="14.999998938496564 0.0 0.0 0.0 14.999998938496564 0.0 0.0 0.0 14.999998938496564" Properties=species:S:1:pos:R:3:forces:R:3 uid=atomo type=isolated_atom energy=-559.9593226248802 pbc="T T T"
O        0.00000000       0.00000000       0.00000000       0.00000000       0.00000000       0.00000000
19
Lattice="5.581314605027663 0.0 0.0 0.0 5.880931583824697 0.0 0.0 0.0 31.220199790643218" Properties=species:S:1:pos:R:3:initial_magmoms:R:1:forces:R:3:magmoms:R:1 uid=5f5e8a8ad507dedf0ee10ce9 type=Slab energy=-22001.39092226772 stress="0.011080326840436562 0.005542917893247889 -0.0004976414606825171 0.005542917893247889 0.012068264500389309 -0.0009659018757158819 -0.0004976414606825171 -0.0009659018757158819 0.0006206745893383423" virial="-1.0812702719001955e-05 -5.409039303498078e-06 4.856218821427793e-07 -5.409039303498078e-06 -1.177677863262858e-05 9.425723616498224e-07 4.856218821427793e-07 9.425723616498224e-07 -6.056833806799239e-07" pbc="T T T"
In       1.13588992       3.67941974      12.00001915      10.00000000       0.95090972      -0.50198710       0.41814419       0.00020000
In       3.92654972       0.73895995      12.00001915      10.00000000      -0.94809410      -0.49736246       0.38762443       0.00040000
In       1.13588992       1.32555991      14.31027899      10.00000000       0.41240986      -0.06485377      -0.00912407       0.00000000
In       3.92654972       4.26601970      14.31027899      10.00000000      -0.39567764      -0.10470124       0.00707233       0.00000000
In       3.92654972       1.03094993      16.04336886      10.00000000      -0.45331637       0.03977008       0.64862201       0.00010000
In       1.13588992       3.97140972      16.04336886      10.00000000       0.30548899       0.14651535       0.10781793       0.00000000
In       3.92654972       4.55799968      18.35366870      10.00000000      -0.16042039       2.61760047      -0.29985416       0.00090000
In       1.13588992       1.61753989      18.35366870      10.00000000       0.60872209      -1.52372558      -0.41298348       0.00060000
O        1.96327986       1.57126989      12.33225913       4.00000000      -0.15473131       0.48417784      -0.42781052       0.00090000
O        3.09916978       4.51172968      12.33225913       4.00000000       0.15260938       0.48665202      -0.42852991       0.00080000
O        0.30850998       3.43370976      13.97802901       4.00000000      -0.19455128      -0.00710524      -0.20714068       0.00050000
O        4.75393966       0.49324997      13.97802901       4.00000000       0.22159517      -0.00051988      -0.13699841       0.00070000
O        2.79065980       2.64847981      15.17682893       4.00000000       0.01297199       0.05281123      -0.07781779       0.00020000
O        2.27178984       5.58894960      15.17682893       4.00000000      -0.09119704      -0.05494628      -0.07946072       0.00030000
O        0.30850998       1.86325987      16.37561884       4.00000000      -0.16685355       0.33383797       0.07294863       0.00110000
O        4.75393966       4.80371966      16.37561884       4.00000000       0.10833061      -0.32674713      -0.10149379       0.00100000
O        3.09916978       0.78522994      18.02141872       4.00000000      -0.40159297      -0.11680137      -0.05767216      -0.00600000
O        1.96327986       3.72568974      18.02141872       4.00000000       0.25579933      -0.83675839       0.75535366       0.00010000
O        0.00000000       0.00000000      19.22018864       4.00000000      -0.06240274      -0.12585705      -0.15869801      -0.03790000
