80
Lattice="11.754928812786323 0.007220013375910433 0.004985317780641281 6.456222202874176 9.82321731355781 0.004985317780641689 6.456222202874176 3.485089310364527 9.184213398084681" Properties=species:S:1:pos:R:3:spacegroup_kinds:I:1:forces:R:3 spacegroup="P 1" unit_cell=conventional occupancy="_JSON {\"0\": {\"In\": 1}, \"1\": {\"In\": 1}, \"2\": {\"In\": 1}, \"3\": {\"In\": 1}, \"4\": {\"O\": 1}, \"5\": {\"O\": 1}, \"6\": {\"O\": 1}, \"7\": {\"O\": 1}, \"8\": {\"O\": 1}, \"9\": {\"O\": 1}}" n_minim_iter=4 energy=-90301.48698385929 stress="-8.469938744598835e-05 7.192037816732486e-05 3.435681603993658e-05 7.192037816732486e-05 -1.0276056585524321e-05 -2.350227419527086e-05 3.435681603993658e-05 -2.350227419527086e-05 -8.980860409831418e-05" free_energy=-11287.686681406765 pbc="T T T"
In      10.57279539       5.70722863       3.94076117        0       0.00730035       0.00364882       0.00428337
In      16.45025980       5.71083864       3.94325383        0       0.00489945       0.00422185       0.00491919
In      13.80090649      10.61883729       3.94325383        0       0.00232157      -0.00001493      -0.00059598
In      19.67837090      10.62244729       3.94574649        0       0.00711078       0.00341229       0.00232503
In      13.80090649       7.44977329       8.53286787        0      -0.03418587      -0.05082616       0.00845536
In      19.67837090       7.45338329       8.53536053        0       0.01034533       0.00026370       0.00334730
In      17.02901759      12.36138194       8.53536053        0       0.02011515       0.02991308       0.01121552
In      22.90648200      12.36499195       8.53785319        0       0.00515437       0.00326020       0.00259256
In       7.92773453       4.27941636       2.95487686        1       0.00319516       0.00359718       0.01876171
In      13.80519894       4.28302637       2.95736952        1      -0.00690476      -0.00538707      -0.00250242
In      11.15584563       9.19102502       2.95736952        1      -0.00294702       0.00880277      -0.01880561
In      17.03331004       9.19463502       2.95986218        1      -0.00661045      -0.00360769      -0.00252939
In      11.15584563       6.02196102       7.54698356        1      -0.04002686      -0.04251747      -0.00787234
In      17.03331004       6.02557102       7.54947622        1       0.00333243      -0.00466820      -0.00707886
In      14.38395673      10.93356967       7.54947622        1      -0.00432383       0.00269640      -0.00486431
In      20.26142114      10.93717968       7.55196888        1      -0.00863167      -0.00123456      -0.00140016
In       4.40595208       2.37834697       1.64221516        2      -0.06498080      -0.02435517       0.04451479
In      10.28341649       2.38195698       1.64470782        2       0.01266227       0.00112721       0.00517439
In       7.63406318       7.28995563       1.64470782        2       0.01064672       0.01652330       0.00641239
In      13.51152759       7.29356563       1.64720048        2       0.00523628       0.00469442       0.00205516
In       7.63406318       4.12089163       6.23432186        2       0.00708314       0.00357060       0.00309433
In      13.51152759       4.12450163       6.23681452        2      -0.00234117      -0.00042674       0.01062839
In      10.86217428       9.03250028       6.23681452        2       0.00186046       0.00814438      -0.00474888
In      16.73963869       9.03611029       6.23930718        2       0.00689554       0.00385393       0.00220098
In       1.76089123       0.95053470       0.65633085        3       0.00901501      -0.00168010      -0.00394971
In       7.63835564       0.95414471       0.65882351        3      -0.01944345      -0.04769673       0.00298474
In       4.98900233       5.86214336       0.65882351        3      -0.02165317       0.01444184       0.00023336
In      10.86646674       5.86575336       0.66131617        3      -0.00636696      -0.00302710      -0.00237134
In       4.98900233       2.69307936       5.24843755        3      -0.00764570      -0.00521511      -0.00282708
In      10.86646674       2.69668936       5.25093021        3      -0.00440204       0.00112723       0.00546974
In       8.21711343       7.60468801       5.25093021        3      -0.00656125      -0.00360874      -0.00239653
In      14.09457784       7.60829802       5.25342287        3      -0.00371868      -0.00072917      -0.01345954
O        5.99890244       2.27623485       0.21584613        4       0.24803031       0.19860648      -0.08653386
O       11.89961827       2.31522217       0.21835674        4      -0.00520540      -0.00018625       0.00008638
O        9.25026496       7.22322082       0.21835674        4      -0.00435517      -0.00687543      -0.00003505
O       15.12772937       7.22683082       0.22084940        4       0.00191782      -0.00339472       0.00006645
O        9.25026496       4.05415682       4.80797078        4      -0.00253272      -0.00118396      -0.00351433
O       15.12772937       4.05776682       4.81046344        4      -0.00005966       0.00011825       0.00010198
O       12.47837606       8.96576547       4.81046344        4       0.00032790      -0.00266870       0.00358100
O       18.35584047       8.96937548       4.81295610        4      -0.00023885       0.00018095       0.00010897
O        7.09667995       5.12154309       1.15176567        5      -0.01395121      -0.04258469      -0.01875397
O       12.97414436       5.12515310       1.15425833        5       0.00067052       0.00049845       0.00019860
O       10.32479105      10.03315175       1.15425833        5      -0.03544647      -0.03217100       0.01824688
O       16.20225546      10.03676175       1.15675099        5       0.00100256       0.00275835       0.00008003
O       10.32479105       6.86408775       5.74387237        5       0.00124987       0.00270995      -0.00092476
O       16.20225546       6.86769775       5.74636503        5      -0.00089612       0.00033658       0.00137040
O       13.55290215      11.77569640       5.74636503        5       0.00062536       0.00053188      -0.00063224
O       19.43036656      11.77930641       5.74885769        5       0.00067062      -0.00058168      -0.00143037
O        8.17573887       2.18339157       2.51191743        6      -0.00795229       0.01194815      -0.01761853
O       14.05320328       2.18700158       2.51441009        6      -0.00410830       0.00192615       0.00377411
O       11.40384997       7.09500023       2.51441009        6      -0.00027919      -0.00349744       0.00238772
O       17.28131438       7.09861023       2.51690275        6       0.00086746      -0.00231368      -0.00090697
O       11.40384997       3.92593623       7.10402413        6      -0.00774329      -0.01502905      -0.03371888
O       17.28131438       3.92954623       7.10651679        6      -0.00029007       0.00092896       0.00062727
O       14.63196107       8.83754488       7.10651679        6      -0.00360232      -0.00493240       0.00577992
O       20.50942548       8.84115489       7.10900945        6       0.00088609       0.00011972       0.00018074
O        4.15794775       4.47437176       2.08517459        7       0.01013428       0.00114296      -0.00589813
O       10.03541216       4.47798177       2.08766725        7      -0.00646665      -0.00245321      -0.00287728
O        7.38605885       9.38598042       2.08766725        7      -0.00027048      -0.00038567       0.00056699
O       13.26352326       9.38959042       2.09015991        7       0.01035607      -0.01212142       0.01363048
O        7.38605885       6.21691642       6.67728129        7      -0.00115768      -0.00000079      -0.00053406
O       13.26352326       6.22052642       6.67977395        7       0.00309076       0.01471089       0.03056406
O       10.61416995      11.12852507       6.67977395        7       0.00073551      -0.00076306       0.00015428
O       16.49163436      11.13213508       6.68226661        7      -0.00117055      -0.00269346      -0.00222862
O        6.31153276       4.34615117       4.38122794        8       0.00059404      -0.00068047      -0.00404053
O       12.18899717       4.34976118       4.38372060        8       0.00075159       0.00071829      -0.00006051
O        9.53964386       9.25775983       4.38372060        8      -0.00179179      -0.00163482       0.00265668
O       15.41710827       9.26136983       4.38621326        8       0.00055064       0.00016328       0.00036754
O        9.53964386       6.08869583       8.97333464        8      -0.03709675       0.02082118      -0.00836185
O       15.41710827       6.09230583       8.97582730        8      -0.05516679       0.00736254       0.00898983
O       12.76775496      11.00030448       8.97582730        8       0.00082691      -0.00166403       0.00067049
O       18.64521937      11.00391449       8.97831996        8       0.00071103      -0.00660808      -0.00076371
O        5.23700667       1.53622024       3.44532636        9       0.00156009       0.00461412       0.01503272
O       11.11447108       1.53983025       3.44781902        9       0.00017973      -0.00022248      -0.00047081
O        8.46511777       6.44782890       3.44781902        9      -0.00106455      -0.00281661      -0.00181888
O       14.34258218       6.45143890       3.45031168        9       0.00030787      -0.00000251       0.00032105
O        8.46511777       3.27876490       8.03743306        9      -0.01041428      -0.00539116      -0.00431705
O       14.34258218       3.28237490       8.03992572        9       0.01256428      -0.00257033      -0.00626647
O       11.69322887       8.19037355       8.03992572        9       0.02938597      -0.03162138       0.02788159
O       17.57069328       8.19398356       8.04241838        9      -0.00316705      -0.00145287       0.00101451
