80
Lattice="11.754928812786323 0.007220013375910433 0.004985317780641281 6.456222202874176 9.82321731355781 0.004985317780641689 6.456222202874176 3.485089310364527 9.184213398084681" Properties=species:S:1:pos:R:3:spacegroup_kinds:I:1:forces:R:3 spacegroup="P 1" unit_cell=conventional occupancy="_JSON {\"0\": {\"In\": 1}, \"1\": {\"In\": 1}, \"2\": {\"In\": 1}, \"3\": {\"In\": 1}, \"4\": {\"O\": 1}, \"5\": {\"O\": 1}, \"6\": {\"O\": 1}, \"7\": {\"O\": 1}, \"8\": {\"O\": 1}, \"9\": {\"O\": 1}}" n_minim_iter=4 energy=-90301.48148349654 stress="-0.0001299742086797722 -5.9562843014585896e-05 -3.949513000049703e-06 -5.9562843014585896e-05 -6.0179929439441644e-05 -0.00016996480880312407 -3.949513000049703e-06 -0.00016996480880312407 -5.719174758025612e-05" free_energy=-11287.686681406765 pbc="T T T"
In      10.53046122       5.70720263       3.94074322        0       0.55815700      -0.03162497      -0.02388016
In      16.45025980       5.71083864       3.94325383        0      -0.00745080       0.00360327       0.00255251
In      13.80090649      10.61883729       3.94325383        0       0.00226752      -0.00276915       0.00254805
In      19.67837090      10.62244729       3.94574649        0       0.00135956       0.01722247       0.00164912
In      13.80090649       7.44977329       8.53286787        0       0.00285946       0.00100466      -0.00381411
In      19.67837090       7.45338329       8.53536053        0       0.00169186       0.00767209       0.01531332
In      17.02901759      12.36138194       8.53536053        0       0.00720915       0.00379768       0.00286508
In      22.90648200      12.36499195       8.53785319        0       0.00736595       0.00362319       0.00251882
In       7.92773453       4.27941636       2.95487686        1      -0.08660067      -0.07232000      -0.04991258
In      13.80519894       4.28302637       2.95736952        1      -0.06105441       0.02740957       0.02028199
In      11.15584563       9.19102502       2.95736952        1       0.00839973      -0.01879230       0.00166239
In      17.03331004       9.19463502       2.95986218        1      -0.00692047      -0.00380967      -0.00215150
In      11.15584563       6.02196102       7.54698356        1       0.00840638      -0.00541453      -0.01666762
In      17.03331004       6.02557102       7.54947622        1      -0.00691756      -0.00317437      -0.00191247
In      14.38395673      10.93356967       7.54947622        1      -0.00676455      -0.00329193      -0.00246502
In      20.26142114      10.93717968       7.55196888        1      -0.00755156      -0.00356409      -0.00276480
In       4.40595208       2.37834697       1.64221516        2       0.00524816       0.00319366       0.00215465
In      10.28341649       2.38195698       1.64470782        2       0.01919992      -0.00173247      -0.00196044
In       7.63406318       7.28995563       1.64470782        2      -0.01076448       0.02280013      -0.02149549
In      13.51152759       7.29356563       1.64720048        2      -0.01793333      -0.01352913       0.02750816
In       7.63406318       4.12089163       6.23432186        2      -0.01002809      -0.01059592       0.02794185
In      13.51152759       4.12450163       6.23681452        2      -0.01729263       0.02118315      -0.02495223
In      10.86217428       9.03250028       6.23681452        2       0.01924819       0.00232642       0.00163113
In      16.73963869       9.03611029       6.23930718        2       0.00516352       0.00321505       0.00218717
In       1.76089123       0.95053470       0.65633085        3      -0.00616357      -0.00322409      -0.00224117
In       7.63835564       0.95414471       0.65882351        3      -0.00746565      -0.00374334      -0.00329607
In       4.98900233       5.86214336       0.65882351        3      -0.00812606      -0.00396044      -0.00262498
In      10.86646674       5.86575336       0.66131617        3       0.02497316      -0.00157046       0.01069438
In       4.98900233       2.69307936       5.24843755        3      -0.00740063      -0.00431050      -0.00240697
In      10.86646674       2.69668936       5.25093021        3       0.03040258       0.00429581      -0.00713383
In       8.21711343       7.60468801       5.25093021        3      -0.06241073       0.06725717       0.04429894
In      14.09457784       7.60829802       5.25342287        3      -0.04941087      -0.03035767      -0.02096087
O        6.02215386       2.31161216       0.21586408        4       0.00075614       0.00023010       0.00262359
O       11.89961827       2.31522217       0.21835674        4      -0.00100289      -0.00148343      -0.00141850
O        9.25026496       7.22322082       0.21835674        4      -0.00291101      -0.00342351       0.00802433
O       15.12772937       7.22683082       0.22084940        4       0.00041991       0.00020478      -0.00023135
O        9.25026496       4.05415682       4.80797078        4      -0.06468482      -0.02142970       0.00997530
O       15.12772937       4.05776682       4.81046344        4       0.01605719      -0.00626896       0.00365204
O       12.47837606       8.96576547       4.81046344        4       0.00193495       0.01614297       0.00516340
O       18.35584047       8.96937548       4.81295610        4       0.00211860      -0.00322233      -0.00058223
O        7.09667995       5.12154309       1.15176567        5       0.01019697       0.00371642       0.01126758
O       12.97414436       5.12515310       1.15425833        5       0.00690195      -0.00410385      -0.01959333
O       10.32479105      10.03315175       1.15425833        5      -0.00185885       0.00023018      -0.00033285
O       16.20225546      10.03676175       1.15675099        5       0.00007770      -0.00012104      -0.00001408
O       10.32479105       6.86408775       5.74387237        5      -0.04368740       0.00982298       0.01070020
O       16.20225546       6.86769775       5.74636503        5       0.00064682       0.00028229       0.00005729
O       13.55290215      11.77569640       5.74636503        5       0.00525464       0.00695313      -0.00312288
O       19.43036656      11.77930641       5.74885769        5       0.00405657      -0.01096840       0.00521362
O        8.17573887       2.18339157       2.51191743        6       0.00390119       0.00943390       0.00392831
O       14.05320328       2.18700158       2.51441009        6       0.00083362      -0.00306119      -0.00106785
O       11.40384997       7.09500023       2.51441009        6      -0.06323587      -0.04253010       0.03980736
O       17.28131438       7.09861023       2.51690275        6       0.01228239      -0.00328492       0.00392899
O       11.40384997       3.92593623       7.10402413        6      -0.00810699      -0.00403461       0.00640170
O       17.28131438       3.92954623       7.10651679        6       0.00029763       0.00000365      -0.00000914
O       14.63196107       8.83754488       7.10651679        6       0.00010917       0.00031396       0.00037778
O       20.50942548       8.84115489       7.10900945        6       0.00091469      -0.00603563      -0.00615106
O        4.15794775       4.47437176       2.08517459        7       0.00657065      -0.00083492      -0.00221006
O       10.03541216       4.47798177       2.08766725        7      -0.05065849      -0.00810989      -0.00782084
O        7.38605885       9.38598042       2.08766725        7       0.00091052      -0.00347523       0.00165346
O       13.26352326       9.38959042       2.09015991        7       0.00460207       0.00868973      -0.00433460
O        7.38605885       6.21691642       6.67728129        7       0.01242593      -0.00307829      -0.01543679
O       13.26352326       6.22052642       6.67977395        7       0.01148623       0.00463336       0.02007301
O       10.61416995      11.12852507       6.67977395        7       0.00006925       0.00004925      -0.00003348
O       16.49163436      11.13213508       6.68226661        7      -0.00161795       0.00122202      -0.00044650
O        6.31153276       4.34615117       4.38122794        8       0.01810799       0.00686643      -0.00123372
O       12.18899717       4.34976118       4.38372060        8      -0.12857939       0.06733321      -0.02128564
O        9.53964386       9.25775983       4.38372060        8      -0.00744282      -0.01337642      -0.00145406
O       15.41710827       9.26136983       4.38621326        8       0.00024669       0.00019661       0.00013654
O        9.53964386       6.08869583       8.97333464        8      -0.00150477      -0.00014008      -0.00081847
O       15.41710827       6.09230583       8.97582730        8       0.00026000       0.00263714       0.00359831
O       12.76775496      11.00030448       8.97582730        8       0.00001444       0.00015667       0.00015964
O       18.64521937      11.00391449       8.97831996        8       0.00047736       0.00325405      -0.00778284
O        5.23700667       1.53622024       3.44532636        9       0.00037620       0.00148354       0.00004155
O       11.11447108       1.53983025       3.44781902        9      -0.00532245      -0.00483192      -0.00071855
O        8.46511777       6.44782890       3.44781902        9      -0.09264301       0.01739474      -0.01183340
O       14.34258218       6.45143890       3.45031168        9       0.03167349       0.00828093      -0.00519580
O        8.46511777       3.27876490       8.03743306        9      -0.00067510       0.00110354      -0.00205078
O       14.34258218       3.28237490       8.03992572        9       0.00006333       0.00000059       0.00013798
O       11.69322887       8.19037355       8.03992572        9      -0.00069878       0.00241143       0.00398441
O       17.57069328       8.19398356       8.04241838        9      -0.00110975      -0.00005249      -0.00089483
