80
Lattice="11.757921604544823 0.010962303086019753 0.007569316238919 6.4609929859472 9.82366582627135 0.007569316238918095 6.4609929859472 3.487664594263904 9.183717288697343" Properties=species:S:1:pos:R:3:spacegroup_kinds:I:1:forces:R:3 spacegroup="P 1" unit_cell=conventional occupancy="_JSON {\"0\": {\"In\": 1}, \"1\": {\"In\": 1}, \"2\": {\"In\": 1}, \"3\": {\"In\": 1}, \"4\": {\"O\": 1}, \"5\": {\"O\": 1}, \"6\": {\"O\": 1}, \"7\": {\"O\": 1}, \"8\": {\"O\": 1}, \"9\": {\"O\": 1}}" n_minim_iter=4 energy=-90301.47561609033 stress="-5.5989757400605784e-05 -3.3761566820678126e-05 -5.934473956611409e-06 -3.3761566820678126e-05 -3.767626553279509e-05 -4.7947902987428815e-05 -5.934473956611409e-06 -4.7947902987428815e-05 -4.5932832155397826e-05" free_energy=-11287.684535260581 pbc="T T T"
In      10.56696046       5.70978208       3.94252430        0       0.12274722      -0.00784884      -0.00586307
In      16.45650480       5.71527310       3.94631577        0      -0.00336913       0.00082590       0.00147189
In      13.80804049      10.62162486       3.94631577        0       0.00076572      -0.00105711       0.00034162
In      19.68700130      10.62710601       3.95010043        0       0.00369291       0.00485729       0.00126104
In      13.80804049       7.45362425       8.53438975        0       0.00089282      -0.00013262      -0.00205710
In      19.68700130       7.45910540       8.53817441        0       0.00231491       0.00307962       0.00500775
In      17.03853699      12.36545716       8.53817441        0       0.00499044       0.00204857       0.00063258
In      22.91749779      12.37093831       8.54195907        0       0.00175819       0.00138586       0.00095883
In       7.93238669       4.28192760       2.95661084        1      -0.02490163      -0.02025393      -0.01416144
In      13.81134749       4.28740875       2.96039550        1      -0.01569644       0.00378565       0.00518753
In      11.16288318       9.19376051       2.96039550        1      -0.00002039      -0.00654883      -0.00116782
In      17.04184399       9.19924166       2.96418016        1      -0.00373401      -0.00030179      -0.00110209
In      11.16288318       6.02575990       7.54846948        1      -0.00004392      -0.00304992      -0.00330055
In      17.04184399       6.03124105       7.55225414        1      -0.00373218      -0.00169321      -0.00105964
In      14.39337968      10.93759281       7.55225414        1      -0.00296873      -0.00219357      -0.00092076
In      20.27234048      10.94307396       7.55603880        1      -0.00392679      -0.00035167      -0.00084824
In       4.40756711       2.37921877       1.64281713        2       0.00308631       0.00161167       0.00209125
In      10.28652791       2.38469992       1.64660179        2       0.00548593      -0.00025067       0.00064141
In       7.63806360       7.29105168       1.64660179        2      -0.00223401       0.00754451      -0.00854468
In      13.51702441       7.29653283       1.65038645        2      -0.00235435      -0.00233035       0.00692127
In       7.63806360       4.12305107       6.23467577        2      -0.00277866      -0.00193688       0.00794121
In      13.51702441       4.12853222       6.23846043        2      -0.00291933       0.00523401      -0.00732349
In      10.86856010       9.03488398       6.23846043        2       0.00549368       0.00244572       0.00042701
In      16.74752090       9.04036513       6.24224509        2       0.00308032       0.00162005       0.00210553
In       1.76240979       0.95135442       0.65689686        3      -0.00304624      -0.00062890      -0.00044608
In       7.64137059       0.95683557       0.66068152        3      -0.00419785      -0.00276990      -0.00136261
In       4.99290628       5.86318733       0.66068152        3      -0.00418434      -0.00227231      -0.00161074
In      10.87186709       5.86866848       0.66446618        3       0.00290528       0.00136876       0.00412152
In       4.99290628       2.69518672       5.24875550        3      -0.00556140      -0.00138495      -0.00147336
In      10.87186709       2.70066787       5.25254016        3       0.00903849       0.00155861      -0.00343844
In       8.22340278       7.60701963       5.25254016        3      -0.00949161       0.01258694       0.00996924
In      14.10236358       7.61250078       5.25632482        3      -0.00705341      -0.00508221      -0.00351291
O        6.02446885       2.31311441       0.21749824        4       0.00036283       0.00090354      -0.00026458
O       11.90342965       2.31859556       0.22128290        4      -0.00034399       0.00036444      -0.00141299
O        9.25496534       7.22494732       0.22128290        4      -0.00122506      -0.00032582       0.00084968
O       15.13392615       7.23042847       0.22506756        4       0.00093988       0.00079450      -0.00185381
O        9.25496534       4.05694671       4.80935688        4      -0.01238820      -0.00469413       0.00027420
O       15.13392615       4.06242786       4.81314154        4       0.00604266      -0.00053733      -0.00025582
O       12.48546184       8.96877962       4.81314154        4       0.00033291       0.00313600       0.00069733
O       18.36442264       8.97426077       4.81692620        4       0.00229993      -0.00229456      -0.00136440
O        7.10042095       5.12300433       1.15364165        5       0.00300472       0.00266287       0.00428673
O       12.97938175       5.12848548       1.15742631        5       0.00012602       0.00009693      -0.00314661
O       10.33091744      10.03483724       1.15742631        5      -0.00178911       0.00166436      -0.00003600
O       16.20987825      10.04031839       1.16121097        5       0.00005517       0.00096374      -0.00026437
O       10.33091744       6.86683663       5.74550029        5      -0.00904916       0.00471681       0.00488004
O       16.20987825       6.87231778       5.74928495        5       0.00098443       0.00093043      -0.00003937
O       13.56141394      11.77866954       5.74928495        5       0.00106417       0.00232931      -0.00022314
O       19.44037474      11.78415069       5.75306961        5      -0.00002451      -0.00321443       0.00210165
O        8.17901325       2.18596986       2.51342756        6       0.00196496       0.00293854       0.00044599
O       14.05797405       2.19145101       2.51721222        6       0.00163768      -0.00322605      -0.00215455
O       11.40950974       7.09780277       2.51721222        6      -0.01334103      -0.01276143       0.01044900
O       17.28847055       7.10328392       2.52099688        6       0.00444288      -0.00062130       0.00019102
O       11.40950974       3.92980216       7.10528620        6      -0.00203869      -0.00009871       0.00041052
O       17.28847055       3.93528331       7.10907086        6       0.00164899      -0.00038727      -0.00046023
O       14.64000624       8.84163507       7.10907086        6       0.00061414       0.00042543      -0.00025760
O       20.51896704       8.84711622       7.11285552        6       0.00098193      -0.00166856      -0.00242779
O        4.16094055       4.47517652       2.08600040        7       0.00183897       0.00040891       0.00021690
O       10.03990135       4.48065767       2.08978506        7      -0.01103433      -0.00148898      -0.00139216
O        7.39143704       9.38700943       2.08978506        7       0.00002355      -0.00221697       0.00177654
O       13.27039785       9.39249058       2.09356972        7       0.00117804       0.00331695      -0.00008517
O        7.39143704       6.21900882       6.67785904        7       0.00185842      -0.00007833      -0.00215719
O       13.27039785       6.22448997       6.68164370        7       0.00088289       0.00243429       0.00448614
O       10.62193354      11.13084173       6.68164370        7      -0.00088519       0.00030133       0.00072990
O       16.50089434      11.13632288       6.68542836        7      -0.00180326       0.00056557       0.00098610
O        6.31548494       4.34803196       4.38192972        8       0.00512069       0.00104528       0.00045969
O       12.19444574       4.35351311       4.38571438        8      -0.03571553       0.02185463      -0.00497459
O        9.54598143       9.25986487       4.38571438        8      -0.00217008      -0.00350827       0.00082746
O       15.42494224       9.26534602       4.38949904        8       0.00068355       0.00009543       0.00048602
O        9.54598143       6.09186426       8.97378836        8      -0.00023097      -0.00103159      -0.00005176
O       15.42494224       6.09734541       8.97757302        8       0.00054959      -0.00011922       0.00133599
O       12.77647793      11.00369717       8.97757302        8       0.00039363      -0.00031575       0.00167705
O       18.65543873      11.00917832       8.98135768        8       0.00041709      -0.00042710      -0.00152257
O        5.23953285       1.53814204       3.44578631        9       0.00099077      -0.00019206      -0.00001406
O       11.11849365       1.54362319       3.44957097        9      -0.00108980      -0.00164580      -0.00094043
O        8.47002934       6.44997495       3.44957097        9      -0.01999717       0.00263592      -0.00088601
O       14.34899015       6.45545610       3.45335563        9       0.00658661       0.00075877      -0.00061028
O        8.47002934       3.28197434       8.03764495        9       0.00053272      -0.00043287      -0.00161054
O       14.34899015       3.28745549       8.04142961        9       0.00101189      -0.00152030       0.00132957
O       11.70052584       8.19380725       8.04142961        9       0.00010320      -0.00088883      -0.00006312
O       17.57948664       8.19928840       8.04521427        9       0.00041341      -0.00151381      -0.00131504
