80
Lattice="11.757921604544823 0.010962303086019753 0.007569316238919 6.4609929859472 9.82366582627135 0.007569316238918095 6.4609929859472 3.487664594263904 9.183717288697343" Properties=species:S:1:pos:R:3:spacegroup_kinds:I:1:forces:R:3 spacegroup="P 1" unit_cell=conventional occupancy="_JSON {\"0\": {\"In\": 1}, \"1\": {\"In\": 1}, \"2\": {\"In\": 1}, \"3\": {\"In\": 1}, \"4\": {\"O\": 1}, \"5\": {\"O\": 1}, \"6\": {\"O\": 1}, \"7\": {\"O\": 1}, \"8\": {\"O\": 1}, \"9\": {\"O\": 1}}" n_minim_iter=4 energy=-90301.47555118048 stress="-2.774542653229238e-05 3.6599563130882846e-05 -3.5235426393773605e-05 3.6599563130882846e-05 -6.50958881432899e-05 1.2970565378756739e-05 -3.5235426393773605e-05 1.2970565378756739e-05 -1.3282048424201907e-05" free_energy=-11287.684535260581 pbc="T T T"
In      10.57754400       5.70979195       3.94253111        0       0.00256863       0.00124014      -0.00026784
In      16.45650480       5.71527310       3.94631577        0       0.00326265       0.00265387       0.00276977
In      13.80804049      10.62162486       3.94631577        0       0.00415474       0.00298604      -0.00151456
In      19.68700130      10.62710601       3.95010043        0       0.00198566       0.00082904       0.00233654
In      13.80804049       7.45362425       8.53438975        0       0.01531794       0.00622206      -0.00005478
In      19.68700130       7.45910540       8.53817441        0      -0.00310011       0.00584398      -0.00067890
In      17.03853699      12.36545716       8.53817441        0       0.00259713      -0.00224156      -0.00047669
In      22.91749779      12.37093831       8.54195907        0       0.00061572       0.00457811       0.00225880
In       7.93238669       4.28192760       2.95661084        1      -0.00319456      -0.00435723      -0.00402508
In      13.81134749       4.28740875       2.96039550        1      -0.00518357       0.00051996       0.00130025
In      11.16288318       9.19376051       2.96039550        1      -0.00171595      -0.00352652       0.00114120
In      17.04184399       9.19924166       2.96418016        1      -0.00386240      -0.00068339      -0.00223217
In      11.16288318       6.02575990       7.54846948        1       0.00905974      -0.00078421       0.00305986
In      17.04184399       6.03124105       7.55225414        1      -0.00879463      -0.00170615       0.00346417
In      14.39337968      10.93759281       7.55225414        1      -0.00327856      -0.00296616      -0.00091558
In      20.27234048      10.94307396       7.55603880        1      -0.00257284       0.00037173      -0.00068635
In       4.40756711       2.37921877       1.64281713        2       0.03869192      -0.00077042      -0.02317256
In      10.28652791       2.38469992       1.64660179        2      -0.00218873       0.00070839      -0.00237824
In       7.63806360       7.29105168       1.64660179        2       0.00237024      -0.00034223       0.00081147
In      13.51702441       7.29653283       1.65038645        2       0.00315762       0.00357974       0.00083576
In       7.63806360       4.12305107       6.23467577        2       0.00224874       0.00119458       0.00071668
In      13.51702441       4.12853222       6.23846043        2       0.00510018       0.00154374       0.00254002
In      10.86856010       9.03488398       6.23846043        2       0.00249960       0.00288796      -0.00000709
In      16.74752090       9.04036513       6.24224509        2       0.00253307       0.00113772       0.00138749
In       1.76240979       0.95135442       0.65689686        3      -0.00705222      -0.00481135      -0.00078963
In       7.64137059       0.95683557       0.66068152        3       0.03519470      -0.02724500       0.00597264
In       4.99290628       5.86318733       0.66068152        3      -0.00081987      -0.00009934      -0.00157630
In      10.87186709       5.86866848       0.66446618        3      -0.00361355      -0.00206405      -0.00130892
In       4.99290628       2.69518672       5.24875550        3      -0.00269638      -0.00112053       0.00086409
In      10.87186709       2.70066787       5.25254016        3      -0.00348229      -0.00253375      -0.00280822
In       8.22340278       7.60701963       5.25254016        3      -0.00331342      -0.00144749      -0.00161420
In      14.10236358       7.61250078       5.25632482        3      -0.00333264      -0.00211645       0.00048635
O        6.03505239       2.31312428       0.21750505        4      -0.13856221       0.02008278       0.01175050
O       11.90342965       2.31859556       0.22128290        4       0.00425637      -0.00006835      -0.00110831
O        9.25496534       7.22494732       0.22128290        4       0.00106397       0.00189527      -0.00098744
O       15.13392615       7.23042847       0.22506756        4       0.00094740      -0.00073460      -0.00081788
O        9.25496534       4.05694671       4.80935688        4       0.00106155       0.00075731       0.00067015
O       15.13392615       4.06242786       4.81314154        4       0.00093639      -0.00001444      -0.00183582
O       12.48546184       8.96877962       4.81314154        4      -0.00028944       0.00035061      -0.00083253
O       18.36442264       8.97426077       4.81692620        4      -0.00003620       0.00036019      -0.00082315
O        7.10042095       5.12300433       1.15364165        5      -0.00106031       0.00683474       0.00251069
O       12.97938175       5.12848548       1.15742631        5       0.00078501      -0.00002076      -0.00026943
O       10.33091744      10.03483724       1.15742631        5       0.00404017       0.00855737      -0.00164999
O       16.20987825      10.04031839       1.16121097        5      -0.00014537      -0.00040467       0.00018738
O       10.33091744       6.86683663       5.74550029        5      -0.00072557       0.00068999       0.00023107
O       16.20987825       6.87231778       5.74928495        5       0.00016232       0.00136220      -0.00063477
O       13.56141394      11.77866954       5.74928495        5      -0.00039768       0.00064845       0.00029240
O       19.44037474      11.78415069       5.75306961        5      -0.00079616       0.00089281       0.00022201
O        8.17901325       2.18596986       2.51342756        6       0.00482442       0.00090747       0.00712738
O       14.05797405       2.19145101       2.51721222        6       0.00076259      -0.00050617      -0.00195993
O       11.40950974       7.09780277       2.51721222        6       0.00044379      -0.00003654      -0.00095840
O       17.28847055       7.10328392       2.52099688        6       0.00005171      -0.00003093      -0.00070172
O       11.40950974       3.92980216       7.10528620        6      -0.00022716       0.00431107       0.00406170
O       17.28847055       3.93528331       7.10907086        6       0.00160001      -0.00081133      -0.00137099
O       14.64000624       8.84163507       7.10907086        6       0.00011129      -0.00012772      -0.00082232
O       20.51896704       8.84711622       7.11285552        6       0.00100926      -0.00065783       0.00004475
O        4.16094055       4.47517652       2.08600040        7       0.00133576      -0.00520578      -0.00280469
O       10.03990135       4.48065767       2.08978506        7       0.00141254       0.00269356       0.00179194
O        7.39143704       9.38700943       2.08978506        7       0.00084322       0.00039383       0.00011774
O       13.27039785       9.39249058       2.09356972        7      -0.00237966      -0.00274930       0.00303736
O        7.39143704       6.21900882       6.67785904        7       0.00110065       0.00003351       0.00218797
O       13.27039785       6.22448997       6.68164370        7      -0.00197273       0.00177044      -0.00765694
O       10.62193354      11.13084173       6.68164370        7      -0.00067591      -0.00019285       0.00055571
O       16.50089434      11.13632288       6.68542836        7      -0.00025460       0.00092528       0.00074148
O        6.31548494       4.34803196       4.38192972        8      -0.00023846      -0.00045349       0.00055667
O       12.19444574       4.35351311       4.38571438        8      -0.00021311      -0.00044402       0.00067235
O        9.54598143       9.25986487       4.38571438        8       0.00035760       0.00021189      -0.00042975
O       15.42494224       9.26534602       4.38949904        8       0.00034132      -0.00131199       0.00178456
O        9.54598143       6.09186426       8.97378836        8       0.02069490      -0.00320903       0.00469727
O       15.42494224       6.09734541       8.97757302        8       0.02107157       0.00233206      -0.00325007
O       12.77647793      11.00369717       8.97757302        8      -0.00022015      -0.00054009       0.00080044
O       18.65543873      11.00917832       8.98135768        8      -0.00023681      -0.00062565       0.00083195
O        5.23953285       1.53814204       3.44578631        9      -0.00156226       0.00035206      -0.00368821
O       11.11849365       1.54362319       3.44957097        9       0.00166426      -0.00130517       0.00032765
O        8.47002934       6.44997495       3.44957097        9       0.00056965      -0.00055770       0.00059156
O       14.34899015       6.45545610       3.45335563        9       0.00016367      -0.00111344      -0.00037722
O        8.47002934       3.28197434       8.03764495        9       0.00223768       0.00105565       0.00187185
O       14.34899015       3.28745549       8.04142961        9       0.00210529      -0.00597428      -0.00384874
O       11.70052584       8.19380725       8.04142961        9      -0.00101356      -0.00828430       0.00446288
O       17.57948664       8.19928840       8.04521427        9       0.00189641       0.00048061      -0.00073710
