80
Lattice="11.757921604544823 0.010962303086019753 0.007569316238919 6.4609929859472 9.82366582627135 0.007569316238918095 6.4609929859472 3.487664594263904 9.183717288697343" Properties=species:S:1:pos:R:3:spacegroup_kinds:I:1:forces:R:3 spacegroup="P 1" unit_cell=conventional occupancy="_JSON {\"0\": {\"In\": 1}, \"1\": {\"In\": 1}, \"2\": {\"In\": 1}, \"3\": {\"In\": 1}, \"4\": {\"O\": 1}, \"5\": {\"O\": 1}, \"6\": {\"O\": 1}, \"7\": {\"O\": 1}, \"8\": {\"O\": 1}, \"9\": {\"O\": 1}}" n_minim_iter=4 energy=-90301.4758691469 stress="7.222172386477933e-07 1.2957517189828322e-06 -6.554136048386209e-06 1.2957517189828322e-06 -5.303182551663479e-05 6.860826384433061e-06 -6.554136048386209e-06 6.860826384433061e-06 -8.29929861887773e-06" free_energy=-11287.684535260581 pbc="T T T"
In      10.57754400       5.70979195       3.94253111        0       0.00239012       0.00123106       0.00044978
In      16.45650480       5.71527310       3.94631577        0       0.00322957       0.00123998       0.00059828
In      13.80804049      10.62162486       3.94631577        0       0.00428220       0.00249516       0.00118714
In      19.68700130      10.62710601       3.95010043        0       0.00215738       0.00136621       0.00202349
In      13.80804049       7.45362425       8.53438975        0       0.01423916       0.01859711      -0.00299550
In      19.68700130       7.45910540       8.53817441        0       0.00049434       0.00356784       0.00059981
In      17.03853699      12.36545716       8.53817441        0       0.00054177      -0.00420170      -0.00053321
In      22.91749779      12.37093831       8.54195907        0       0.00399020       0.00089262       0.00119569
In       7.93238669       4.28192760       2.95661084        1      -0.00495761      -0.00172025      -0.00546869
In      13.81134749       4.28740875       2.96039550        1      -0.00286496       0.00002880      -0.00094833
In      11.16288318       9.19376051       2.96039550        1      -0.00322774      -0.00410879       0.00210016
In      17.04184399       9.19924166       2.96418016        1      -0.00264240      -0.00120076      -0.00104958
In      11.16288318       6.02575990       7.54846948        1       0.00470718       0.00626557       0.00129505
In      17.04184399       6.03124105       7.55225414        1      -0.00625029      -0.00125723       0.00148341
In      14.39337968      10.93759281       7.55225414        1      -0.00358167      -0.00386334      -0.00077005
In      20.27234048      10.94307396       7.55603880        1      -0.00215999      -0.00262009      -0.00168203
In       4.40756711       2.37921877       1.64281713        2       0.02080458       0.00632536      -0.01128160
In      10.28652791       2.38469992       1.64660179        2      -0.00012513       0.00174652      -0.00122902
In       7.63806360       7.29105168       1.64660179        2       0.00202324      -0.00261230       0.00061938
In      13.51702441       7.29653283       1.65038645        2       0.00381587      -0.00046672       0.00124376
In       7.63806360       4.12305107       6.23467577        2       0.00256328       0.00158471       0.00019610
In      13.51702441       4.12853222       6.23846043        2       0.00493021       0.00319655      -0.00061818
In      10.86856010       9.03488398       6.23846043        2       0.00443148      -0.00008975       0.00467796
In      16.74752090       9.04036513       6.24224509        2       0.00191089       0.00076631       0.00157333
In       1.76240979       0.95135442       0.65689686        3      -0.00635978      -0.00280420      -0.00122381
In       7.64137059       0.95683557       0.66068152        3      -0.00219704       0.00852355      -0.00221655
In       4.99290628       5.86318733       0.66068152        3       0.00071299      -0.00445694      -0.00197666
In      10.87186709       5.86866848       0.66446618        3      -0.00381273      -0.00267351      -0.00093253
In       4.99290628       2.69518672       5.24875550        3      -0.00235390      -0.00032019      -0.00027587
In      10.87186709       2.70066787       5.25254016        3      -0.00354809      -0.00293059      -0.00373254
In       8.22340278       7.60701963       5.25254016        3      -0.00329675      -0.00189852      -0.00180393
In      14.10236358       7.61250078       5.25632482        3      -0.00320930      -0.00186668       0.00104599
O        6.03028452       2.32195689       0.21750505        4      -0.06046614      -0.05491212       0.02105392
O       11.90342965       2.31859556       0.22128290        4       0.00186986      -0.00009682      -0.00108006
O        9.25496534       7.22494732       0.22128290        4       0.00175075       0.00355739      -0.00091693
O       15.13392615       7.23042847       0.22506756        4      -0.00050294       0.00184613      -0.00028289
O        9.25496534       4.05694671       4.80935688        4       0.00079047       0.00058255       0.00087947
O       15.13392615       4.06242786       4.81314154        4       0.00007797       0.00047189      -0.00016601
O       12.48546184       8.96877962       4.81314154        4      -0.00028658       0.00085356      -0.00191199
O       18.36442264       8.97426077       4.81692620        4      -0.00013977       0.00057012      -0.00074348
O        7.10042095       5.12300433       1.15364165        5       0.00236418       0.01115665       0.00561095
O       12.97938175       5.12848548       1.15742631        5      -0.00030610       0.00040147      -0.00005580
O       10.33091744      10.03483724       1.15742631        5       0.00759749       0.00750871      -0.00213021
O       16.20987825      10.04031839       1.16121097        5      -0.00030146      -0.00016420      -0.00001634
O       10.33091744       6.86683663       5.74550029        5      -0.00120476       0.00042055      -0.00038719
O       16.20987825       6.87231778       5.74928495        5      -0.00002177       0.00100384      -0.00050691
O       13.56141394      11.77866954       5.74928495        5      -0.00032728       0.00040956       0.00005714
O       19.44037474      11.78415069       5.75306961        5      -0.00116947       0.00176221       0.00119618
O        8.17901325       2.18596986       2.51342756        6       0.00189444      -0.00208245       0.00237941
O       14.05797405       2.19145101       2.51721222        6       0.00114233      -0.00110957      -0.00192072
O       11.40950974       7.09780277       2.51721222        6       0.00050037       0.00110904      -0.00116332
O       17.28847055       7.10328392       2.52099688        6      -0.00037483       0.00093652      -0.00012203
O       11.40950974       3.92980216       7.10528620        6       0.00194061       0.00408334       0.00690159
O       17.28847055       3.93528331       7.10907086        6       0.00049262      -0.00030021      -0.00064571
O       14.64000624       8.84163507       7.10907086        6       0.00113258      -0.00041897      -0.00097047
O       20.51896704       8.84711622       7.11285552        6      -0.00036547      -0.00020051      -0.00115047
O        4.16094055       4.47517652       2.08600040        7      -0.00224477      -0.00090647       0.00133335
O       10.03990135       4.48065767       2.08978506        7       0.00142101       0.00124615       0.00126820
O        7.39143704       9.38700943       2.08978506        7       0.00134706       0.00062475      -0.00016128
O       13.27039785       9.39249058       2.09356972        7      -0.00226802       0.00358240      -0.00210349
O        7.39143704       6.21900882       6.67785904        7       0.00013866       0.00010447       0.00166923
O       13.27039785       6.22448997       6.68164370        7      -0.00053797      -0.00152157      -0.00691771
O       10.62193354      11.13084173       6.68164370        7      -0.00057428       0.00007336       0.00027173
O       16.50089434      11.13632288       6.68542836        7       0.00014238       0.00172514       0.00087433
O        6.31548494       4.34803196       4.38192972        8      -0.00008776      -0.00082484       0.00097650
O       12.19444574       4.35351311       4.38571438        8      -0.00007176      -0.00077308       0.00108770
O        9.54598143       9.25986487       4.38571438        8       0.00079542      -0.00012377      -0.00048301
O       15.42494224       9.26534602       4.38949904        8      -0.00049046      -0.00050349       0.00057434
O        9.54598143       6.09186426       8.97378836        8       0.00920632      -0.00244294       0.00290780
O       15.42494224       6.09734541       8.97757302        8       0.01389758      -0.00201274      -0.00049018
O       12.77647793      11.00369717       8.97757302        8      -0.00015628       0.00130082       0.00034526
O       18.65543873      11.00917832       8.98135768        8      -0.00023868      -0.00031433       0.00089806
O        5.23953285       1.53814204       3.44578631        9      -0.00043017      -0.00090666      -0.00375542
O       11.11849365       1.54362319       3.44957097        9       0.00078789      -0.00115198       0.00019648
O        8.47002934       6.44997495       3.44957097        9       0.00138608       0.00005966       0.00139020
O       14.34899015       6.45545610       3.45335563        9      -0.00008604      -0.00094579      -0.00011436
O        8.47002934       3.28197434       8.03764495        9       0.00213414       0.00016565       0.00168207
O       14.34899015       3.28745549       8.04142961        9      -0.00185808       0.00001855       0.00111532
O       11.70052584       8.19380725       8.04142961        9      -0.00616927       0.00723368      -0.00744095
O       17.57948664       8.19928840       8.04521427        9       0.00123284       0.00016854      -0.00058356
