20
Lattice="5.796379919631648 1.1865364885458283e-61 2.511450313803001e-43 2.3841798583163372e-61 5.816153367569812 -3.975684614626211e-18 -3.403758774172689e-43 1.419814990508919e-17 8.383163375659292" Properties=species:S:1:pos:R:3:spacegroup_kinds:I:1:forces:R:3 spacegroup="P 1" unit_cell=conventional occupancy="_JSON {\"0\": {\"In\": 1}, \"1\": {\"In\": 1}, \"2\": {\"In\": 1}, \"3\": {\"In\": 1}, \"4\": {\"In\": 1}, \"5\": {\"In\": 1}, \"6\": {\"In\": 1}, \"7\": {\"In\": 1}, \"8\": {\"O\": 1}, \"9\": {\"O\": 1}, \"10\": {\"O\": 1}, \"11\": {\"O\": 1}, \"12\": {\"O\": 1}, \"13\": {\"O\": 1}, \"14\": {\"O\": 1}, \"15\": {\"O\": 1}, \"16\": {\"O\": 1}, \"17\": {\"O\": 1}, \"18\": {\"O\": 1}, \"19\": {\"O\": 1}}" n_minim_iter=4 energy=-22574.53015916669 stress="0.04268395424766904 -4.3524789095681083e-13 6.667146149866864e-14 -4.3524789095681083e-13 0.04265768493386594 8.256837140865808e-13 6.667146149866864e-14 8.256837140865808e-13 0.04265593248542552" free_energy=-22574.53015916669 pbc="T T T"
In       1.43447316       3.05062507       0.97084940        0       0.00370924      -0.00156122       0.00828490
In       1.46371680       0.14254839       3.22073228        1      -0.00370924      -0.00156122      -0.00828490
In       1.46371680       2.76552830       5.16243109        2      -0.00370924       0.00156122       0.00828490
In       1.43447316       5.67360498       7.41231397        3       0.00370924       0.00156122      -0.00828490
In       4.36190676       2.76552830       7.41231397        4      -0.00370924       0.00156122      -0.00828490
In       4.33266312       5.67360498       5.16243109        5       0.00370924       0.00156122       0.00828490
In       4.33266312       3.05062507       3.22073228        6       0.00370924      -0.00156122      -0.00828490
In       4.36190676       0.14254839       0.97084940        7      -0.00370924      -0.00156122       0.00828490
O        2.26657762       3.50302540       7.11662775        8      -0.00115889      -0.00180982       0.00454404
O        0.63161234       0.59494872       5.45811731        9       0.00115889      -0.00180982      -0.00454404
O        0.63161234       2.31312797       2.92504607       10       0.00115889       0.00180982       0.00454404
O        2.26657762       5.22120465       1.26653562       11      -0.00115889       0.00180982      -0.00454404
O        3.52980230       2.31312797       1.26653562       12       0.00115889       0.00180982      -0.00454404
O        5.16476758       5.22120465       2.92504607       13      -0.00115889       0.00180982       0.00454404
O        5.16476758       3.50302540       5.45811731       14      -0.00115889      -0.00180982      -0.00454404
O        3.52980230       0.59494872       7.11662775       15       0.00115889      -0.00180982       0.00454404
O        5.54818617       4.36211503      -0.00000000       16       0.00715218       0.00000000      -0.00000000
O        3.14638371       1.45403834       4.19158169       17      -0.00715218      -0.00000000       0.00000000
O        0.24819375       1.45403834      -0.00000000       18      -0.00715218      -0.00000000      -0.00000000
O        2.64999621       4.36211503       4.19158169       19       0.00715218       0.00000000       0.00000000
