20
Lattice="5.278718486298055 -5.180483313607198e-60 4.084208359082306e-44 6.071780932066404e-60 5.119282195706229 -1.35420766329149e-16 -5.517102055629158e-44 1.886287237290523e-16 7.130691201657114" Properties=species:S:1:pos:R:3:spacegroup_kinds:I:1:forces:R:3 spacegroup="P 1" unit_cell=conventional occupancy="_JSON {\"0\": {\"In\": 1}, \"1\": {\"In\": 1}, \"2\": {\"In\": 1}, \"3\": {\"In\": 1}, \"4\": {\"In\": 1}, \"5\": {\"In\": 1}, \"6\": {\"In\": 1}, \"7\": {\"In\": 1}, \"8\": {\"O\": 1}, \"9\": {\"O\": 1}, \"10\": {\"O\": 1}, \"11\": {\"O\": 1}, \"12\": {\"O\": 1}, \"13\": {\"O\": 1}, \"14\": {\"O\": 1}, \"15\": {\"O\": 1}, \"16\": {\"O\": 1}, \"17\": {\"O\": 1}, \"18\": {\"O\": 1}, \"19\": {\"O\": 1}}" n_minim_iter=1 energy=-22564.347888457185 stress="-0.592909533290328 1.080605968623176e-12 5.847134351983391e-13 1.080605968623176e-12 -0.5569241810244304 2.271257957156346e-13 5.847134351983391e-13 2.271257957156346e-13 -0.559230764530199" free_energy=-22564.347888457185 pbc="T T T"
In       1.29868632       2.76023105       0.85834961        0      -0.11703173       0.54089636      -0.41117529
In       1.34067293       0.20058996       2.70699599        1       0.11703173       0.54089636       0.41117529
In       1.34067293       2.35905114       4.42369521        2       0.11703173      -0.54089636      -0.41117529
In       1.29868632       4.91869224       6.27234160        3      -0.11703173      -0.54089636       0.41117529
In       3.98003217       2.35905114       6.27234160        4       0.11703173      -0.54089636       0.41117529
In       3.93804556       4.91869224       4.42369521        5      -0.11703173      -0.54089636      -0.41117529
In       3.93804556       2.76023105       2.70699599        6      -0.11703173       0.54089636       0.41117529
In       3.98003217       0.20058996       0.85834961        7       0.11703173       0.54089636      -0.41117529
O        2.10534423       3.08052504       6.10901507        8       0.23126851       0.05045482      -0.15978718
O        0.53401501       0.52088394       4.58702173        9      -0.23126851       0.05045482       0.15978718
O        0.53401501       2.03875716       2.54366947       10      -0.23126851      -0.05045482      -0.15978718
O        2.10534423       4.59839825       1.02167613       11       0.23126851      -0.05045482       0.15978718
O        3.17337425       2.03875716       1.02167613       12      -0.23126851      -0.05045482       0.15978718
O        4.74470348       4.59839825       2.54366947       13       0.23126851      -0.05045482      -0.15978718
O        4.74470348       3.08052504       4.58702173       14       0.23126851       0.05045482       0.15978718
O        3.17337425       0.52088394       6.10901507       15      -0.23126851       0.05045482      -0.15978718
O        5.03569475       3.83946165       0.00000000       16      -0.37816535       0.00000000       0.00000000
O        2.88238298       1.27982055       3.56534560       17       0.37816535       0.00000000      -0.00000000
O        0.24302373       1.27982055       0.00000000       18       0.37816535      -0.00000000       0.00000000
O        2.39633551       3.83946165       3.56534560       19      -0.37816535       0.00000000      -0.00000000
20
Lattice="5.3205371320876775 -6.050449798002251e-60 4.1638351802634945e-44 5.161542542873401e-60 5.09712613359145 -1.2140852321914469e-16 -5.435794089278168e-44 2.0672993038188865e-16 7.105396901285059" Properties=species:S:1:pos:R:3:spacegroup_kinds:I:1:forces:R:3 spacegroup="P 1" unit_cell=conventional occupancy="_JSON {\"0\": {\"In\": 1}, \"1\": {\"In\": 1}, \"2\": {\"In\": 1}, \"3\": {\"In\": 1}, \"4\": {\"In\": 1}, \"5\": {\"In\": 1}, \"6\": {\"In\": 1}, \"7\": {\"In\": 1}, \"8\": {\"O\": 1}, \"9\": {\"O\": 1}, \"10\": {\"O\": 1}, \"11\": {\"O\": 1}, \"12\": {\"O\": 1}, \"13\": {\"O\": 1}, \"14\": {\"O\": 1}, \"15\": {\"O\": 1}, \"16\": {\"O\": 1}, \"17\": {\"O\": 1}, \"18\": {\"O\": 1}, \"19\": {\"O\": 1}}" n_minim_iter=2 energy=-22564.380421819664 stress="-0.55713186385186 6.354963657913457e-13 -7.100537962884084e-13 6.354963657913457e-13 -0.5623688832202054 6.745637515531738e-13 -7.100537962884084e-13 6.745637515531738e-13 -0.5588085639764322" free_energy=-22564.380421819664 pbc="T T T"
In       1.30876665       2.74923461       0.85458230        0      -0.03693600       0.34522898      -0.29764247
In       1.35150192       0.20067154       2.69811615        1       0.03693600       0.34522898       0.29764247
In       1.35150192       2.34789153       4.40728076        2       0.03693600      -0.34522898      -0.29764247
In       1.30876665       4.89645459       6.25081460        3      -0.03693600      -0.34522898       0.29764247
In       4.01177048       2.34789153       6.25081460        4       0.03693600      -0.34522898       0.29764247
In       3.96903521       4.89645459       4.40728076        5      -0.03693600      -0.34522898      -0.29764247
In       3.96903521       2.74923461       2.69811615        6      -0.03693600       0.34522898       0.29764247
In       4.01177048       0.20067154       0.85458230        7       0.03693600       0.34522898      -0.29764247
O        2.12243409       3.06728123       6.08706412        8       0.37795138      -0.06693959      -0.16077068
O        0.53783447       0.51871817       4.57103123        9      -0.37795138      -0.06693959       0.16077068
O        0.53783447       2.02984490       2.53436567       10      -0.37795138       0.06693959      -0.16077068
O        2.12243409       4.57840797       1.01833278       11       0.37795138       0.06693959       0.16077068
O        3.19810304       2.02984490       1.01833278       12      -0.37795138       0.06693959       0.16077068
O        4.78270266       4.57840797       2.53436567       13       0.37795138       0.06693959      -0.16077068
O        4.78270266       3.06728123       4.57103123       14       0.37795138      -0.06693959       0.16077068
O        3.19810304       0.51871817       6.08706412       15      -0.37795138      -0.06693959      -0.16077068
O        5.07491597       3.82284460       0.00000000       16      -0.30295514      -0.00000000       0.00000000
O        2.90588973       1.27428153       3.55269845       17       0.30295514       0.00000000      -0.00000000
O        0.24562117       1.27428153       0.00000000       18       0.30295514      -0.00000000      -0.00000000
O        2.41464740       3.82284460       3.55269845       19      -0.30295514       0.00000000      -0.00000000
20
Lattice="5.318919560487063 -6.051813009507362e-60 4.2087665223311143e-44 5.100705938979215e-60 5.1482652883314755 -1.0770342964485431e-16 -5.319964583902858e-44 2.2642483720480323e-16 7.036956416930391" Properties=species:S:1:pos:R:3:spacegroup_kinds:I:1:forces:R:3 spacegroup="P 1" unit_cell=conventional occupancy="_JSON {\"0\": {\"In\": 1}, \"1\": {\"In\": 1}, \"2\": {\"In\": 1}, \"3\": {\"In\": 1}, \"4\": {\"In\": 1}, \"5\": {\"In\": 1}, \"6\": {\"In\": 1}, \"7\": {\"In\": 1}, \"8\": {\"O\": 1}, \"9\": {\"O\": 1}, \"10\": {\"O\": 1}, \"11\": {\"O\": 1}, \"12\": {\"O\": 1}, \"13\": {\"O\": 1}, \"14\": {\"O\": 1}, \"15\": {\"O\": 1}, \"16\": {\"O\": 1}, \"17\": {\"O\": 1}, \"18\": {\"O\": 1}, \"19\": {\"O\": 1}}" n_minim_iter=3 energy=-22564.441970582047 stress="-0.5333865381594551 -1.5784673163338522e-13 8.230058407477002e-13 -1.5784673163338522e-13 -0.5253083460863777 -3.5047069129967804e-13 8.230058407477002e-13 -3.5047069129967804e-13 -0.5518587643639461" free_energy=-22564.441970582047 pbc="T T T"
In       1.30687169       2.78900292       0.83619602        0      -0.13106353       0.21203705       0.11078844
In       1.35258809       0.21487028       2.68228219        1       0.13106353       0.21203705      -0.11078844
In       1.35258809       2.35926236       4.35467423        2       0.13106353      -0.21203705       0.11078844
In       1.30687169       4.93339501       6.20076040        3      -0.13106353      -0.21203705      -0.11078844
In       4.01204787       2.35926236       6.20076040        4       0.13106353      -0.21203705      -0.11078844
In       3.96633147       4.93339501       4.35467423        5      -0.13106353      -0.21203705       0.11078844
In       3.96633147       2.78900292       2.68228219        6      -0.13106353       0.21203705      -0.11078844
In       4.01204787       0.21487028       0.83619602        7       0.13106353       0.21203705       0.11078844
O        2.13421886       3.09615583       6.02312977        8       0.16646079       0.13404729      -0.32475384
O        0.52524092       0.52202319       4.53230486        9      -0.16646079       0.13404729       0.32475384
O        0.52524092       2.05210945       2.50465156       10      -0.16646079      -0.13404729      -0.32475384
O        2.13421886       4.62624210       1.01382665       11       0.16646079      -0.13404729       0.32475384
O        3.18470070       2.05210945       1.01382665       12      -0.16646079      -0.13404729       0.32475384
O        4.79367864       4.62624210       2.50465156       13       0.16646079      -0.13404729      -0.32475384
O        4.79367864       3.09615583       4.53230486       14       0.16646079       0.13404729       0.32475384
O        3.18470070       0.52202319       6.02312977       15      -0.16646079       0.13404729      -0.32475384
O        5.06283313       3.86119897       0.00000000       16      -0.17853188       0.00000000      -0.00000000
O        2.91554621       1.28706632       3.51847821       17       0.17853188       0.00000000      -0.00000000
O        0.25608643       1.28706632       0.00000000       18       0.17853188      -0.00000000       0.00000000
O        2.40337335       3.86119897       3.51847821       19      -0.17853188       0.00000000      -0.00000000
20
Lattice="5.309408786434466 -6.306420697327991e-60 4.1953671682112075e-44 4.705600538806931e-60 5.128247688740096 -9.259671705568432e-17 -5.359617600160389e-44 2.4713279858956445e-16 7.077079012856993" Properties=species:S:1:pos:R:3:spacegroup_kinds:I:1:forces:R:3 spacegroup="P 1" unit_cell=conventional occupancy="_JSON {\"0\": {\"In\": 1}, \"1\": {\"In\": 1}, \"2\": {\"In\": 1}, \"3\": {\"In\": 1}, \"4\": {\"In\": 1}, \"5\": {\"In\": 1}, \"6\": {\"In\": 1}, \"7\": {\"In\": 1}, \"8\": {\"O\": 1}, \"9\": {\"O\": 1}, \"10\": {\"O\": 1}, \"11\": {\"O\": 1}, \"12\": {\"O\": 1}, \"13\": {\"O\": 1}, \"14\": {\"O\": 1}, \"15\": {\"O\": 1}, \"16\": {\"O\": 1}, \"17\": {\"O\": 1}, \"18\": {\"O\": 1}, \"19\": {\"O\": 1}}" n_minim_iter=4 energy=-22564.469391249866 stress="-0.5261875558459223 -2.2609938259968957e-13 1.404870926517427e-12 -2.2609938259968957e-13 -0.5305244344420602 1.082148910670073e-12 1.404870926517427e-12 1.082148910670073e-12 -0.5272333489834422" free_energy=-22564.469391249866 pbc="T T T"
In       1.30339019       2.78432383       0.83680563        0      -0.20790770      -0.03704112       0.36008728
In       1.35131420       0.22019998       2.70173388        1       0.20790770      -0.03704112      -0.36008728
In       1.35131420       2.34392386       4.37534514        2       0.20790770       0.03704112       0.36008728
In       1.30339019       4.90804770       6.24027338        3      -0.20790770       0.03704112      -0.36008728
In       4.00601859       2.34392386       6.24027338        4       0.20790770       0.03704112      -0.36008728
In       3.95809459       4.90804770       4.37534514        5      -0.20790770       0.03704112       0.36008728
In       3.95809459       2.78432383       2.70173388        6      -0.20790770      -0.03704112      -0.36008728
In       4.00601859       0.22019998       0.83680563        7       0.20790770      -0.03704112       0.36008728
O        2.13647791       3.08377438       6.05398109        8       0.03627054       0.05144766      -0.35552422
O        0.51822648       0.51965054       4.56163743        9      -0.03627054       0.05144766       0.35552422
O        0.51822648       2.04447330       2.51544158       10      -0.03627054      -0.05144766      -0.35552422
O        2.13647791       4.60859715       1.02309793       11       0.03627054      -0.05144766       0.35552422
O        3.17293088       2.04447330       1.02309793       12      -0.03627054      -0.05144766       0.35552422
O        4.79118230       4.60859715       2.51544158       13       0.03627054      -0.05144766      -0.35552422
O        4.79118230       3.08377438       4.56163743       14       0.03627054       0.05144766       0.35552422
O        3.17293088       0.51965054       6.05398109       15      -0.03627054       0.05144766      -0.35552422
O        5.04846550       3.84618577       0.00000000       16      -0.12045900       0.00000000       0.00000000
O        2.91564768       1.28206192       3.53853951       17       0.12045900      -0.00000000      -0.00000000
O        0.26094329       1.28206192       0.00000000       18       0.12045900       0.00000000       0.00000000
O        2.39376110       3.84618577       3.53853951       19      -0.12045900       0.00000000       0.00000000
20
Lattice="5.304452778785717 -4.452011352395038e-60 4.199763979441995e-44 6.926932215910781e-60 5.1355374597306165 -7.931958693087646e-17 -8.743783816577171e-44 2.659053493319546e-16 7.07363607635637" Properties=species:S:1:pos:R:3:spacegroup_kinds:I:1:forces:R:3 spacegroup="P 1" unit_cell=conventional occupancy="_JSON {\"0\": {\"In\": 1}, \"1\": {\"In\": 1}, \"2\": {\"In\": 1}, \"3\": {\"In\": 1}, \"4\": {\"In\": 1}, \"5\": {\"In\": 1}, \"6\": {\"In\": 1}, \"7\": {\"In\": 1}, \"8\": {\"O\": 1}, \"9\": {\"O\": 1}, \"10\": {\"O\": 1}, \"11\": {\"O\": 1}, \"12\": {\"O\": 1}, \"13\": {\"O\": 1}, \"14\": {\"O\": 1}, \"15\": {\"O\": 1}, \"16\": {\"O\": 1}, \"17\": {\"O\": 1}, \"18\": {\"O\": 1}, \"19\": {\"O\": 1}}" n_minim_iter=5 energy=-22564.492587353867 stress="-0.5208693430246041 -4.623552061266337e-13 -1.0821128611135867e-12 -4.623552061266337e-13 -0.5224028636721288 -3.772078444674978e-13 -1.0821128611135867e-12 -3.772078444674978e-13 -0.5215711606551401" free_energy=-22564.492587353867 pbc="T T T"
In       1.29833177       2.79204511       0.83858165        0      -0.05984570       0.05588163       0.12715244
In       1.35389462       0.22427638       2.69823638        1       0.05984570       0.05588162      -0.12715244
In       1.35389462       2.34349235       4.37539969        2       0.05984570      -0.05588163       0.12715244
In       1.29833177       4.91126108       6.23505442        3      -0.05984570      -0.05588162      -0.12715244
In       4.00612101       2.34349235       6.23505442        4       0.05984570      -0.05588163      -0.12715244
In       3.95055816       4.91126108       4.37539969        5      -0.05984570      -0.05588162       0.12715244
In       3.95055816       2.79204511       2.69823638        6      -0.05984570       0.05588163      -0.12715244
In       4.00612101       0.22427638       0.83858165        7       0.05984570       0.05588163       0.12715244
O        2.13887362       3.08878245       6.04373096        8       0.03051917       0.12793234      -0.01154234
O        0.51335277       0.52101372       4.56672316        9      -0.03051917       0.12793234       0.01154234
O        0.51335277       2.04675501       2.50691292       10      -0.03051917      -0.12793234      -0.01154234
O        2.13887362       4.61452374       1.02990512       11       0.03051917      -0.12793234       0.01154234
O        3.16557916       2.04675501       1.02990512       12      -0.03051916      -0.12793234       0.01154234
O        4.79110001       4.61452374       2.50691292       13       0.03051917      -0.12793234      -0.01154234
O        4.79110001       3.08878245       4.56672316       14       0.03051917       0.12793234       0.01154234
O        3.16557916       0.52101372       6.04373096       15      -0.03051917       0.12793234      -0.01154234
O        5.03841713       3.85165309       0.00000000       16      -0.02762623       0.00000000       0.00000000
O        2.91826204       1.28388436       3.53681804       17       0.02762623      -0.00000000       0.00000000
O        0.26603565       1.28388436       0.00000000       18       0.02762623       0.00000000      -0.00000000
O        2.38619074       3.85165309       3.53681804       19      -0.02762623       0.00000000       0.00000000
20
Lattice="5.295735297490588 -4.688722797207636e-60 9.237335357882902e-44 4.7508423344636395e-60 5.14870957708324 -6.311376650288503e-17 1.1669500030004244e-43 2.89137646126412e-16 7.067153706340096" Properties=species:S:1:pos:R:3:spacegroup_kinds:I:1:forces:R:3 spacegroup="P 1" unit_cell=conventional occupancy="_JSON {\"0\": {\"In\": 1}, \"1\": {\"In\": 1}, \"2\": {\"In\": 1}, \"3\": {\"In\": 1}, \"4\": {\"In\": 1}, \"5\": {\"In\": 1}, \"6\": {\"In\": 1}, \"7\": {\"In\": 1}, \"8\": {\"O\": 1}, \"9\": {\"O\": 1}, \"10\": {\"O\": 1}, \"11\": {\"O\": 1}, \"12\": {\"O\": 1}, \"13\": {\"O\": 1}, \"14\": {\"O\": 1}, \"15\": {\"O\": 1}, \"16\": {\"O\": 1}, \"17\": {\"O\": 1}, \"18\": {\"O\": 1}, \"19\": {\"O\": 1}}" n_minim_iter=6 energy=-22564.50023883489 stress="-0.5165111956830241 -7.927894861070177e-13 4.144252478974659e-13 -7.927894861070177e-13 -0.5149683207944258 -4.264808121637422e-13 4.144252478974659e-13 -4.264808121637422e-13 -0.516157015067985" free_energy=-22564.50023883489 pbc="T T T"
In       1.29238261       2.80508134       0.84107016        0       0.01909713       0.01401269      -0.02162259
In       1.35548504       0.23072655       2.69250669        1      -0.01909713       0.01401269       0.02162259
In       1.35548504       2.34362823       4.37464702        2      -0.01909713      -0.01401269      -0.02162259
In       1.29238261       4.91798302       6.22608354        3       0.01909713      -0.01401269       0.02162259
In       4.00335268       2.34362823       6.22608354        4      -0.01909713      -0.01401269       0.02162259
In       3.94025026       4.91798302       4.37464702        5       0.01909713      -0.01401269      -0.02162259
In       3.94025026       2.80508134       2.69250669        6       0.01909713       0.01401269       0.02162259
In       4.00335268       0.23072655       0.84107016        7      -0.01909713       0.01401269      -0.02162259
O        2.14014288       3.10146682       6.03428455        8       0.04249110       0.09465067       0.16643771
O        0.50772477       0.52711203       4.56644601        9      -0.04249110       0.09465067      -0.16643771
O        0.50772477       2.04724276       2.50070769       10      -0.04249110      -0.09465067       0.16643771
O        2.14014288       4.62159755       1.03286916       11       0.04249110      -0.09465067      -0.16643771
O        3.15559242       2.04724276       1.03286916       12      -0.04249110      -0.09465067      -0.16643771
O        4.78801053       4.62159755       2.50070769       13       0.04249110      -0.09465067       0.16643771
O        4.78801053       3.10146682       4.56644601       14       0.04249110       0.09465067      -0.16643771
O        3.15559242       0.52711203       6.03428455       15      -0.04249110       0.09465067       0.16643771
O        5.02531343       3.86153218       0.00000000       16      -0.06112989      -0.00000000      -0.00000000
O        2.91828952       1.28717739       3.53357685       17       0.06112989       0.00000000       0.00000000
O        0.27042187       1.28717739       0.00000000       18       0.06112989      -0.00000000       0.00000000
O        2.37744578       3.86153218       3.53357685       19      -0.06112989      -0.00000000      -0.00000000
20
Lattice="5.2937305843659885 -6.099586994497587e-60 1.648353853983352e-44 2.1819536237995395e-60 5.152977214168345 -8.538117953632759e-17 2.6904169739471118e-43 2.583212950745004e-16 7.063974854460411" Properties=species:S:1:pos:R:3:spacegroup_kinds:I:1:forces:R:3 spacegroup="P 1" unit_cell=conventional occupancy="_JSON {\"0\": {\"In\": 1}, \"1\": {\"In\": 1}, \"2\": {\"In\": 1}, \"3\": {\"In\": 1}, \"4\": {\"In\": 1}, \"5\": {\"In\": 1}, \"6\": {\"In\": 1}, \"7\": {\"In\": 1}, \"8\": {\"O\": 1}, \"9\": {\"O\": 1}, \"10\": {\"O\": 1}, \"11\": {\"O\": 1}, \"12\": {\"O\": 1}, \"13\": {\"O\": 1}, \"14\": {\"O\": 1}, \"15\": {\"O\": 1}, \"16\": {\"O\": 1}, \"17\": {\"O\": 1}, \"18\": {\"O\": 1}, \"19\": {\"O\": 1}}" n_minim_iter=7 energy=-22564.50659801715 stress="-0.514791031910927 8.448054171422971e-13 -4.563534686911987e-13 8.448054171422971e-13 -0.51538294803753 -1.0796161234157179e-12 -4.563534686911987e-13 -1.0796161234157179e-12 -0.5141313086591323" free_energy=-22564.50659801715 pbc="T T T"
In       1.29028964       2.80914130       0.84397015        0      -0.04242241      -0.03487284       0.00534743
In       1.35657565       0.23265269       2.68801728        1       0.04242241      -0.03487284      -0.00534743
In       1.35657565       2.34383592       4.37595758        2       0.04242241       0.03487284       0.00534743
In       1.29028964       4.92032452       6.22000470        3      -0.04242241       0.03487284      -0.00534743
In       4.00344095       2.34383592       6.22000470        4       0.04242241       0.03487284      -0.00534743
In       3.93715493       4.92032452       4.37595758        5      -0.04242241       0.03487284       0.00534743
In       3.93715493       2.80914130       2.68801728        6      -0.04242241      -0.03487284      -0.00534743
In       4.00344095       0.23265269       0.84397015        7       0.04242241      -0.03487284       0.00534743
O        2.14245734       3.11085889       6.03631099        8       0.00742661      -0.03792623       0.01396250
O        0.50440796       0.53437028       4.55965129        9      -0.00742661      -0.03792623      -0.01396250
O        0.50440796       2.04211833       2.50432357       10      -0.00742661       0.03792623       0.01396250
O        2.14245734       4.61860693       1.02766386       11       0.00742661       0.03792623      -0.01396250
O        3.15127325       2.04211833       1.02766386       12      -0.00742661       0.03792623      -0.01396250
O        4.78932263       4.61860693       2.50432357       13       0.00742661       0.03792623       0.01396250
O        4.78932263       3.11085889       4.55965129       14       0.00742661      -0.03792623      -0.01396250
O        3.15127325       0.53437028       6.03631099       15      -0.00742661      -0.03792623       0.01396250
O        5.01909333       3.86473291       0.00000000       16      -0.05322837       0.00000000       0.00000000
O        2.92150254       1.28824430       3.53198743       17       0.05322837      -0.00000000      -0.00000000
O        0.27463725       1.28824430       0.00000000       18       0.05322837      -0.00000000      -0.00000000
O        2.37222804       3.86473291       3.53198743       19      -0.05322837      -0.00000000       0.00000000
20
Lattice="5.294056143667483 -7.53458721698351e-60 1.5675461145209606e-44 9.18581734944474e-61 5.153598337855536 -1.0060912716010138e-16 2.6823746773636806e-43 2.371196499299587e-16 7.06268913920287" Properties=species:S:1:pos:R:3:spacegroup_kinds:I:1:forces:R:3 spacegroup="P 1" unit_cell=conventional occupancy="_JSON {\"0\": {\"In\": 1}, \"1\": {\"In\": 1}, \"2\": {\"In\": 1}, \"3\": {\"In\": 1}, \"4\": {\"In\": 1}, \"5\": {\"In\": 1}, \"6\": {\"In\": 1}, \"7\": {\"In\": 1}, \"8\": {\"O\": 1}, \"9\": {\"O\": 1}, \"10\": {\"O\": 1}, \"11\": {\"O\": 1}, \"12\": {\"O\": 1}, \"13\": {\"O\": 1}, \"14\": {\"O\": 1}, \"15\": {\"O\": 1}, \"16\": {\"O\": 1}, \"17\": {\"O\": 1}, \"18\": {\"O\": 1}, \"19\": {\"O\": 1}}" n_minim_iter=8 energy=-22564.50707063386 stress="-0.5143302460478514 1.586302948267501e-14 1.0886379718641413e-12 1.586302948267501e-14 -0.5145531578768087 -4.5320874681562377e-13 1.0886379718641413e-12 -4.5320874681562377e-13 -0.5144921607249812" free_energy=-22564.50707063386 pbc="T T T"
In       1.28973161       2.80923028       0.84387619        0      -0.02390014      -0.00252713       0.00630814
In       1.35729647       0.23243111       2.68746838        1       0.02390014      -0.00252713      -0.00630814
In       1.35729647       2.34436805       4.37522076        2       0.02390014       0.00252713       0.00630814
In       1.28973161       4.92116722       6.21881295        3      -0.02390014       0.00252713      -0.00630814
In       4.00432454       2.34436805       6.21881295        4       0.02390014       0.00252713      -0.00630814
In       3.93675968       4.92116722       4.37522076        5      -0.02390014       0.00252713       0.00630814
In       3.93675968       2.80923028       2.68746838        6      -0.02390014      -0.00252713      -0.00630814
In       4.00432454       0.23243111       0.84387619        7       0.02390014      -0.00252713       0.00630814
O        2.14291205       3.11103376       6.03561516        8      -0.00200285      -0.02220567       0.01097063
O        0.50411602       0.53423459       4.55841855        9       0.00200285      -0.02220567      -0.01097063
O        0.50411602       2.04256458       2.50427059       10       0.00200285       0.02220567       0.01097063
O        2.14291205       4.61936375       1.02707398       11      -0.00200285       0.02220567      -0.01097063
O        3.15114409       2.04256458       1.02707398       12       0.00200285       0.02220567      -0.01097063
O        4.78994013       4.61936375       2.50427059       13      -0.00200285       0.02220567       0.01097063
O        4.78994013       3.11103376       4.55841855       14      -0.00200285      -0.02220567      -0.01097063
O        3.15114409       0.53423459       6.03561516       15       0.00200285      -0.02220567       0.01097063
O        5.01841611       3.86519875       0.00000000       16      -0.02283561       0.00000000       0.00000000
O        2.92266810       1.28839958       3.53134457       17       0.02283561       0.00000000      -0.00000000
O        0.27564003       1.28839958       0.00000000       18       0.02283561      -0.00000000       0.00000000
O        2.37138804       3.86519875       3.53134457       19      -0.02283561      -0.00000000       0.00000000
20
Lattice="5.293464456857363 -6.572236225211252e-60 1.5445336595937674e-44 -1.246219736327332e-59 5.153862820030264 -8.565881093503354e-17 1.9993618128188507e-43 2.5796452171077334e-16 7.063116105939828" Properties=species:S:1:pos:R:3:spacegroup_kinds:I:1:forces:R:3 spacegroup="P 1" unit_cell=conventional occupancy="_JSON {\"0\": {\"In\": 1}, \"1\": {\"In\": 1}, \"2\": {\"In\": 1}, \"3\": {\"In\": 1}, \"4\": {\"In\": 1}, \"5\": {\"In\": 1}, \"6\": {\"In\": 1}, \"7\": {\"In\": 1}, \"8\": {\"O\": 1}, \"9\": {\"O\": 1}, \"10\": {\"O\": 1}, \"11\": {\"O\": 1}, \"12\": {\"O\": 1}, \"13\": {\"O\": 1}, \"14\": {\"O\": 1}, \"15\": {\"O\": 1}, \"16\": {\"O\": 1}, \"17\": {\"O\": 1}, \"18\": {\"O\": 1}, \"19\": {\"O\": 1}}" n_minim_iter=9 energy=-22564.507303550672 stress="-0.5140807783153714 -8.258581872965526e-13 -1.8434765827542243e-12 -8.258581872965526e-13 -0.5140208810692274 -6.165539353753396e-13 -1.8434765827542243e-12 -6.165539353753396e-13 -0.51428301569843" free_energy=-22564.507303550672 pbc="T T T"
In       1.28872018       2.80951962       0.84416111        0      -0.00134961       0.01834781       0.00941931
In       1.35801205       0.23258821       2.68739694        1       0.00134961       0.01834781      -0.00941931
In       1.35801205       2.34434320       4.37571917        2       0.00134961      -0.01834781       0.00941931
In       1.28872018       4.92127461       6.21895499        3      -0.00134961      -0.01834781      -0.00941931
In       4.00474428       2.34434320       6.21895499        4       0.00134961      -0.01834781      -0.00941931
In       3.93545241       4.92127461       4.37571917        5      -0.00134961      -0.01834781       0.00941931
In       3.93545241       2.80951962       2.68739694        6      -0.00134961       0.01834781      -0.00941931
In       4.00474428       0.23258821       0.84416111        7       0.00134961       0.01834781       0.00941931
O        2.14295499       3.11092761       6.03647061        8      -0.00732328      -0.01180049       0.00862926
O        0.50377724       0.53399620       4.55820355        9       0.00732328      -0.01180049      -0.00862926
O        0.50377724       2.04293521       2.50491256       10       0.00732328       0.01180049       0.00862926
O        2.14295499       4.61986662       1.02664549       11      -0.00732328       0.01180049      -0.00862926
O        3.15050947       2.04293521       1.02664549       12       0.00732328       0.01180049      -0.00862926
O        4.78968722       4.61986662       2.50491256       13      -0.00732328       0.01180049       0.00862926
O        4.78968722       3.11092761       4.55820355       14      -0.00732328      -0.01180049      -0.00862926
O        3.15050947       0.53399620       6.03647061       15       0.00732328      -0.01180049       0.00862926
O        5.01674069       3.86539712       0.00000000       16      -0.00159072       0.00000000       0.00000000
O        2.92345600       1.28846571       3.53155805       17       0.00159072      -0.00000000      -0.00000000
O        0.27672377       1.28846571       0.00000000       18       0.00159072       0.00000000      -0.00000000
O        2.37000846       3.86539712       3.53155805       19      -0.00159072      -0.00000000       0.00000000
20