20
Lattice="5.744520321988946 1.4609310206172184e-62 1.9497894162790105e-43 -2.7161122966335305e-61 5.784939219014486 3.639539052698823e-18 -2.9805717129947485e-43 9.886148289812117e-18 8.311201888559841" Properties=species:S:1:pos:R:3:spacegroup_kinds:I:1:forces:R:3 spacegroup="P 1" unit_cell=conventional occupancy="_JSON {\"0\": {\"In\": 1}, \"1\": {\"In\": 1}, \"2\": {\"In\": 1}, \"3\": {\"In\": 1}, \"4\": {\"In\": 1}, \"5\": {\"In\": 1}, \"6\": {\"In\": 1}, \"7\": {\"In\": 1}, \"8\": {\"O\": 1}, \"9\": {\"O\": 1}, \"10\": {\"O\": 1}, \"11\": {\"O\": 1}, \"12\": {\"O\": 1}, \"13\": {\"O\": 1}, \"14\": {\"O\": 1}, \"15\": {\"O\": 1}, \"16\": {\"O\": 1}, \"17\": {\"O\": 1}, \"18\": {\"O\": 1}, \"19\": {\"O\": 1}}" n_minim_iter=6 energy=-22574.76360053273 stress="0.029793112759082595 -5.208970059358034e-13 -1.0000816690878137e-13 -5.208970059358034e-13 0.029832782398785878 -5.275320438791276e-13 -1.0000816690878137e-13 -5.275320438791276e-13 0.029803507464478324" free_energy=-22574.76360053273 pbc="T T T"
In       1.42231266       3.04020098       0.96000066        0      -0.00331647      -0.00136610      -0.00311843
In       1.44994750       0.14773138       3.19560029        1       0.00331647      -0.00136610       0.00311843
In       1.44994750       2.74473823       5.11560160        2       0.00331647       0.00136610      -0.00311843
In       1.42231266       5.63720784       7.35120123        3      -0.00331647       0.00136610       0.00311843
In       4.32220766       2.74473823       7.35120123        4       0.00331647       0.00136610       0.00311843
In       4.29457282       5.63720784       5.11560160        5      -0.00331647       0.00136610      -0.00311843
In       4.29457282       3.04020098       3.19560029        6      -0.00331647      -0.00136610       0.00311843
In       4.32220766       0.14773138       0.96000066        7       0.00331647      -0.00136610      -0.00311843
O        2.24466699       3.48820481       7.05772353        8       0.00019615       0.00096282      -0.00077182
O        0.62759317       0.59573520       5.40907930        9      -0.00019615       0.00096282       0.00077182
O        0.62759317       2.29673441       2.90212258       10      -0.00019615      -0.00096282      -0.00077182
O        2.24466699       5.18920402       1.25347836       11       0.00019615      -0.00096282       0.00077182
O        3.49985333       2.29673441       1.25347836       12      -0.00019615      -0.00096282       0.00077182
O        5.11692715       5.18920402       2.90212258       13       0.00019615      -0.00096282      -0.00077182
O        5.11692715       3.48820481       5.40907930       14       0.00019615       0.00096282       0.00077182
O        3.49985333       0.59573520       7.05772353       15      -0.00019615       0.00096282      -0.00077182
O        5.50504328       4.33870441       0.00000000       16       0.00224799       0.00000000       0.00000000
O        3.11173721       1.44623480       4.15560094       17      -0.00224799       0.00000000       0.00000000
O        0.23947704       1.44623480       0.00000000       18      -0.00224799      -0.00000000      -0.00000000
O        2.63278312       4.33870441       4.15560094       19       0.00224799      -0.00000000       0.00000000
