20
Lattice="5.796379919631648 9.189640407628144e-62 2.3534646917617766e-43 3.077445444250473e-61 5.816153367569812 -9.850531796089583e-18 -3.403758774172689e-43 1.419814990508919e-17 8.383163375659292" Properties=species:S:1:pos:R:3:spacegroup_kinds:I:1:forces:R:3 spacegroup="P 1" unit_cell=conventional occupancy="_JSON {\"0\": {\"In\": 1}, \"1\": {\"In\": 1}, \"2\": {\"In\": 1}, \"3\": {\"In\": 1}, \"4\": {\"In\": 1}, \"5\": {\"In\": 1}, \"6\": {\"In\": 1}, \"7\": {\"In\": 1}, \"8\": {\"O\": 1}, \"9\": {\"O\": 1}, \"10\": {\"O\": 1}, \"11\": {\"O\": 1}, \"12\": {\"O\": 1}, \"13\": {\"O\": 1}, \"14\": {\"O\": 1}, \"15\": {\"O\": 1}, \"16\": {\"O\": 1}, \"17\": {\"O\": 1}, \"18\": {\"O\": 1}, \"19\": {\"O\": 1}}" n_minim_iter=1 energy=-22574.214078154524 stress="0.05433287732028624 7.965332972304617e-13 -6.506879722254173e-14 7.965332972304617e-13 0.05660119419846671 -5.1222474305707403e-14 -6.506879722254173e-14 -5.1222474305707403e-14 0.054859207390933924" free_energy=-22574.214078154524 pbc="T T T"
In       1.43447316       3.05062507       0.97084940        0      -0.00464082      -0.03254716       0.02592431
In       1.46371680       0.14254839       3.22073228        1       0.00464082      -0.03254716      -0.02592431
In       1.46371680       2.76552830       5.16243109        2       0.00464082       0.03254716       0.02592431
In       1.43447316       5.67360498       7.41231397        3      -0.00464082       0.03254716      -0.02592431
In       4.36190676       2.76552830       7.41231397        4       0.00464082       0.03254716      -0.02592431
In       4.33266312       5.67360498       5.16243109        5      -0.00464082       0.03254716       0.02592431
In       4.33266312       3.05062507       3.22073228        6      -0.00464082      -0.03254716      -0.02592431
In       4.36190676       0.14254839       0.97084940        7       0.00464082      -0.03254716       0.02592431
O        2.26657762       3.50302540       7.11662775        8       0.01579028      -0.04580228      -0.03358987
O        0.63161234       0.59494872       5.45811731        9      -0.01579028      -0.04580228       0.03358987
O        0.63161234       2.31312797       2.92504607       10      -0.01579028       0.04580228      -0.03358987
O        2.26657762       5.22120465       1.26653562       11       0.01579028       0.04580228       0.03358987
O        3.52980230       2.31312797       1.26653562       12      -0.01579028       0.04580228       0.03358987
O        5.16476758       5.22120465       2.92504607       13       0.01579028       0.04580228      -0.03358987
O        5.16476758       3.50302540       5.45811731       14       0.01579028      -0.04580228       0.03358987
O        3.52980230       0.59494872       7.11662775       15      -0.01579028      -0.04580228      -0.03358987
O        5.54818617       4.36211503      -0.00000000       16      -0.08237870      -0.00000000      -0.00000000
O        3.14638371       1.45403834       4.19158169       17       0.08237870       0.00000000      -0.00000000
O        0.24819375       1.45403834      -0.00000000       18       0.08237870       0.00000000       0.00000000
O        2.64999621       4.36211503       4.19158169       19      -0.08237870      -0.00000000       0.00000000
20
Lattice="5.806421019807712 9.017679343676332e-62 2.3354994778338876e-43 3.0605757343131872e-61 5.801725720615121 -9.860363831594043e-18 -3.3995206850787708e-43 1.4159451943621163e-17 8.389477367286005" Properties=species:S:1:pos:R:3:spacegroup_kinds:I:1:forces:R:3 spacegroup="P 1" unit_cell=conventional occupancy="_JSON {\"0\": {\"In\": 1}, \"1\": {\"In\": 1}, \"2\": {\"In\": 1}, \"3\": {\"In\": 1}, \"4\": {\"In\": 1}, \"5\": {\"In\": 1}, \"6\": {\"In\": 1}, \"7\": {\"In\": 1}, \"8\": {\"O\": 1}, \"9\": {\"O\": 1}, \"10\": {\"O\": 1}, \"11\": {\"O\": 1}, \"12\": {\"O\": 1}, \"13\": {\"O\": 1}, \"14\": {\"O\": 1}, \"15\": {\"O\": 1}, \"16\": {\"O\": 1}, \"17\": {\"O\": 1}, \"18\": {\"O\": 1}, \"19\": {\"O\": 1}}" n_minim_iter=2 energy=-22574.215044606928 stress="0.055233686546599284 -3.729861361234997e-13 1.3128262296058021e-13 -3.729861361234997e-13 0.05453499122187899 -3.8258621998297523e-13 1.3128262296058021e-13 -3.8258621998297523e-13 0.055022470192854736" free_energy=-22574.215044606928 pbc="T T T"
In       1.43692754       3.04284420       0.97175118        0       0.00263428      -0.03867552       0.03050920
In       1.46628297       0.14198134       3.22298750        1      -0.00263428      -0.03867552      -0.03050920
In       1.46628297       2.75888152       5.16648987        2      -0.00263428       0.03867552       0.03050920
In       1.43692754       5.65974438       7.41772618        3       0.00263428       0.03867552      -0.03050920
In       4.36949348       2.75888152       7.41772618        4      -0.00263428       0.03867552      -0.03050920
In       4.34013805       5.65974438       5.16648987        5       0.00263428       0.03867552       0.03050920
In       4.34013805       3.04284420       3.22298750        6       0.00263428      -0.03867552      -0.03050920
In       4.36949348       0.14198134       0.97175118        7      -0.00263428      -0.03867552       0.03050920
O        2.27060801       3.49403537       7.12176683        8       0.01019661      -0.04380302      -0.03102526
O        0.63260250       0.59317251       5.46244922        9      -0.01019661      -0.04380302       0.03102526
O        0.63260250       2.30769035       2.92702815       10      -0.01019661       0.04380302      -0.03102526
O        2.27060801       5.20855321       1.26771054       11       0.01019661       0.04380302       0.03102526
O        3.53581301       2.30769035       1.26771054       12      -0.01019661       0.04380302       0.03102526
O        5.17381852       5.20855321       2.92702815       13       0.01019661       0.04380302      -0.03102526
O        5.17381852       3.49403537       5.46244922       14       0.01019661      -0.04380303       0.03102526
O        3.53581301       0.59317251       7.12176683       15      -0.01019661      -0.04380302      -0.03102526
O        5.55725481       4.35129429      -0.00000000       16      -0.07833810       0.00000000      -0.00000000
O        3.15237672       1.45043143       4.19473868       17       0.07833810      -0.00000000       0.00000000
O        0.24916621       1.45043143      -0.00000000       18       0.07833810       0.00000000       0.00000000
O        2.65404430       4.35129429       4.19473868       19      -0.07833810      -0.00000000      -0.00000000
20
Lattice="5.803680139350867 2.253035861477103e-61 2.3330028635295976e-43 2.5210326416449708e-61 5.800989402899868 -6.4991961652317935e-18 -2.9394409088315453e-43 1.901082005640735e-17 8.394504808263381" Properties=species:S:1:pos:R:3:spacegroup_kinds:I:1:forces:R:3 spacegroup="P 1" unit_cell=conventional occupancy="_JSON {\"0\": {\"In\": 1}, \"1\": {\"In\": 1}, \"2\": {\"In\": 1}, \"3\": {\"In\": 1}, \"4\": {\"In\": 1}, \"5\": {\"In\": 1}, \"6\": {\"In\": 1}, \"7\": {\"In\": 1}, \"8\": {\"O\": 1}, \"9\": {\"O\": 1}, \"10\": {\"O\": 1}, \"11\": {\"O\": 1}, \"12\": {\"O\": 1}, \"13\": {\"O\": 1}, \"14\": {\"O\": 1}, \"15\": {\"O\": 1}, \"16\": {\"O\": 1}, \"17\": {\"O\": 1}, \"18\": {\"O\": 1}, \"19\": {\"O\": 1}}" n_minim_iter=3 energy=-22574.21853825855 stress="0.053963868872650644 -4.5368148423103623e-13 -4.199205735196207e-13 -4.5368148423103623e-13 0.05392710739644494 2.2484824612134942e-13 -4.199205735196207e-13 2.2484824612134942e-13 0.0540575360958962" free_energy=-22574.21853825855 pbc="T T T"
In       1.43633825       3.03901258       0.97507466        0       0.00356803       0.00331230       0.01243814
In       1.46550182       0.13851788       3.22217774        1      -0.00356803       0.00331230      -0.01243814
In       1.46550182       2.76197683       5.17232706        2      -0.00356803      -0.00331230       0.01243814
In       1.43633825       5.66247153       7.41943015        3       0.00356803      -0.00331230      -0.01243814
In       4.36734189       2.76197683       7.41943015        4      -0.00356803      -0.00331230      -0.01243814
In       4.33817832       5.66247153       5.17232706        5       0.00356803      -0.00331230       0.01243814
In       4.33817832       3.03901258       3.22217774        6       0.00356803       0.00331230      -0.01243814
In       4.36734189       0.13851788       0.97507466        7      -0.00356803       0.00331230       0.01243814
O        2.27060610       3.48949831       7.12309174        8      -0.00235188      -0.00781359      -0.00077852
O        0.63123397       0.58900360       5.46866548        9       0.00235188      -0.00781359       0.00077852
O        0.63123397       2.31149110       2.92583933       10       0.00235188       0.00781359      -0.00077852
O        2.27060610       5.21198580       1.27141307       11      -0.00235188       0.00781359       0.00077852
O        3.53307404       2.31149110       1.27141307       12       0.00235188       0.00781359       0.00077852
O        5.17244617       5.21198580       2.92583933       13      -0.00235188       0.00781359      -0.00077852
O        5.17244617       3.48949831       5.46866548       14      -0.00235188      -0.00781359       0.00077852
O        3.53307404       0.58900360       7.12309174       15       0.00235188      -0.00781359      -0.00077852
O        5.54724845       4.35074205      -0.00000000       16      -0.00886761       0.00000000       0.00000000
O        3.15827176       1.45024735       4.19725240       17       0.00886761      -0.00000000       0.00000000
O        0.25643169       1.45024735      -0.00000000       18       0.00886761       0.00000000      -0.00000000
O        2.64540838       4.35074205       4.19725240       19      -0.00886761       0.00000000       0.00000000
20
Lattice="5.804669138693295 9.02058662190002e-62 2.761700758035506e-43 1.4291215744589168e-61 5.801269049787484 -9.86867043947341e-18 -2.0097419485032795e-43 1.4151771334379848e-17 8.392669969398899" Properties=species:S:1:pos:R:3:spacegroup_kinds:I:1:forces:R:3 spacegroup="P 1" unit_cell=conventional occupancy="_JSON {\"0\": {\"In\": 1}, \"1\": {\"In\": 1}, \"2\": {\"In\": 1}, \"3\": {\"In\": 1}, \"4\": {\"In\": 1}, \"5\": {\"In\": 1}, \"6\": {\"In\": 1}, \"7\": {\"In\": 1}, \"8\": {\"O\": 1}, \"9\": {\"O\": 1}, \"10\": {\"O\": 1}, \"11\": {\"O\": 1}, \"12\": {\"O\": 1}, \"13\": {\"O\": 1}, \"14\": {\"O\": 1}, \"15\": {\"O\": 1}, \"16\": {\"O\": 1}, \"17\": {\"O\": 1}, \"18\": {\"O\": 1}, \"19\": {\"O\": 1}}" n_minim_iter=4 energy=-22574.2185991514 stress="0.05397129889889961 1.1622217176460914e-12 7.495554936731718e-14 1.1622217176460914e-12 0.053901595418714546 3.809237444379897e-14 7.495554936731718e-14 3.809237444379897e-14 0.05371204813415053" free_energy=-22574.2185991514 pbc="T T T"
In       1.43664713       3.03884085       0.97535642        0       0.00382520       0.00850956       0.00781434
In       1.46568744       0.13820632       3.22097856        1      -0.00382520       0.00850956      -0.00781434
In       1.46568744       2.76242820       5.17169141        2      -0.00382520      -0.00850956       0.00781434
In       1.43664713       5.66306273       7.41731355        3       0.00382520      -0.00850956      -0.00781434
In       4.36802201       2.76242820       7.41731355        4      -0.00382520      -0.00850956      -0.00781434
In       4.33898170       5.66306273       5.17169141        5       0.00382520      -0.00850956       0.00781434
In       4.33898170       3.03884085       3.22097856        6       0.00382520       0.00850956      -0.00781434
In       4.36802201       0.13820632       0.97535642        7      -0.00382520       0.00850956       0.00781434
O        2.27107338       3.48909761       7.12120250        8      -0.00234191      -0.00364837       0.00550641
O        0.63126119       0.58846308       5.46780245        9       0.00234191      -0.00364837      -0.00550641
O        0.63126119       2.31217144       2.92486752       10       0.00234191       0.00364837       0.00550641
O        2.27107338       5.21280597       1.27146746       11      -0.00234191       0.00364837      -0.00550641
O        3.53359576       2.31217144       1.27146746       12       0.00234191       0.00364837      -0.00550641
O        5.17340794       5.21280597       2.92486752       13      -0.00234191       0.00364837       0.00550641
O        5.17340794       3.48909761       5.46780245       14      -0.00234191      -0.00364837      -0.00550641
O        3.53359576       0.58846308       7.12120250       15       0.00234191      -0.00364837       0.00550641
O        5.54724968       4.35095179      -0.00000000       16      -0.00173935      -0.00000000       0.00000000
O        3.15975403       1.45031726       4.19633498       17       0.00173935      -0.00000000      -0.00000000
O        0.25741946       1.45031726      -0.00000000       18       0.00173935      -0.00000000       0.00000000
O        2.64491511       4.35095179       4.19633498       19      -0.00173935      -0.00000000      -0.00000000
20
Lattice="5.803324296495422 -2.99497421476216e-63 2.7613843506611863e-43 3.088577239686527e-61 5.800773433756178 -1.52836399499377e-17 -2.0206715931347933e-43 6.350160679399853e-18 8.395332090486944" Properties=species:S:1:pos:R:3:spacegroup_kinds:I:1:forces:R:3 spacegroup="P 1" unit_cell=conventional occupancy="_JSON {\"0\": {\"In\": 1}, \"1\": {\"In\": 1}, \"2\": {\"In\": 1}, \"3\": {\"In\": 1}, \"4\": {\"In\": 1}, \"5\": {\"In\": 1}, \"6\": {\"In\": 1}, \"7\": {\"In\": 1}, \"8\": {\"O\": 1}, \"9\": {\"O\": 1}, \"10\": {\"O\": 1}, \"11\": {\"O\": 1}, \"12\": {\"O\": 1}, \"13\": {\"O\": 1}, \"14\": {\"O\": 1}, \"15\": {\"O\": 1}, \"16\": {\"O\": 1}, \"17\": {\"O\": 1}, \"18\": {\"O\": 1}, \"19\": {\"O\": 1}}" n_minim_iter=5 energy=-22574.218620686323 stress="0.053738587117071836 3.5584321671297416e-13 7.141695020846208e-13 3.5584321671297416e-13 0.05380624761864121 -1.6208900862917321e-13 7.141695020846208e-13 -1.6208900862917321e-13 0.05387872345240539" free_energy=-22574.218620686323 pbc="T T T"
In       1.43637369       3.03854325       0.97592074        0       0.00202597       0.00932477       0.00723521
In       1.46528846       0.13815653       3.22174531        1      -0.00202597       0.00932477      -0.00723521
In       1.46528846       2.76223018       5.17358678        2      -0.00202597      -0.00932477       0.00723521
In       1.43637369       5.66261690       7.41941135        3       0.00202597      -0.00932477      -0.00723521
In       4.36695061       2.76223018       7.41941135        4      -0.00202597      -0.00932477      -0.00723521
In       4.33803584       5.66261690       5.17358678        5       0.00202597      -0.00932477       0.00723521
In       4.33803584       3.03854325       3.22174531        6       0.00202597       0.00932477      -0.00723521
In       4.36695061       0.13815653       0.97592074        7      -0.00202597       0.00932477       0.00723521
O        2.27055488       3.48855658       7.12339085        8      -0.00365381      -0.00160656       0.00409282
O        0.63110727       0.58816986       5.46960729        9       0.00365381      -0.00160656      -0.00409282
O        0.63110727       2.31221685       2.92572480       10       0.00365381       0.00160656       0.00409282
O        2.27055488       5.21260357       1.27194124       11      -0.00365381       0.00160656      -0.00409282
O        3.53276942       2.31221685       1.27194124       12       0.00365381       0.00160656      -0.00409282
O        5.17221702       5.21260357       2.92572480       13      -0.00365381       0.00160656       0.00409282
O        5.17221702       3.48855658       5.46960729       14      -0.00365381      -0.00160656      -0.00409282
O        3.53276942       0.58816986       7.12339085       15       0.00365381      -0.00160656       0.00409282
O        5.54560125       4.35058008      -0.00000000       16       0.00174807      -0.00000000       0.00000000
O        3.15938520       1.45019336       4.19766605       17      -0.00174807       0.00000000       0.00000000
O        0.25772305       1.45019336      -0.00000000       18      -0.00174807       0.00000000       0.00000000
O        2.64393910       4.35058008       4.19766605       19       0.00174807      -0.00000000       0.00000000
20
Lattice="5.804265979700922 -2.8283166772757072e-61 2.7615794905526803e-43 -2.9220483401881744e-61 5.800673659360533 -1.9450267433715397e-17 7.649101297213972e-44 3.417500426169498e-19 8.39411441346951" Properties=species:S:1:pos:R:3:spacegroup_kinds:I:1:forces:R:3 spacegroup="P 1" unit_cell=conventional occupancy="_JSON {\"0\": {\"In\": 1}, \"1\": {\"In\": 1}, \"2\": {\"In\": 1}, \"3\": {\"In\": 1}, \"4\": {\"In\": 1}, \"5\": {\"In\": 1}, \"6\": {\"In\": 1}, \"7\": {\"In\": 1}, \"8\": {\"O\": 1}, \"9\": {\"O\": 1}, \"10\": {\"O\": 1}, \"11\": {\"O\": 1}, \"12\": {\"O\": 1}, \"13\": {\"O\": 1}, \"14\": {\"O\": 1}, \"15\": {\"O\": 1}, \"16\": {\"O\": 1}, \"17\": {\"O\": 1}, \"18\": {\"O\": 1}, \"19\": {\"O\": 1}}" n_minim_iter=6 energy=-22574.21873130943 stress="0.053793116636318895 1.759641271143177e-13 4.0997320580065524e-13 1.759641271143177e-13 0.05379499775828595 3.824801546717397e-13 4.0997320580065524e-13 3.824801546717397e-13 0.05377543477143928" free_energy=-22574.21873130943 pbc="T T T"
In       1.43699487       3.03952810       0.97694687        0      -0.00450961       0.00481181      -0.00156814
In       1.46513812       0.13919127       3.22011033        1       0.00450961       0.00481181       0.00156814
In       1.46513812       2.76114556       5.17400408        2       0.00450961      -0.00481181      -0.00156814
In       1.43699487       5.66148239       7.41716754        3      -0.00450961      -0.00481181       0.00156814
In       4.36727111       2.76114556       7.41716754        4       0.00450961      -0.00481181       0.00156814
In       4.33912786       5.66148239       5.17400408        5      -0.00450961      -0.00481181      -0.00156814
In       4.33912786       3.03952810       3.22011033        6      -0.00450961       0.00481181       0.00156814
In       4.36727111       0.13919127       0.97694687        7       0.00450961       0.00481181      -0.00156814
O        2.27052610       3.48799442       7.12281985        8       0.00015782      -0.00138649       0.00374924
O        0.63160689       0.58765759       5.46835177        9      -0.00015782      -0.00138649      -0.00374924
O        0.63160689       2.31267924       2.92576264       10      -0.00015782       0.00138649       0.00374924
O        2.27052610       5.21301607       1.27129456       11       0.00015782       0.00138649      -0.00374924
O        3.53373988       2.31267924       1.27129456       12      -0.00015782       0.00138649      -0.00374924
O        5.17265909       5.21301607       2.92576264       13       0.00015782       0.00138649       0.00374924
O        5.17265909       3.48799442       5.46835177       14       0.00015782      -0.00138649      -0.00374924
O        3.53373988       0.58765759       7.12281985       15      -0.00015782      -0.00138649       0.00374924
O        5.54624219       4.35050524      -0.00000000       16      -0.00304402      -0.00000000      -0.00000000
O        3.16015678       1.45016841       4.19705721       17       0.00304402      -0.00000000       0.00000000
O        0.25802379       1.45016841      -0.00000000       18       0.00304402      -0.00000000      -0.00000000
O        2.64410920       4.35050524       4.19705721       19      -0.00304402       0.00000000       0.00000000
