20
Lattice="5.384819366861564 1.6005515639909713e-59 6.2973950379348e-44 -1.5594313426663357e-59 5.2454804649753735 2.5314168328164377e-19 -8.775972855248808e-44 -3.6214614189817635e-19 7.504218539463401" Properties=species:S:1:pos:R:3:spacegroup_kinds:I:1:forces:R:3 spacegroup="P 1" unit_cell=conventional occupancy="_JSON {\"0\": {\"In\": 1}, \"1\": {\"In\": 1}, \"2\": {\"In\": 1}, \"3\": {\"In\": 1}, \"4\": {\"In\": 1}, \"5\": {\"In\": 1}, \"6\": {\"In\": 1}, \"7\": {\"In\": 1}, \"8\": {\"O\": 1}, \"9\": {\"O\": 1}, \"10\": {\"O\": 1}, \"11\": {\"O\": 1}, \"12\": {\"O\": 1}, \"13\": {\"O\": 1}, \"14\": {\"O\": 1}, \"15\": {\"O\": 1}, \"16\": {\"O\": 1}, \"17\": {\"O\": 1}, \"18\": {\"O\": 1}, \"19\": {\"O\": 1}}" n_minim_iter=1 energy=-22571.621562037435 stress="-0.24436008263445358 -4.764108436528411e-13 6.065073691914611e-14 -4.764108436528411e-13 -0.22829653173297879 -4.1235050332240465e-13 6.065073691914611e-14 -4.1235050332240465e-13 -0.2262814938100212" free_energy=-22571.621562037435 pbc="T T T"
In       1.34434337       2.76497374       0.92429287        0       0.03272234       0.08686240      -0.09238928
In       1.34806632       0.14223350       2.82781640        1      -0.03272234       0.08686240       0.09238928
In       1.34806632       2.48050673       4.67640214        2      -0.03272234      -0.08686240      -0.09238928
In       1.34434337       5.10324696       6.57992567        3       0.03272234      -0.08686240       0.09238928
In       4.04047600       2.48050673       6.57992567        4      -0.03272234      -0.08686240       0.09238928
In       4.03675305       5.10324696       4.67640214        5       0.03272234      -0.08686240      -0.09238928
In       4.03675305       2.76497374       2.82781640        6       0.03272234       0.08686240       0.09238928
In       4.04047600       0.14223350       0.92429287        7      -0.03272234       0.08686240      -0.09238928
O        2.08708020       3.13754952       6.45152571        8       0.03700780       0.03025532       0.11429119
O        0.60532948       0.51480929       4.80480210        9      -0.03700780       0.03025532      -0.11429119
O        0.60532948       2.10793095       2.69941644       10      -0.03700780      -0.03025532       0.11429119
O        2.08708020       4.73067118       1.05269283       11       0.03700780      -0.03025532      -0.11429119
O        3.29773916       2.10793095       1.05269283       12      -0.03700780      -0.03025532      -0.11429119
O        4.77948989       4.73067118       2.69941644       13       0.03700780      -0.03025532       0.11429119
O        4.77948989       3.13754952       4.80480210       14       0.03700780       0.03025532      -0.11429119
O        3.29773916       0.51480929       6.45152571       15      -0.03700780       0.03025532       0.11429119
O        5.17780770       3.93411035       0.00000000       16      -0.06024939       0.00000000      -0.00000000
O        2.89942135       1.31137012       3.75210927       17       0.06024939      -0.00000000       0.00000000
O        0.20701166       1.31137012       0.00000000       18       0.06024939       0.00000000       0.00000000
O        2.48539802       3.93411035       3.75210927       19      -0.06024939      -0.00000000       0.00000000
20
Lattice="5.413155851920878 1.612990539980515e-59 6.412032601634789e-44 -1.5523130497372524e-59 5.234164524035687 2.523609632326046e-19 -8.63927585446512e-44 -3.6136489328222647e-19 7.481074607613931" Properties=species:S:1:pos:R:3:spacegroup_kinds:I:1:forces:R:3 spacegroup="P 1" unit_cell=conventional occupancy="_JSON {\"0\": {\"In\": 1}, \"1\": {\"In\": 1}, \"2\": {\"In\": 1}, \"3\": {\"In\": 1}, \"4\": {\"In\": 1}, \"5\": {\"In\": 1}, \"6\": {\"In\": 1}, \"7\": {\"In\": 1}, \"8\": {\"O\": 1}, \"9\": {\"O\": 1}, \"10\": {\"O\": 1}, \"11\": {\"O\": 1}, \"12\": {\"O\": 1}, \"13\": {\"O\": 1}, \"14\": {\"O\": 1}, \"15\": {\"O\": 1}, \"16\": {\"O\": 1}, \"17\": {\"O\": 1}, \"18\": {\"O\": 1}, \"19\": {\"O\": 1}}" n_minim_iter=2 energy=-22571.631549833262 stress="-0.22924270790583118 3.5345884805647865e-13 -5.722071228306318e-13 3.5345884805647865e-13 -0.2293658228686191 -2.0978304358113296e-13 -5.722071228306318e-13 -2.0978304358113296e-13 -0.22982120055307828" free_energy=-22571.631549833262 pbc="T T T"
In       1.35148926       2.75919751       0.92124184        0       0.10772616       0.04775047      -0.09830872
In       1.35508866       0.14211525       2.81929546        1      -0.10772616       0.04775047       0.09830872
In       1.35508866       2.47496701       4.66177914        2      -0.10772616      -0.04775047      -0.09830872
In       1.35148926       5.09204928       6.55983277        3       0.10772616      -0.04775047       0.09830872
In       4.06166659       2.47496701       6.55983277        4      -0.10772616      -0.04775047       0.09830872
In       4.05806719       5.09204928       4.66177914        5       0.10772616      -0.04775047      -0.09830872
In       4.05806719       2.75919751       2.81929546        6       0.10772616       0.04775047       0.09830872
In       4.06166659       0.14211525       0.92124184        7      -0.10772616       0.04775047      -0.09830872
O        2.09814397       3.13084665       6.43187631        8       0.13042082       0.00356900       0.11800013
O        0.60843396       0.51376439       4.78973560        9      -0.13042082       0.00356900      -0.11800013
O        0.60843396       2.10331788       2.69133901       10      -0.13042082      -0.00356900       0.11800013
O        2.09814397       4.72040014       1.04919830       11       0.13042082      -0.00356900      -0.11800013
O        3.31501188       2.10331788       1.04919830       12      -0.13042082      -0.00356900      -0.11800013
O        4.80472190       4.72040014       2.69133901       13       0.13042082      -0.00356900       0.11800013
O        4.80472190       3.13084665       4.78973560       14       0.13042082       0.00356900      -0.11800013
O        3.31501188       0.51376439       6.43187631       15      -0.13042082       0.00356900       0.11800013
O        5.20492306       3.92562339       0.00000000       16      -0.03023749      -0.00000000       0.00000000
O        2.91481072       1.30854113       3.74053730       17       0.03023749       0.00000000      -0.00000000
O        0.20823279       1.30854113       0.00000000       18       0.03023749       0.00000000      -0.00000000
O        2.49834513       3.92562339       3.74053730       19      -0.03023749      -0.00000000       0.00000000
20
Lattice="5.417110229987715 1.6142937299330025e-59 6.417573347515137e-44 -1.5507302909031024e-59 5.229281268158423 2.524122349898683e-19 -8.639731930970562e-44 -3.610277549995352e-19 7.482594525102118" Properties=species:S:1:pos:R:3:spacegroup_kinds:I:1:forces:R:3 spacegroup="P 1" unit_cell=conventional occupancy="_JSON {\"0\": {\"In\": 1}, \"1\": {\"In\": 1}, \"2\": {\"In\": 1}, \"3\": {\"In\": 1}, \"4\": {\"In\": 1}, \"5\": {\"In\": 1}, \"6\": {\"In\": 1}, \"7\": {\"In\": 1}, \"8\": {\"O\": 1}, \"9\": {\"O\": 1}, \"10\": {\"O\": 1}, \"11\": {\"O\": 1}, \"12\": {\"O\": 1}, \"13\": {\"O\": 1}, \"14\": {\"O\": 1}, \"15\": {\"O\": 1}, \"16\": {\"O\": 1}, \"17\": {\"O\": 1}, \"18\": {\"O\": 1}, \"19\": {\"O\": 1}}" n_minim_iter=3 energy=-22571.635551257128 stress="-0.2277881219304911 -6.609987445935586e-13 -2.8137127521154364e-13 -6.609987445935586e-13 -0.22975219533181906 1.6401206438324186e-13 -2.8137127521154364e-13 1.6401206438324186e-13 -0.22673169633425772" free_energy=-22571.635551257128 pbc="T T T"
In       1.35406788       2.75736042       0.91996405        0       0.02687286       0.00551842      -0.00923663
In       1.35448724       0.14271979       2.82133321        1      -0.02687286       0.00551842       0.00923663
In       1.35448724       2.47192085       4.66126131        2      -0.02687286      -0.00551842      -0.00923663
In       1.35406788       5.08656148       6.56263047        3       0.02687286      -0.00551842       0.00923663
In       4.06304235       2.47192085       6.56263047        4      -0.02687286      -0.00551842       0.00923663
In       4.06262299       5.08656148       4.66126131        5       0.02687286      -0.00551842      -0.00923663
In       4.06262299       2.75736042       2.82133321        6       0.02687286       0.00551842       0.00923663
In       4.06304235       0.14271979       0.91996405        7      -0.02687286       0.00551842      -0.00923663
O        2.10160170       3.12799499       6.43494348        8       0.08048588      -0.01965347       0.01140812
O        0.60695342       0.51335435       4.78894831        9      -0.08048588      -0.01965347      -0.01140812
O        0.60695342       2.10128628       2.69364622       10      -0.08048588       0.01965347       0.01140812
O        2.10160170       4.71592691       1.04765104       11       0.08048588       0.01965347      -0.01140812
O        3.31550853       2.10128628       1.04765104       12      -0.08048588       0.01965347      -0.01140812
O        4.81015681       4.71592691       2.69364622       13       0.08048588       0.01965347       0.01140812
O        4.81015681       3.12799499       4.78894831       14       0.08048588      -0.01965347      -0.01140812
O        3.31550853       0.51335435       6.43494348       15      -0.08048588      -0.01965347       0.01140812
O        5.20824787       3.92196095       0.00000000       16      -0.01978641      -0.00000000       0.00000000
O        2.91741748       1.30732032       3.74129726       17       0.01978641       0.00000000      -0.00000000
O        0.20886236       1.30732032       0.00000000       18       0.01978641       0.00000000       0.00000000
O        2.49969275       3.92196095       3.74129726       19      -0.01978641      -0.00000000      -0.00000000
20
Lattice="5.417371090801888 1.6165182351479975e-59 5.245330482373227e-44 -1.5526779650616706e-59 5.23686504448795 2.1566756579554177e-18 -6.923248977817174e-44 2.363240621528219e-18 7.471398806212921" Properties=species:S:1:pos:R:3:spacegroup_kinds:I:1:forces:R:3 spacegroup="P 1" unit_cell=conventional occupancy="_JSON {\"0\": {\"In\": 1}, \"1\": {\"In\": 1}, \"2\": {\"In\": 1}, \"3\": {\"In\": 1}, \"4\": {\"In\": 1}, \"5\": {\"In\": 1}, \"6\": {\"In\": 1}, \"7\": {\"In\": 1}, \"8\": {\"O\": 1}, \"9\": {\"O\": 1}, \"10\": {\"O\": 1}, \"11\": {\"O\": 1}, \"12\": {\"O\": 1}, \"13\": {\"O\": 1}, \"14\": {\"O\": 1}, \"15\": {\"O\": 1}, \"16\": {\"O\": 1}, \"17\": {\"O\": 1}, \"18\": {\"O\": 1}, \"19\": {\"O\": 1}}" n_minim_iter=4 energy=-22571.63642006759 stress="-0.2280038947285089 -4.278813301394668e-14 1.068876029664258e-14 -4.278813301394668e-14 -0.22740606833738206 -8.843510901246857e-13 1.068876029664258e-14 -8.843510901246857e-13 -0.22876108725959088" free_energy=-22571.63642006759 pbc="T T T"
In       1.35466345       2.76157535       0.91817422        0       0.00596962       0.02710264       0.00566885
In       1.35402210       0.14314282       2.81752519        1      -0.00596962       0.02710264      -0.00566885
In       1.35402210       2.47528970       4.65387362        2      -0.00596962      -0.02710264       0.00566885
In       1.35466345       5.09372222       6.55322459        3       0.00596962      -0.02710264      -0.00566885
In       4.06270765       2.47528970       6.55322459        4      -0.00596962      -0.02710264      -0.00566885
In       4.06334899       5.09372222       4.65387362        5       0.00596962      -0.02710264       0.00566885
In       4.06334899       2.76157535       2.81752519        6       0.00596962       0.02710264      -0.00566885
In       4.06270765       0.14314282       0.91817422        7      -0.00596962       0.02710264       0.00566885
O        2.10258646       3.13245326       6.42581380        8       0.05868958       0.00578592      -0.01464725
O        0.60609908       0.51402074       4.78128441        9      -0.05868958       0.00578592       0.01464725
O        0.60609908       2.10441178       2.69011439       10      -0.05868958      -0.00578592      -0.01464725
O        2.10258646       4.72284431       1.04558501       11       0.05868958      -0.00578592       0.01464725
O        3.31478463       2.10441178       1.04558501       12      -0.05868958      -0.00578592       0.01464725
O        4.81127201       4.72284431       2.69011439       13       0.05868958      -0.00578592      -0.01464725
O        4.81127201       3.13245326       4.78128441       14       0.05868958       0.00578592       0.01464725
O        3.31478463       0.51402074       6.42581380       15      -0.05868958       0.00578592      -0.01464725
O        5.20827641       3.92764878       0.00000000       16      -0.02142419      -0.00000000       0.00000000
O        2.91778023       1.30921626       3.73569940       17       0.02142419       0.00000000      -0.00000000
O        0.20909468       1.30921626       0.00000000       18       0.02142419      -0.00000000      -0.00000000
O        2.49959087       3.92764878       3.73569940       19      -0.02142419       0.00000000      -0.00000000
20
Lattice="5.418899460888856 1.635991589892368e-59 5.398895400859257e-44 -1.5286905705159772e-59 5.234882872413068 -3.0351644373122386e-18 -7.544660047460505e-44 -5.066726148116428e-18 7.472119764189305" Properties=species:S:1:pos:R:3:spacegroup_kinds:I:1:forces:R:3 spacegroup="P 1" unit_cell=conventional occupancy="_JSON {\"0\": {\"In\": 1}, \"1\": {\"In\": 1}, \"2\": {\"In\": 1}, \"3\": {\"In\": 1}, \"4\": {\"In\": 1}, \"5\": {\"In\": 1}, \"6\": {\"In\": 1}, \"7\": {\"In\": 1}, \"8\": {\"O\": 1}, \"9\": {\"O\": 1}, \"10\": {\"O\": 1}, \"11\": {\"O\": 1}, \"12\": {\"O\": 1}, \"13\": {\"O\": 1}, \"14\": {\"O\": 1}, \"15\": {\"O\": 1}, \"16\": {\"O\": 1}, \"17\": {\"O\": 1}, \"18\": {\"O\": 1}, \"19\": {\"O\": 1}}" n_minim_iter=5 energy=-22571.63706668359 stress="-0.22758233737382172 -1.698056562422789e-12 4.611534833098735e-14 -1.698056562422789e-12 -0.22753330789376214 1.630525006786377e-14 4.611534833098735e-14 1.630525006786377e-14 -0.22757903850971886" free_energy=-22571.63706668359 pbc="T T T"
In       1.35540873       2.76102677       0.91815823        0      -0.01965570       0.02056033       0.01718227
In       1.35404100       0.14358533       2.81790165        1       0.01965570       0.02056033      -0.01718227
In       1.35404100       2.47385610       4.65421811        2       0.01965570      -0.02056033       0.01718227
In       1.35540873       5.09129754       6.55396153        3      -0.01965570      -0.02056033      -0.01718227
In       4.06349073       2.47385610       6.55396153        4       0.01965570      -0.02056033      -0.01718227
In       4.06485846       5.09129754       4.65421811        5      -0.01965570      -0.02056033       0.01718227
In       4.06485846       2.76102677       2.81790165        6      -0.01965570       0.02056033      -0.01718227
In       4.06349073       0.14358533       0.91815823        7       0.01965570       0.02056033       0.01718227
O        2.10463465       3.13125505       6.42645121        8       0.03131023       0.00603671      -0.02702668
O        0.60481508       0.51381362       4.78172843        9      -0.03131023       0.00603671       0.02702668
O        0.60481508       2.10362782       2.69039133       10      -0.03131023      -0.00603671      -0.02702668
O        2.10463465       4.72106926       1.04566855       11       0.03131023      -0.00603671       0.02702668
O        3.31426481       2.10362782       1.04566855       12      -0.03131023      -0.00603671       0.02702668
O        4.81408438       4.72106926       2.69039133       13       0.03131023      -0.00603671      -0.02702668
O        4.81408438       3.13125505       4.78172843       14       0.03131023       0.00603671       0.02702668
O        3.31426481       0.51381362       6.42645121       15      -0.03131023       0.00603671      -0.02702668
O        5.20927055       3.92616215       0.00000000       16      -0.00734171      -0.00000000      -0.00000000
O        2.91907865       1.30872072       3.73605988       17       0.00734171      -0.00000000      -0.00000000
O        0.20962892       1.30872072       0.00000000       18       0.00734171      -0.00000000      -0.00000000
O        2.49982081       3.92616215       3.73605988       19      -0.00734171      -0.00000000       0.00000000
20
Lattice="5.420137998005119 1.655659096914393e-59 5.553571980327956e-44 -1.5050904838295438e-59 5.234319689060174 -7.863289894942074e-18 -7.12177247818017e-44 -1.1973853924194806e-17 7.47121611011056" Properties=species:S:1:pos:R:3:spacegroup_kinds:I:1:forces:R:3 spacegroup="P 1" unit_cell=conventional occupancy="_JSON {\"0\": {\"In\": 1}, \"1\": {\"In\": 1}, \"2\": {\"In\": 1}, \"3\": {\"In\": 1}, \"4\": {\"In\": 1}, \"5\": {\"In\": 1}, \"6\": {\"In\": 1}, \"7\": {\"In\": 1}, \"8\": {\"O\": 1}, \"9\": {\"O\": 1}, \"10\": {\"O\": 1}, \"11\": {\"O\": 1}, \"12\": {\"O\": 1}, \"13\": {\"O\": 1}, \"14\": {\"O\": 1}, \"15\": {\"O\": 1}, \"16\": {\"O\": 1}, \"17\": {\"O\": 1}, \"18\": {\"O\": 1}, \"19\": {\"O\": 1}}" n_minim_iter=6 energy=-22571.63762266882 stress="-0.22714333548975688 9.554418747676742e-13 1.1931124286131516e-13 9.554418747676742e-13 -0.22741243303171804 -4.44390084005065e-13 1.1931124286131516e-13 -4.44390084005065e-13 -0.22680740169450334" free_energy=-22571.63762266882 pbc="T T T"
In       1.35561582       2.76159044       0.91824752        0      -0.03242596       0.01974124       0.01227645
In       1.35445318       0.14443060       2.81736054        1       0.03242596       0.01974124      -0.01227645
In       1.35445318       2.47272925       4.65385557        2       0.03242596      -0.01974124       0.01227645
In       1.35561582       5.08988909       6.55296859        3      -0.03242596      -0.01974124      -0.01227645
In       4.06452218       2.47272925       6.55296859        4       0.03242596      -0.01974124      -0.01227645
In       4.06568482       5.08988909       4.65385557        5      -0.03242596      -0.01974124       0.01227645
In       4.06568482       2.76159044       2.81736054        6      -0.03242596       0.01974124      -0.01227645
In       4.06452218       0.14443060       0.91824752        7       0.03242596       0.01974124       0.01227645
O        2.10697195       3.13104980       6.42521820        8       0.00580636       0.01304218      -0.01832104
O        0.60309704       0.51388995       4.78160597        9      -0.00580636       0.01304218       0.01832104
O        0.60309704       2.10326989       2.68961014       10      -0.00580636      -0.01304218      -0.01832104
O        2.10697195       4.72042974       1.04599791       11       0.00580636      -0.01304218       0.01832104
O        3.31316604       2.10326989       1.04599791       12      -0.00580636      -0.01304218       0.01832104
O        4.81704095       4.72042974       2.68961014       13       0.00580636      -0.01304218      -0.01832104
O        4.81704095       3.13104980       4.78160597       14       0.00580636       0.01304218       0.01832104
O        3.31316604       0.51388995       6.42521820       15      -0.00580636       0.01304218      -0.01832104
O        5.20995197       3.92573977       0.00000000       16       0.00517289       0.00000000       0.00000000
O        2.92025503       1.30857992       3.73560806       17      -0.00517289      -0.00000000      -0.00000000
O        0.21018603       1.30857992       0.00000000       18      -0.00517289      -0.00000000       0.00000000
O        2.49988297       3.92573977       3.73560806       19       0.00517289       0.00000000      -0.00000000
20
Lattice="5.420530760953638 1.6744398041615306e-59 5.596372841650785e-44 -1.4846314823888908e-59 5.23565726492189 -1.2994089118785077e-17 -7.008100467924507e-44 -1.932684706061606e-17 7.468766192411356" Properties=species:S:1:pos:R:3:spacegroup_kinds:I:1:forces:R:3 spacegroup="P 1" unit_cell=conventional occupancy="_JSON {\"0\": {\"In\": 1}, \"1\": {\"In\": 1}, \"2\": {\"In\": 1}, \"3\": {\"In\": 1}, \"4\": {\"In\": 1}, \"5\": {\"In\": 1}, \"6\": {\"In\": 1}, \"7\": {\"In\": 1}, \"8\": {\"O\": 1}, \"9\": {\"O\": 1}, \"10\": {\"O\": 1}, \"11\": {\"O\": 1}, \"12\": {\"O\": 1}, \"13\": {\"O\": 1}, \"14\": {\"O\": 1}, \"15\": {\"O\": 1}, \"16\": {\"O\": 1}, \"17\": {\"O\": 1}, \"18\": {\"O\": 1}, \"19\": {\"O\": 1}}" n_minim_iter=7 energy=-22571.638101065902 stress="-0.2267276290596911 2.1159595703868485e-13 -3.928027270436084e-13 2.1159595703868485e-13 -0.2270614322266553 -6.254239285587338e-14 -3.928027270436084e-13 -6.254239285587338e-14 -0.22641815351599195" free_energy=-22571.638101065902 pbc="T T T"
In       1.35506131       2.76357628       0.91825493        0      -0.03070848       0.01828399       0.00160275
In       1.35520407       0.14574765       2.81612817        1       0.03070848       0.01828399      -0.00160275
In       1.35520407       2.47208099       4.65263803        2       0.03070848      -0.01828399       0.00160275
In       1.35506131       5.08990962       6.55051126        3      -0.03070848      -0.01828399      -0.00160275
In       4.06546945       2.47208099       6.55051126        4       0.03070848      -0.01828399      -0.00160275
In       4.06532669       5.08990962       4.65263803        5      -0.03070848      -0.01828399       0.00160275
In       4.06532669       2.76357628       2.81612817        6      -0.03070848       0.01828399      -0.00160275
In       4.06546945       0.14574765       0.91825493        7       0.03070848       0.01828399       0.00160275
O        2.10902909       3.13230461       6.42246574        8      -0.01087979       0.02124909      -0.00089222
O        0.60123629       0.51447598       4.78068355        9       0.01087979       0.02124909       0.00089222
O        0.60123629       2.10335265       2.68808264       10       0.01087979      -0.02124909      -0.00089222
O        2.10902909       4.72118129       1.04630046       11      -0.01087979      -0.02124909       0.00089222
O        3.31150167       2.10335265       1.04630046       12       0.01087979      -0.02124909       0.00089222
O        4.81929447       4.72118129       2.68808264       13      -0.01087979      -0.02124909      -0.00089222
O        4.81929447       3.13230461       4.78068355       14      -0.01087979       0.02124909       0.00089222
O        3.31150167       0.51447598       6.42246574       15       0.01087979       0.02124909      -0.00089222
O        5.20993910       3.92674295       0.00000000       16       0.00796699      -0.00000000       0.00000000
O        2.92085704       1.30891432       3.73438310       17      -0.00796699      -0.00000000      -0.00000000
O        0.21059166       1.30891432       0.00000000       18      -0.00796699       0.00000000       0.00000000
O        2.49967372       3.92674295       3.73438310       19       0.00796699      -0.00000000      -0.00000000
20
Lattice="5.419858663828346 1.2957293815216896e-59 7.991285214048326e-44 -1.4091309513389756e-59 5.2386969262028975 -1.6785262965193026e-17 -3.6661887646244945e-44 -2.4773211295319317e-17 7.465358210223788" Properties=species:S:1:pos:R:3:spacegroup_kinds:I:1:forces:R:3 spacegroup="P 1" unit_cell=conventional occupancy="_JSON {\"0\": {\"In\": 1}, \"1\": {\"In\": 1}, \"2\": {\"In\": 1}, \"3\": {\"In\": 1}, \"4\": {\"In\": 1}, \"5\": {\"In\": 1}, \"6\": {\"In\": 1}, \"7\": {\"In\": 1}, \"8\": {\"O\": 1}, \"9\": {\"O\": 1}, \"10\": {\"O\": 1}, \"11\": {\"O\": 1}, \"12\": {\"O\": 1}, \"13\": {\"O\": 1}, \"14\": {\"O\": 1}, \"15\": {\"O\": 1}, \"16\": {\"O\": 1}, \"17\": {\"O\": 1}, \"18\": {\"O\": 1}, \"19\": {\"O\": 1}}" n_minim_iter=8 energy=-22571.638511180834 stress="-0.22637687719621177 4.102905647716362e-13 -5.888065523449291e-13 4.102905647716362e-13 -0.22659417472440538 1.4221771185276276e-12 -5.888065523449291e-13 1.4221771185276276e-12 -0.22626659013910885" free_energy=-22571.638511180834 pbc="T T T"
In       1.35379234       2.76677697       0.91809987        0      -0.01759337       0.01206508      -0.00559249
In       1.35613699       0.14742851       2.81457923        1       0.01759337       0.01206508       0.00559249
In       1.35613699       2.47191996       4.65077898        2       0.01759337      -0.01206508      -0.00559249
In       1.35379234       5.09126842       6.54725834        3      -0.01759337      -0.01206508       0.00559249
In       4.06606632       2.47191996       6.54725834        4       0.01759337      -0.01206508       0.00559249
In       4.06372168       5.09126842       4.65077898        5      -0.01759337      -0.01206508      -0.00559249
In       4.06372168       2.76677697       2.81457923        6      -0.01759337       0.01206508       0.00559249
In       4.06606632       0.14742851       0.91809987        7       0.01759337       0.01206508      -0.00559249
O        2.11042734       3.13500559       6.41898230        8      -0.01612171       0.02554784       0.01365484
O        0.59950199       0.51565713       4.77905502        9       0.01612171       0.02554784      -0.01365484
O        0.59950199       2.10369133       2.68630320       10       0.01612171      -0.02554784       0.01365484
O        2.11042734       4.72303980       1.04637591       11      -0.01612171      -0.02554784      -0.01365484
O        3.30943132       2.10369133       1.04637591       12       0.01612171      -0.02554784      -0.01365484
O        4.82035667       4.72303980       2.68630320       13      -0.01612171      -0.02554784       0.01365484
O        4.82035667       3.13500559       4.77905502       14      -0.01612171       0.02554784      -0.01365484
O        3.30943132       0.51565713       6.41898230       15       0.01612171       0.02554784       0.01365484
O        5.20900176       3.92902269       0.00000000       16      -0.00041481      -0.00000000       0.00000000
O        2.92078624       1.30967423       3.73267911       17       0.00041481      -0.00000000      -0.00000000
O        0.21085690       1.30967423       0.00000000       18       0.00041481      -0.00000000       0.00000000
O        2.49907243       3.92902269       3.73267911       19      -0.00041481       0.00000000       0.00000000
20
Lattice="5.418432983870436 1.263672041867386e-59 3.214335123185257e-44 -1.429400872454201e-59 5.24224954737021 -6.0163255427235094e-18 -1.6979634859856643e-43 -9.391515821041036e-18 7.462261939007468" Properties=species:S:1:pos:R:3:spacegroup_kinds:I:1:forces:R:3 spacegroup="P 1" unit_cell=conventional occupancy="_JSON {\"0\": {\"In\": 1}, \"1\": {\"In\": 1}, \"2\": {\"In\": 1}, \"3\": {\"In\": 1}, \"4\": {\"In\": 1}, \"5\": {\"In\": 1}, \"6\": {\"In\": 1}, \"7\": {\"In\": 1}, \"8\": {\"O\": 1}, \"9\": {\"O\": 1}, \"10\": {\"O\": 1}, \"11\": {\"O\": 1}, \"12\": {\"O\": 1}, \"13\": {\"O\": 1}, \"14\": {\"O\": 1}, \"15\": {\"O\": 1}, \"16\": {\"O\": 1}, \"17\": {\"O\": 1}, \"18\": {\"O\": 1}, \"19\": {\"O\": 1}}" n_minim_iter=9 energy=-22571.638794102848 stress="-0.22617963139968011 -4.817311010308788e-13 -4.2689382114886093e-13 -4.817311010308788e-13 -0.226224274722904 -9.122978592419596e-13 -4.2689382114886093e-13 -9.122978592419596e-13 -0.22623775514365355" free_energy=-22571.638794102848 pbc="T T T"
In       1.35232818       2.77004797       0.91784853        0      -0.00152356       0.00245544      -0.00427944
In       1.35688831       0.14892320       2.81328244        1       0.00152356       0.00245544       0.00427944
In       1.35688831       2.47220158       4.64897949        2       0.00152356      -0.00245544      -0.00427944
In       1.35232818       5.09332635       6.54441341        3      -0.00152356      -0.00245544       0.00427944
In       4.06610481       2.47220158       6.54441341        4       0.00152356      -0.00245544       0.00427944
In       4.06154467       5.09332635       4.64897949        5      -0.00152356      -0.00245544      -0.00427944
In       4.06154467       2.77004797       2.81328244        6      -0.00152356       0.00245544       0.00427944
In       4.06610481       0.14892320       0.91784853        7       0.00152356       0.00245544      -0.00427944
O        2.11084149       3.13827144       6.41612711        8      -0.01101025       0.02291571       0.01668195
O        0.59837500       0.51714666       4.77726579        9       0.01101025       0.02291571      -0.01668195
O        0.59837500       2.10397811       2.68499615       10       0.01101025      -0.02291571       0.01668195
O        2.11084149       4.72510288       1.04613482       11      -0.01101025      -0.02291571      -0.01668195
O        3.30759149       2.10397811       1.04613482       12       0.01101025      -0.02291571      -0.01668195
O        4.82005798       4.72510288       2.68499615       13      -0.01101025      -0.02291571       0.01668195
O        4.82005798       3.13827144       4.77726579       14      -0.01101025       0.02291571      -0.01668195
O        3.30759149       0.51714666       6.41612711       15       0.01101025       0.02291571       0.01668195
O        5.20733114       3.93168716       0.00000000       16      -0.01343673       0.00000000       0.00000000
O        2.92031834       1.31056239       3.73113097       17       0.01343673      -0.00000000       0.00000000
O        0.21110185       1.31056239       0.00000000       18       0.01343673      -0.00000000      -0.00000000
O        2.49811465       3.93168716       3.73113097       19      -0.01343673       0.00000000       0.00000000
20