20
Lattice="5.404036534406241 2.295351734660252e-59 6.30821650592343e-44 -2.418534035515585e-59 5.452755580443828 8.779887419225385e-17 -8.905739711263937e-44 -1.228441840738579e-16 7.629247144639296" Properties=species:S:1:pos:R:3:spacegroup_kinds:I:1:forces:R:3 spacegroup="P 1" unit_cell=conventional occupancy="_JSON {\"0\": {\"In\": 1}, \"1\": {\"In\": 1}, \"2\": {\"In\": 1}, \"3\": {\"In\": 1}, \"4\": {\"In\": 1}, \"5\": {\"In\": 1}, \"6\": {\"In\": 1}, \"7\": {\"In\": 1}, \"8\": {\"O\": 1}, \"9\": {\"O\": 1}, \"10\": {\"O\": 1}, \"11\": {\"O\": 1}, \"12\": {\"O\": 1}, \"13\": {\"O\": 1}, \"14\": {\"O\": 1}, \"15\": {\"O\": 1}, \"16\": {\"O\": 1}, \"17\": {\"O\": 1}, \"18\": {\"O\": 1}, \"19\": {\"O\": 1}}" n_minim_iter=1 energy=-22573.558837885405 stress="-0.11225967257933396 2.4708129219993445e-13 -1.8864941184368986e-13 2.4708129219993445e-13 -0.10251735334037233 -1.1561816598651276e-12 -1.8864941184368986e-13 -1.1561816598651276e-12 -0.10353416339970718" free_energy=-22573.558837885405 pbc="T T T"
In       1.34538298       2.89229656       0.90640590        0       0.05349126      -0.02936885       0.10456746
In       1.35663529       0.16591877       2.90821767        1      -0.05349126      -0.02936885      -0.10456746
In       1.35663529       2.56045902       4.72102947        2      -0.05349126       0.02936885       0.10456746
In       1.34538298       5.28683681       6.72284125        3       0.05349126       0.02936885      -0.10456746
In       4.05865356       2.56045902       6.72284125        4      -0.05349126       0.02936885      -0.10456746
In       4.04740124       5.28683681       4.72102947        5       0.05349126       0.02936885       0.10456746
In       4.04740124       2.89229656       2.90821767        6       0.05349126      -0.02936885      -0.10456746
In       4.05865356       0.16591877       0.90640590        7      -0.05349126      -0.02936885       0.10456746
O        2.09860151       3.28991500       6.51614789        8      -0.01672047       0.00910514       0.11858934
O        0.60341676       0.56353721       4.92772283        9       0.01672047       0.00910514      -0.11858934
O        0.60341676       2.16284058       2.70152431       10       0.01672047      -0.00910514       0.11858934
O        2.09860151       4.88921837       1.11309926       11      -0.01672047      -0.00910514      -0.11858934
O        3.30543503       2.16284058       1.11309926       12       0.01672047      -0.00910514      -0.11858934
O        4.80061977       4.88921837       2.70152431       13      -0.01672047      -0.00910514       0.11858934
O        4.80061977       3.28991500       4.92772283       14      -0.01672047       0.00910514      -0.11858934
O        3.30543503       0.56353721       6.51614789       15       0.01672047       0.00910514       0.11858934
O        5.18171610       4.08956669       0.00000000       16       0.03729611       0.00000000      -0.00000000
O        2.92433871       1.36318890       3.81462357       17      -0.03729611      -0.00000000      -0.00000000
O        0.22232044       1.36318890       0.00000000       18      -0.03729611      -0.00000000       0.00000000
O        2.47969783       4.08956669       3.81462357       19       0.03729611      -0.00000000      -0.00000000
20
Lattice="5.428406133465804 2.321692318884053e-59 5.786924888229505e-44 -2.382794683400233e-59 5.4384810786443305 8.446152568042504e-17 -8.013885579819716e-44 -1.2696156551043744e-16 7.6149321265442" Properties=species:S:1:pos:R:3:spacegroup_kinds:I:1:forces:R:3 spacegroup="P 1" unit_cell=conventional occupancy="_JSON {\"0\": {\"In\": 1}, \"1\": {\"In\": 1}, \"2\": {\"In\": 1}, \"3\": {\"In\": 1}, \"4\": {\"In\": 1}, \"5\": {\"In\": 1}, \"6\": {\"In\": 1}, \"7\": {\"In\": 1}, \"8\": {\"O\": 1}, \"9\": {\"O\": 1}, \"10\": {\"O\": 1}, \"11\": {\"O\": 1}, \"12\": {\"O\": 1}, \"13\": {\"O\": 1}, \"14\": {\"O\": 1}, \"15\": {\"O\": 1}, \"16\": {\"O\": 1}, \"17\": {\"O\": 1}, \"18\": {\"O\": 1}, \"19\": {\"O\": 1}}" n_minim_iter=2 energy=-22573.563921508437 stress="-0.1033810390532461 -8.882679958050486e-15 -4.986112713784573e-13 -8.882679958050486e-15 -0.10435487136795944 -3.1264498038757436e-13 -4.986112713784573e-13 -3.1264498038757436e-13 -0.10417370395955562" free_energy=-22573.563921508437 pbc="T T T"
In       1.35162470       2.88462973       0.90504451        0       0.09569715      -0.08261070       0.10973049
In       1.36257837       0.16538919       2.90242156        1      -0.09569715      -0.08261070      -0.10973049
In       1.36257837       2.55385135       4.71251057        2      -0.09569715       0.08261070       0.10973049
In       1.35162470       5.27309189       6.70988762        3       0.09569715       0.08261070      -0.10973049
In       4.07678143       2.55385135       6.70988762        4      -0.09569715       0.08261070      -0.10973049
In       4.06582777       5.27309189       4.71251057        5       0.09569715       0.08261070       0.10973049
In       4.06582777       2.88462973       2.90242156        6       0.09569715      -0.08261070      -0.10973049
In       4.07678143       0.16538919       0.90504451        7      -0.09569715      -0.08261070       0.10973049
O        2.10801058       3.28133201       6.50430625        8       0.04331551      -0.01722933       0.13368348
O        0.60619248       0.56209147       4.91809194        9      -0.04331551      -0.01722933      -0.13368348
O        0.60619248       2.15714907       2.69684019       10      -0.04331551       0.01722933       0.13368348
O        2.10801058       4.87638960       1.11062588       11       0.04331551       0.01722933      -0.13368348
O        3.32039555       2.15714907       1.11062588       12      -0.04331551       0.01722933      -0.13368348
O        4.82221365       4.87638960       2.69684019       13       0.04331551       0.01722933       0.13368348
O        4.82221365       3.28133201       4.91809194       14       0.04331551      -0.01722933      -0.13368348
O        3.32039555       0.56209147       6.50430625       15      -0.04331551      -0.01722933       0.13368348
O        5.20520494       4.07886081       0.00000000       16       0.06069436      -0.00000000      -0.00000000
O        2.93740426       1.35962027       3.80746606       17      -0.06069436       0.00000000      -0.00000000
O        0.22320119       1.35962027       0.00000000       18      -0.06069436      -0.00000000       0.00000000
O        2.49100187       4.07886081       3.80746606       19       0.06069436       0.00000000      -0.00000000
20
Lattice="5.449877085783638 2.3418199385772123e-59 3.4030014855200013e-43 -2.349069092071556e-59 5.429646356048523 8.324159340145594e-17 -6.318841486092239e-44 -1.281895600506529e-16 7.597273123032476" Properties=species:S:1:pos:R:3:spacegroup_kinds:I:1:forces:R:3 spacegroup="P 1" unit_cell=conventional occupancy="_JSON {\"0\": {\"In\": 1}, \"1\": {\"In\": 1}, \"2\": {\"In\": 1}, \"3\": {\"In\": 1}, \"4\": {\"In\": 1}, \"5\": {\"In\": 1}, \"6\": {\"In\": 1}, \"7\": {\"In\": 1}, \"8\": {\"O\": 1}, \"9\": {\"O\": 1}, \"10\": {\"O\": 1}, \"11\": {\"O\": 1}, \"12\": {\"O\": 1}, \"13\": {\"O\": 1}, \"14\": {\"O\": 1}, \"15\": {\"O\": 1}, \"16\": {\"O\": 1}, \"17\": {\"O\": 1}, \"18\": {\"O\": 1}, \"19\": {\"O\": 1}}" n_minim_iter=3 energy=-22573.580132613275 stress="-0.09897772640168351 -3.7816528818537765e-13 1.3543491626336186e-13 -3.7816528818537765e-13 -0.0976916393314056 1.0482934170334545e-13 1.3543491626336186e-13 1.0482934170334545e-13 -0.10115167167530788" free_energy=-22573.580132613275 pbc="T T T"
In       1.36442077       2.87379762       0.91174804        0      -0.09344146      -0.01688867       0.05879386
In       1.36051777       0.15897445       2.88688852        1       0.09344146      -0.01688867      -0.05879386
In       1.36051777       2.55584873       4.71038461        2       0.09344146       0.01688867       0.05879386
In       1.36442077       5.27067191       6.68552508        3      -0.09344146       0.01688867      -0.05879386
In       4.08545631       2.55584873       6.68552508        4       0.09344146       0.01688867      -0.05879386
In       4.08935932       5.27067191       4.71038461        5      -0.09344146       0.01688867       0.05879386
In       4.08935932       2.87379762       2.88688852        6      -0.09344146      -0.01688867      -0.05879386
In       4.08545631       0.15897445       0.91174804        7       0.09344146      -0.01688867       0.05879386
O        2.11932059       3.27486663       6.49986164        8      -0.04207214       0.00024504       0.03947841
O        0.60561795       0.56004346       4.89604805        9       0.04207214       0.00024504      -0.03947841
O        0.60561795       2.15477972       2.70122507       10       0.04207214      -0.00024504       0.03947841
O        2.11932059       4.86960290       1.09741149       11      -0.04207214      -0.00024504      -0.03947841
O        3.33055649       2.15477972       1.09741149       12       0.04207214      -0.00024504      -0.03947841
O        4.84425914       4.86960290       2.70122507       13      -0.04207214      -0.00024504       0.03947841
O        4.84425914       3.27486663       4.89604805       14      -0.04207214       0.00024504      -0.03947841
O        3.33055649       0.56004346       6.49986164       15       0.04207214       0.00024504       0.03947841
O        5.23055103       4.07223477       0.00000000       16       0.04919351      -0.00000000      -0.00000000
O        2.94426460       1.35741159       3.79863656       17      -0.04919351      -0.00000000       0.00000000
O        0.21932605       1.35741159       0.00000000       18      -0.04919351       0.00000000      -0.00000000
O        2.50561249       4.07223477       3.79863656       19       0.04919351       0.00000000       0.00000000
20
Lattice="5.450511570597613 2.5025908745277328e-59 3.5410262303678265e-43 -2.338252846066188e-59 5.415298481916315 8.055139202774056e-17 -5.524449409197945e-44 -1.3188612606467075e-16 7.6165154265432005" Properties=species:S:1:pos:R:3:spacegroup_kinds:I:1:forces:R:3 spacegroup="P 1" unit_cell=conventional occupancy="_JSON {\"0\": {\"In\": 1}, \"1\": {\"In\": 1}, \"2\": {\"In\": 1}, \"3\": {\"In\": 1}, \"4\": {\"In\": 1}, \"5\": {\"In\": 1}, \"6\": {\"In\": 1}, \"7\": {\"In\": 1}, \"8\": {\"O\": 1}, \"9\": {\"O\": 1}, \"10\": {\"O\": 1}, \"11\": {\"O\": 1}, \"12\": {\"O\": 1}, \"13\": {\"O\": 1}, \"14\": {\"O\": 1}, \"15\": {\"O\": 1}, \"16\": {\"O\": 1}, \"17\": {\"O\": 1}, \"18\": {\"O\": 1}, \"19\": {\"O\": 1}}" n_minim_iter=4 energy=-22573.581898373952 stress="-0.09902718593810947 5.829024957690932e-13 6.782590908246302e-13 5.829024957690932e-13 -0.09978903483809659 2.177854636727212e-13 6.782590908246302e-13 2.177854636727212e-13 -0.09774375505976354" free_energy=-22573.581898373952 pbc="T T T"
In       1.36491812       2.86528403       0.91561590        0      -0.12675092      -0.04745321       0.06803472
In       1.36033766       0.15763479       2.89264181        1       0.12675092      -0.04745321      -0.06803472
In       1.36033766       2.55001445       4.72387362        2       0.12675092       0.04745321       0.06803472
In       1.36491812       5.25766369       6.70089952        3      -0.12675092       0.04745321      -0.06803472
In       4.08559345       2.55001445       6.70089952        4       0.12675092       0.04745321      -0.06803472
In       4.09017391       5.25766369       4.72387362        5      -0.12675092       0.04745321       0.06803472
In       4.09017391       2.86528403       2.89264181        6      -0.12675092      -0.04745321      -0.06803472
In       4.08559345       0.15763479       0.91561590        7       0.12675092      -0.04745321       0.06803472
O        2.11966809       3.26606596       6.51799565        8      -0.05579274      -0.03272694       0.01654828
O        0.60558769       0.55841672       4.90677749        9       0.05579274      -0.03272694      -0.01654828
O        0.60558769       2.14923252       2.70973794       10       0.05579274       0.03272694       0.01654828
O        2.11966809       4.85688176       1.09851978       11      -0.05579274       0.03272694      -0.01654828
O        3.33084348       2.14923252       1.09851978       12       0.05579274       0.03272694      -0.01654828
O        4.84492388       4.85688176       2.70973794       13      -0.05579274       0.03272694       0.01654828
O        4.84492388       3.26606596       4.90677749       14      -0.05579274      -0.03272694      -0.01654828
O        3.33084348       0.55841672       6.51799565       15       0.05579274      -0.03272694       0.01654828
O        5.23212500       4.06147386       0.00000000       16       0.04455550      -0.00000000       0.00000000
O        2.94364236       1.35382462       3.80825771       17      -0.04455550      -0.00000000       0.00000000
O        0.21838657       1.35382462       0.00000000       18      -0.04455550      -0.00000000       0.00000000
O        2.50686921       4.06147386       3.80825771       19       0.04455550      -0.00000000       0.00000000
20
Lattice="5.458862742513347 2.455744180318778e-59 3.780329854779157e-43 -2.3595443915177414e-59 5.400270806928683 7.233833904584199e-17 -8.860973385571001e-44 -1.4310545025503163e-16 7.626025931206463" Properties=species:S:1:pos:R:3:spacegroup_kinds:I:1:forces:R:3 spacegroup="P 1" unit_cell=conventional occupancy="_JSON {\"0\": {\"In\": 1}, \"1\": {\"In\": 1}, \"2\": {\"In\": 1}, \"3\": {\"In\": 1}, \"4\": {\"In\": 1}, \"5\": {\"In\": 1}, \"6\": {\"In\": 1}, \"7\": {\"In\": 1}, \"8\": {\"O\": 1}, \"9\": {\"O\": 1}, \"10\": {\"O\": 1}, \"11\": {\"O\": 1}, \"12\": {\"O\": 1}, \"13\": {\"O\": 1}, \"14\": {\"O\": 1}, \"15\": {\"O\": 1}, \"16\": {\"O\": 1}, \"17\": {\"O\": 1}, \"18\": {\"O\": 1}, \"19\": {\"O\": 1}}" n_minim_iter=5 energy=-22573.58863680184 stress="-0.09555269933823776 -1.279466878247976e-13 7.986941730687418e-14 -1.279466878247976e-13 -0.09587051197079145 -6.09812730978274e-13 7.986941730687418e-14 -6.09812730978274e-13 -0.09556760678179452" free_energy=-22573.58863680184 pbc="T T T"
In       1.36395456       2.85112895       0.92671447        0      -0.07224333       0.02468976      -0.04118443
In       1.36547681       0.15099355       2.88629849        1       0.07224333       0.02468976       0.04118443
In       1.36547681       2.54914185       4.73972744        2       0.07224333      -0.02468976      -0.04118443
In       1.36395456       5.24927726       6.69931146        3      -0.07224333      -0.02468976       0.04118443
In       4.09490818       2.54914185       6.69931146        4       0.07224333      -0.02468976       0.04118443
In       4.09338593       5.24927726       4.73972744        5      -0.07224333      -0.02468976      -0.04118443
In       4.09338593       2.85112895       2.88629849        6      -0.07224333       0.02468976       0.04118443
In       4.09490818       0.15099355       0.92671447        7       0.07224333       0.02468976      -0.04118443
O        2.12136403       3.25502577       6.53469794        8      -0.01626841      -0.03255284       0.03445791
O        0.60806734       0.55489037       4.90434095        9       0.01626841      -0.03255284      -0.03445791
O        0.60806734       2.14524504       2.72168498       10       0.01626841       0.03255284       0.03445791
O        2.12136403       4.84538044       1.09132799       11      -0.01626841       0.03255284      -0.03445791
O        3.33749871       2.14524504       1.09132799       12       0.01626841       0.03255284      -0.03445791
O        4.85079540       4.84538044       2.72168498       13      -0.01626841       0.03255284       0.03445791
O        4.85079540       3.25502577       4.90434095       14      -0.01626841      -0.03255284      -0.03445791
O        3.33749871       0.55489037       6.53469794       15       0.01626841      -0.03255284       0.03445791
O        5.24639961       4.05020311       0.00000000       16      -0.00670583       0.00000000      -0.00000000
O        2.94189450       1.35006770       3.81301297       17       0.00670583      -0.00000000       0.00000000
O        0.21246313       1.35006770       0.00000000       18       0.00670583      -0.00000000      -0.00000000
O        2.51696824       4.05020311       3.81301297       19      -0.00670583       0.00000000       0.00000000
20
Lattice="5.4547944167355595 2.1945576131804474e-59 3.780682624863269e-43 -2.3605176650427113e-59 5.402563949360219 6.12523584742464e-17 -8.866420069059796e-44 -1.5871129602490205e-16 7.6284743022359525" Properties=species:S:1:pos:R:3:spacegroup_kinds:I:1:forces:R:3 spacegroup="P 1" unit_cell=conventional occupancy="_JSON {\"0\": {\"In\": 1}, \"1\": {\"In\": 1}, \"2\": {\"In\": 1}, \"3\": {\"In\": 1}, \"4\": {\"In\": 1}, \"5\": {\"In\": 1}, \"6\": {\"In\": 1}, \"7\": {\"In\": 1}, \"8\": {\"O\": 1}, \"9\": {\"O\": 1}, \"10\": {\"O\": 1}, \"11\": {\"O\": 1}, \"12\": {\"O\": 1}, \"13\": {\"O\": 1}, \"14\": {\"O\": 1}, \"15\": {\"O\": 1}, \"16\": {\"O\": 1}, \"17\": {\"O\": 1}, \"18\": {\"O\": 1}, \"19\": {\"O\": 1}}" n_minim_iter=6 energy=-22573.59004604234 stress="-0.0961229813907662 7.404358203050482e-13 4.898205327191882e-13 7.404358203050482e-13 -0.0961898717941259 8.601477867349802e-13 4.898205327191882e-13 8.601477867349802e-13 -0.09623169880268553" free_energy=-22573.59004604234 pbc="T T T"
In       1.36060033       2.85301253       0.92605101        0      -0.02444452       0.02493396      -0.02746714
In       1.36679688       0.15173056       2.88818614        1       0.02444452       0.02493396       0.02746714
In       1.36679688       2.54955142       4.74028816        2       0.02444452      -0.02493396      -0.02746714
In       1.36060033       5.25083339       6.70242330        3      -0.02444452      -0.02493396       0.02746714
In       4.09419409       2.54955142       6.70242330        4       0.02444452      -0.02493396       0.02746714
In       4.08799754       5.25083339       4.74028816        5      -0.02444452      -0.02493396      -0.02746714
In       4.08799754       2.85301253       2.88818614        6      -0.02444452       0.02493396       0.02746714
In       4.09419409       0.15173056       0.92605101        7       0.02444452       0.02493396      -0.02746714
O        2.11900271       3.25595115       6.53654788        8       0.00454061      -0.02960188       0.03994723
O        0.60839450       0.55466917       4.90616357        9      -0.00454061      -0.02960188      -0.03994723
O        0.60839450       2.14661280       2.72231073       10      -0.00454061       0.02960188       0.03994723
O        2.11900271       4.84789477       1.09192642       11       0.00454061       0.02960188      -0.03994723
O        3.33579171       2.14661280       1.09192642       12      -0.00454061       0.02960188      -0.03994723
O        4.84639992       4.84789477       2.72231073       13       0.00454061       0.02960188       0.03994723
O        4.84639992       3.25595115       4.90616357       14       0.00454061      -0.02960188      -0.03994723
O        3.33579171       0.55466917       6.53654788       15      -0.00454061      -0.02960188       0.03994723
O        5.24226928       4.05192296       0.00000000       16      -0.01094904      -0.00000000      -0.00000000
O        2.93992235       1.35064099       3.81423715       17       0.01094904      -0.00000000      -0.00000000
O        0.21252514       1.35064099       0.00000000       18       0.01094904      -0.00000000      -0.00000000
O        2.51487207       4.05192296       3.81423715       19      -0.01094904       0.00000000      -0.00000000
20
Lattice="5.452517358169718 2.1239016392121326e-59 3.781246026605579e-43 -2.2462118220504073e-59 5.403031267235773 6.166185031839518e-17 -8.457483506412132e-44 -1.5818045685767682e-16 7.630999999284889" Properties=species:S:1:pos:R:3:spacegroup_kinds:I:1:forces:R:3 spacegroup="P 1" unit_cell=conventional occupancy="_JSON {\"0\": {\"In\": 1}, \"1\": {\"In\": 1}, \"2\": {\"In\": 1}, \"3\": {\"In\": 1}, \"4\": {\"In\": 1}, \"5\": {\"In\": 1}, \"6\": {\"In\": 1}, \"7\": {\"In\": 1}, \"8\": {\"O\": 1}, \"9\": {\"O\": 1}, \"10\": {\"O\": 1}, \"11\": {\"O\": 1}, \"12\": {\"O\": 1}, \"13\": {\"O\": 1}, \"14\": {\"O\": 1}, \"15\": {\"O\": 1}, \"16\": {\"O\": 1}, \"17\": {\"O\": 1}, \"18\": {\"O\": 1}, \"19\": {\"O\": 1}}" n_minim_iter=7 energy=-22573.590844260427 stress="-0.0963255597776847 2.393987021699228e-14 2.4799328325990405e-13 2.393987021699228e-14 -0.09625841344304288 1.6052287405831676e-12 2.4799328325990405e-13 1.6052287405831676e-12 -0.09635742131767562" free_energy=-22573.590844260427 pbc="T T T"
In       1.35808886       2.85375607       0.92592295        0       0.00636947       0.02171032      -0.00336664
In       1.36816982       0.15224044       2.88957705        1      -0.00636947       0.02171032       0.00336664
In       1.36816982       2.54927520       4.74142295        2      -0.00636947      -0.02171032      -0.00336664
In       1.35808886       5.25079083       6.70507705        3       0.00636947      -0.02171032       0.00336664
In       4.09442850       2.54927520       6.70507705        4      -0.00636947      -0.02171032       0.00336664
In       4.08434754       5.25079083       4.74142295        5       0.00636947      -0.02171032      -0.00336664
In       4.08434754       2.85375607       2.88957705        6       0.00636947       0.02171032       0.00336664
In       4.09442850       0.15224044       0.92592295        7      -0.00636947       0.02171032      -0.00336664
O        2.11771086       3.25524233       6.53992585        8       0.01492299      -0.02829327       0.02384155
O        0.60854782       0.55372669       4.90657415        9      -0.01492299      -0.02829327      -0.02384155
O        0.60854782       2.14778894       2.72442585       10      -0.01492299       0.02829327       0.02384155
O        2.11771086       4.84930457       1.09107415       11       0.01492299       0.02829327      -0.02384155
O        3.33480650       2.14778894       1.09107415       12      -0.01492299       0.02829327      -0.02384155
O        4.84396954       4.84930457       2.72442585       13       0.01492299       0.02829327       0.02384155
O        4.84396954       3.25524233       4.90657415       14       0.01492299      -0.02829327      -0.02384155
O        3.33480650       0.55372669       6.53992585       15      -0.01492299      -0.02829327       0.02384155
O        5.24010374       4.05227345       0.00000000       16      -0.01748713       0.00000000      -0.00000000
O        2.93867230       1.35075782       3.81550000       17       0.01748713       0.00000000       0.00000000
O        0.21241362       1.35075782       0.00000000       18       0.01748713      -0.00000000      -0.00000000
O        2.51384506       4.05227345       3.81550000       19      -0.01748713      -0.00000000       0.00000000
20
Lattice="5.452223486238969 1.6614833036983976e-59 3.5467836125969475e-43 -4.0943569981046224e-59 5.401673855585914 4.932809409099888e-17 -6.804162725341531e-44 -1.7541999029251216e-16 7.633329038809239" Properties=species:S:1:pos:R:3:spacegroup_kinds:I:1:forces:R:3 spacegroup="P 1" unit_cell=conventional occupancy="_JSON {\"0\": {\"In\": 1}, \"1\": {\"In\": 1}, \"2\": {\"In\": 1}, \"3\": {\"In\": 1}, \"4\": {\"In\": 1}, \"5\": {\"In\": 1}, \"6\": {\"In\": 1}, \"7\": {\"In\": 1}, \"8\": {\"O\": 1}, \"9\": {\"O\": 1}, \"10\": {\"O\": 1}, \"11\": {\"O\": 1}, \"12\": {\"O\": 1}, \"13\": {\"O\": 1}, \"14\": {\"O\": 1}, \"15\": {\"O\": 1}, \"16\": {\"O\": 1}, \"17\": {\"O\": 1}, \"18\": {\"O\": 1}, \"19\": {\"O\": 1}}" n_minim_iter=8 energy=-22573.591407317923 stress="-0.09602890529084693 1.334461162193571e-12 -5.575608071496149e-13 1.334461162193571e-12 -0.09593024238005594 1.7633374828565724e-14 -5.575608071496149e-13 1.7633374828565724e-14 -0.09605363734528324" free_energy=-22573.591407317923 pbc="T T T"
In       1.35628894       2.85373299       0.92654198        0       0.02156606       0.01671619       0.03184339
In       1.36982280       0.15289606       2.89012254        1      -0.02156606       0.01671619      -0.03184339
In       1.36982280       2.54794087       4.74320650        2      -0.02156606      -0.01671619       0.03184339
In       1.35628894       5.24877779       6.70678706        3       0.02156606      -0.01671619      -0.03184339
In       4.09593455       2.54794087       6.70678706        4      -0.02156606      -0.01671619      -0.03184339
In       4.08240068       5.24877779       4.74320650        5       0.02156606      -0.01671619       0.03184339
In       4.08240068       2.85373299       2.89012254        6       0.02156606       0.01671619      -0.03184339
In       4.09593455       0.15289606       0.92654198        7      -0.02156606       0.01671619       0.03184339
O        2.11772516       3.25219520       6.54490866        8       0.01158297      -0.02392850      -0.01416932
O        0.60838658       0.55135827       4.90508490        9      -0.01158297      -0.02392850       0.01416932
O        0.60838658       2.14947866       2.72824414       10      -0.01158297       0.02392850      -0.01416932
O        2.11772516       4.85031558       1.08842038       11       0.01158297       0.02392850       0.01416932
O        3.33449833       2.14947866       1.08842038       12      -0.01158297       0.02392850       0.01416932
O        4.84383690       4.85031558       2.72824414       13       0.01158297       0.02392850      -0.01416932
O        4.84383690       3.25219520       4.90508490       14       0.01158297      -0.02392850       0.01416932
O        3.33449833       0.55135827       6.54490866       15      -0.01158297      -0.02392850      -0.01416932
O        5.23971110       4.05125539       0.00000000       16      -0.02247297      -0.00000000      -0.00000000
O        2.93862413       1.35041846       3.81666452       17       0.02247297      -0.00000000       0.00000000
O        0.21251239       1.35041846       0.00000000       18       0.02247297      -0.00000000      -0.00000000
O        2.51359936       4.05125539       3.81666452       19      -0.02247297       0.00000000       0.00000000
20
Lattice="5.455737344457501 9.310167262335204e-60 2.8422969857289733e-43 -5.093528270672449e-59 5.397036635126789 2.7015683436808422e-17 -1.8424302084351713e-43 -2.0648040385970213e-16 7.634967121047554" Properties=species:S:1:pos:R:3:spacegroup_kinds:I:1:forces:R:3 spacegroup="P 1" unit_cell=conventional occupancy="_JSON {\"0\": {\"In\": 1}, \"1\": {\"In\": 1}, \"2\": {\"In\": 1}, \"3\": {\"In\": 1}, \"4\": {\"In\": 1}, \"5\": {\"In\": 1}, \"6\": {\"In\": 1}, \"7\": {\"In\": 1}, \"8\": {\"O\": 1}, \"9\": {\"O\": 1}, \"10\": {\"O\": 1}, \"11\": {\"O\": 1}, \"12\": {\"O\": 1}, \"13\": {\"O\": 1}, \"14\": {\"O\": 1}, \"15\": {\"O\": 1}, \"16\": {\"O\": 1}, \"17\": {\"O\": 1}, \"18\": {\"O\": 1}, \"19\": {\"O\": 1}}" n_minim_iter=9 energy=-22573.592341237094 stress="-0.09522341881777378 -2.75505196846013e-13 5.0154231503381315e-14 -2.75505196846013e-13 -0.09533214967708149 8.23453813270798e-14 5.0154231503381315e-14 8.23453813270798e-14 -0.09501475665944299" free_energy=-22573.592341237094 pbc="T T T"
In       1.35825237       2.85278580       0.92946578        0      -0.02041203       0.01736706       0.02282395
In       1.36961631       0.15426749       2.88801778        1       0.02041203       0.01736706      -0.02282395
In       1.36961631       2.54425083       4.74694934        2       0.02041203      -0.01736706       0.02282395
In       1.35825237       5.24276915       6.70550135        3      -0.02041203      -0.01736706      -0.02282395
In       4.09748498       2.54425083       6.70550135        4       0.02041203      -0.01736706      -0.02282395
In       4.08612104       5.24276915       4.74694934        5      -0.02041203      -0.01736706       0.02282395
In       4.08612104       2.85278580       2.88801778        6      -0.02041203       0.01736706      -0.02282395
In       4.09748498       0.15426749       0.92946578        7       0.02041203       0.01736706       0.02282395
O        2.12048942       3.24578241       6.54862497        8      -0.02764813      -0.00921982      -0.02331443
O        0.60737925       0.54726409       4.90382571        9       0.02764813      -0.00921982       0.02331443
O        0.60737925       2.15125422       2.73114141       10       0.02764813       0.00921982      -0.02331443
O        2.12048942       4.84977254       1.08634215       11      -0.02764813       0.00921982       0.02331443
O        3.33524792       2.15125422       1.08634215       12       0.02764813       0.00921982       0.02331443
O        4.84835810       4.84977254       2.73114141       13      -0.02764813       0.00921982      -0.02331443
O        4.84835810       3.24578241       4.90382571       14      -0.02764813      -0.00921982       0.02331443
O        3.33524792       0.54726409       6.54862497       15       0.02764813      -0.00921982      -0.02331443
O        5.24146968       4.04777748       0.00000000       16      -0.00513814      -0.00000000      -0.00000000
O        2.94213634       1.34925916       3.81748356       17       0.00513814      -0.00000000      -0.00000000
O        0.21426766       1.34925916       0.00000000       18       0.00513814       0.00000000       0.00000000
O        2.51360101       4.04777748       3.81748356       19      -0.00513814       0.00000000       0.00000000
20