20
Lattice="5.46202294791081 -2.4619329108642082e-60 -1.3971345069974314e-43 4.373030534377121e-60 5.5845788212037615 7.255374974046331e-17 1.9929225634522124e-43 -1.0122205804463922e-16 7.791224624734885" Properties=species:S:1:pos:R:3:spacegroup_kinds:I:1:forces:R:3 spacegroup="P 1" unit_cell=conventional occupancy="_JSON {\"0\": {\"In\": 1}, \"1\": {\"In\": 1}, \"2\": {\"In\": 1}, \"3\": {\"In\": 1}, \"4\": {\"In\": 1}, \"5\": {\"In\": 1}, \"6\": {\"In\": 1}, \"7\": {\"In\": 1}, \"8\": {\"O\": 1}, \"9\": {\"O\": 1}, \"10\": {\"O\": 1}, \"11\": {\"O\": 1}, \"12\": {\"O\": 1}, \"13\": {\"O\": 1}, \"14\": {\"O\": 1}, \"15\": {\"O\": 1}, \"16\": {\"O\": 1}, \"17\": {\"O\": 1}, \"18\": {\"O\": 1}, \"19\": {\"O\": 1}}" n_minim_iter=1 energy=-22574.494173160572 stress="-0.05451280125953981 2.6263397934916923e-13 -2.7305074995574433e-13 2.6263397934916923e-13 -0.05246226209532362 6.381442914345406e-13 -2.7305074995574433e-13 6.381442914345406e-13 -0.050243959970787046" free_energy=-22574.494173160572 pbc="T T T"
In       1.36003604       2.96092725       0.89459228        0       0.02723303       0.02980222       0.06320677
In       1.37097543       0.16863784       3.00102004        1      -0.02723303       0.02980222      -0.06320677
In       1.37097543       2.62365157       4.79020459        2      -0.02723303      -0.02980222       0.06320677
In       1.36003604       5.41594098       6.89663235        3       0.02723303      -0.02980222      -0.06320677
In       4.10198690       2.62365157       6.89663235        4      -0.02723303      -0.02980222      -0.06320677
In       4.09104752       5.41594098       4.79020459        5       0.02723303      -0.02980222       0.06320677
In       4.09104752       2.96092725       3.00102004        6       0.02723303       0.02980222      -0.06320677
In       4.10198690       0.16863784       0.89459228        7      -0.02723303       0.02980222       0.06320677
O        2.12572453       3.37684002       6.62418089        8      -0.04048183       0.01929065       0.03845732
O        0.60528695       0.58455061       5.06265604        9       0.04048183       0.01929065      -0.03845732
O        0.60528695       2.20773880       2.72856858       10       0.04048183      -0.01929065       0.03845732
O        2.12572453       5.00002821       1.16704373       11      -0.04048183      -0.01929065      -0.03845732
O        3.33629842       2.20773880       1.16704373       12       0.04048183      -0.01929065      -0.03845732
O        4.85673600       5.00002821       2.72856858       13      -0.04048183      -0.01929065       0.03845732
O        4.85673600       3.37684002       5.06265604       14      -0.04048183       0.01929065      -0.03845732
O        3.33629842       0.58455061       6.62418089       15       0.04048183       0.01929065       0.03845732
O        5.23059680       4.18843412      -0.00000000       16       0.05617977       0.00000000      -0.00000000
O        2.96243762       1.39614471       3.89561231       17      -0.05617977      -0.00000000       0.00000000
O        0.23142615       1.39614471      -0.00000000       18      -0.05617977      -0.00000000       0.00000000
O        2.49958533       4.18843412       3.89561231       19       0.05617977       0.00000000      -0.00000000
20
Lattice="5.474241719264552 4.6109540943200366e-61 -1.522594676145667e-43 8.309905883458351e-60 5.584910115216681 7.717796360936991e-17 1.8976436292744557e-43 -9.463639268968383e-17 7.773373095994175" Properties=species:S:1:pos:R:3:spacegroup_kinds:I:1:forces:R:3 spacegroup="P 1" unit_cell=conventional occupancy="_JSON {\"0\": {\"In\": 1}, \"1\": {\"In\": 1}, \"2\": {\"In\": 1}, \"3\": {\"In\": 1}, \"4\": {\"In\": 1}, \"5\": {\"In\": 1}, \"6\": {\"In\": 1}, \"7\": {\"In\": 1}, \"8\": {\"O\": 1}, \"9\": {\"O\": 1}, \"10\": {\"O\": 1}, \"11\": {\"O\": 1}, \"12\": {\"O\": 1}, \"13\": {\"O\": 1}, \"14\": {\"O\": 1}, \"15\": {\"O\": 1}, \"16\": {\"O\": 1}, \"17\": {\"O\": 1}, \"18\": {\"O\": 1}, \"19\": {\"O\": 1}}" n_minim_iter=2 energy=-22574.49551437585 stress="-0.051545203909300646 -3.9530870976010303e-13 -5.125665446806831e-13 -3.9530870976010303e-13 -0.05216925468661546 4.4912235933275503e-13 -5.125665446806831e-13 4.4912235933275503e-13 -0.05223639153845744" free_energy=-22574.49551437585 pbc="T T T"
In       1.36320033       2.96123593       0.89282404        0       0.05128990       0.02131965       0.05743089
In       1.37392053       0.16878088       2.99386251        1      -0.05128990       0.02131965      -0.05743089
In       1.37392053       2.62367418       4.77951059        2      -0.05128990      -0.02131965       0.05743089
In       1.36320033       5.41612924       6.88054906        3       0.05128990      -0.02131965      -0.05743089
In       4.11104139       2.62367418       6.88054906        4      -0.05128990      -0.02131965      -0.05743089
In       4.10032119       5.41612924       4.77951059        5       0.05128990      -0.02131965       0.05743089
In       4.10032119       2.96123593       2.99386251        6       0.05128990       0.02131965      -0.05743089
In       4.11104139       0.16878088       0.89282404        7      -0.05128990       0.02131965       0.05743089
O        2.13029876       3.37712646       6.60917460        8      -0.01607827       0.01679743       0.05146772
O        0.60682210       0.58467140       5.05088504        9       0.01607827       0.01679743      -0.05146772
O        0.60682210       2.20778366       2.72248805       10       0.01607827      -0.01679743       0.05146772
O        2.13029876       5.00023872       1.16419850       11      -0.01607827      -0.01679743      -0.05146772
O        3.34394296       2.20778366       1.16419850       12       0.01607827      -0.01679743      -0.05146772
O        4.86741962       5.00023872       2.72248805       13      -0.01607827      -0.01679743       0.05146772
O        4.86741962       3.37712646       5.05088504       14      -0.01607827       0.01679743      -0.05146772
O        3.34394296       0.58467140       6.60917460       15       0.01607827       0.01679743       0.05146772
O        5.24254919       4.18868259      -0.00000000       16       0.06191176      -0.00000000      -0.00000000
O        2.96881339       1.39622753       3.88668655       17      -0.06191176      -0.00000000       0.00000000
O        0.23169253       1.39622753      -0.00000000       18      -0.06191176       0.00000000      -0.00000000
O        2.50542833       4.18868259       3.88668655       19       0.06191176       0.00000000       0.00000000
20
Lattice="5.470722827034486 1.6892335334594748e-59 -1.0642385656909208e-43 1.8835810878188343e-59 5.596799289079175 6.148855629792666e-17 3.532050396855827e-43 -1.1659554681824128e-16 7.761849655314523" Properties=species:S:1:pos:R:3:spacegroup_kinds:I:1:forces:R:3 spacegroup="P 1" unit_cell=conventional occupancy="_JSON {\"0\": {\"In\": 1}, \"1\": {\"In\": 1}, \"2\": {\"In\": 1}, \"3\": {\"In\": 1}, \"4\": {\"In\": 1}, \"5\": {\"In\": 1}, \"6\": {\"In\": 1}, \"7\": {\"In\": 1}, \"8\": {\"O\": 1}, \"9\": {\"O\": 1}, \"10\": {\"O\": 1}, \"11\": {\"O\": 1}, \"12\": {\"O\": 1}, \"13\": {\"O\": 1}, \"14\": {\"O\": 1}, \"15\": {\"O\": 1}, \"16\": {\"O\": 1}, \"17\": {\"O\": 1}, \"18\": {\"O\": 1}, \"19\": {\"O\": 1}}" n_minim_iter=3 energy=-22574.49798123127 stress="-0.05205298580625568 1.0824189592674604e-13 -5.413569218422625e-13 1.0824189592674604e-13 -0.04937530287964101 -9.207438148483552e-13 -5.413569218422625e-13 -9.207438148483552e-13 -0.05223275264436904" free_energy=-22574.49798123127 pbc="T T T"
In       1.36490262       2.96876263       0.89462875        0      -0.00507594       0.00861072       0.02461828
In       1.37045880       0.17036299       2.98629608        1       0.00507594       0.00861072      -0.02461828
In       1.37045880       2.62803666       4.77555358        2       0.00507594      -0.00861072       0.02461828
In       1.36490262       5.42643630       6.86722091        3      -0.00507594      -0.00861072      -0.02461828
In       4.10582021       2.62803666       6.86722091        4       0.00507594      -0.00861072      -0.02461828
In       4.10026403       5.42643630       4.77555358        5      -0.00507594      -0.00861072       0.02461828
In       4.10026403       2.96876263       2.98629608        6      -0.00507594       0.00861072      -0.02461828
In       4.10582021       0.17036299       0.89462875        7       0.00507594       0.00861072       0.02461828
O        2.12785769       3.38524456       6.60203130        8      -0.01384591       0.00993558       0.03042421
O        0.60750372       0.58684492       5.04074318        9       0.01384591       0.00993558      -0.03042421
O        0.60750372       2.21155473       2.72110647       10       0.01384591      -0.00993558       0.03042421
O        2.12785769       5.00995437       1.15981835       11      -0.01384591      -0.00993558      -0.03042421
O        3.34286514       2.21155473       1.15981835       12       0.01384591      -0.00993558      -0.03042421
O        4.86321910       5.00995437       2.72110647       13      -0.01384591      -0.00993558       0.03042421
O        4.86321910       3.38524456       5.04074318       14      -0.01384591       0.00993558      -0.03042421
O        3.34286514       0.58684492       6.60203130       15       0.01384591       0.00993558       0.03042421
O        5.24248396       4.19759947      -0.00000000       16      -0.00139558      -0.00000000       0.00000000
O        2.96360028       1.39919982       3.88092483       17       0.00139558       0.00000000      -0.00000000
O        0.22823887       1.39919982      -0.00000000       18       0.00139558      -0.00000000       0.00000000
O        2.50712255       4.19759947       3.88092483       19      -0.00139558       0.00000000      -0.00000000
20
Lattice="5.476229300809864 1.6796678792318824e-59 -1.063782122293435e-43 1.8791746306446186e-59 5.585964944819968 6.153189925458768e-17 3.5376740496024627e-43 -1.1638932996821293e-16 7.769084415182169" Properties=species:S:1:pos:R:3:spacegroup_kinds:I:1:forces:R:3 spacegroup="P 1" unit_cell=conventional occupancy="_JSON {\"0\": {\"In\": 1}, \"1\": {\"In\": 1}, \"2\": {\"In\": 1}, \"3\": {\"In\": 1}, \"4\": {\"In\": 1}, \"5\": {\"In\": 1}, \"6\": {\"In\": 1}, \"7\": {\"In\": 1}, \"8\": {\"O\": 1}, \"9\": {\"O\": 1}, \"10\": {\"O\": 1}, \"11\": {\"O\": 1}, \"12\": {\"O\": 1}, \"13\": {\"O\": 1}, \"14\": {\"O\": 1}, \"15\": {\"O\": 1}, \"16\": {\"O\": 1}, \"17\": {\"O\": 1}, \"18\": {\"O\": 1}, \"19\": {\"O\": 1}}" n_minim_iter=4 energy=-22574.498945010746 stress="-0.05073341716670905 -3.938754833724031e-13 -8.972512969279642e-14 -3.938754833724031e-13 -0.05080910851848402 -6.343911719890682e-13 -8.972512969279642e-14 -6.343911719890682e-13 -0.05073916897586124" free_energy=-22574.498945010746 pbc="T T T"
In       1.36724223       2.96354212       0.89682759        0      -0.02432517      -0.02980924       0.02975342
In       1.37087242       0.17055965       2.98771462        1       0.02432517      -0.02980924      -0.02975342
In       1.37087242       2.62242282       4.78136980        2       0.02432517       0.02980924       0.02975342
In       1.36724223       5.41540530       6.87225682        3      -0.02432517       0.02980924      -0.02975342
In       4.10898707       2.62242282       6.87225682        4       0.02432517       0.02980924      -0.02975342
In       4.10535688       5.41540530       4.78136980        5      -0.02432517       0.02980924       0.02975342
In       4.10535688       2.96354212       2.98771462        6      -0.02432517      -0.02980924      -0.02975342
In       4.10898707       0.17055965       0.89682759        7       0.02432517      -0.02980924       0.02975342
O        2.12949668       3.37911263       6.60940251        8      -0.00742320      -0.01252304       0.01346347
O        0.60861797       0.58613016       5.04422411        9       0.00742320      -0.01252304      -0.01346347
O        0.60861797       2.20685232       2.72486030       10       0.00742320       0.01252304       0.01346347
O        2.12949668       4.99983479       1.15968190       11      -0.00742320       0.01252304      -0.01346347
O        3.34673262       2.20685232       1.15968190       12       0.00742320       0.01252304      -0.01346347
O        4.86761133       4.99983479       2.72486030       13      -0.00742320       0.01252304       0.01346347
O        4.86761133       3.37911263       5.04422411       14      -0.00742320      -0.01252304      -0.01346347
O        3.34673262       0.58613016       6.60940251       15       0.00742320      -0.01252304       0.01346347
O        5.24903116       4.18947371      -0.00000000       16      -0.01807506       0.00000000       0.00000000
O        2.96531279       1.39649124       3.88454221       17       0.01807506       0.00000000      -0.00000000
O        0.22719814       1.39649124      -0.00000000       18       0.01807506      -0.00000000       0.00000000
O        2.51091651       4.18947371       3.88454221       19      -0.01807506       0.00000000      -0.00000000
20
Lattice="5.4777803312262074 1.6192245925913011e-59 -1.0639823211327498e-43 1.8235759438161587e-59 5.581233068611321 5.758045274047859e-17 3.5443698006825965e-43 -1.2185193886799554e-16 7.773469516713187" Properties=species:S:1:pos:R:3:spacegroup_kinds:I:1:forces:R:3 spacegroup="P 1" unit_cell=conventional occupancy="_JSON {\"0\": {\"In\": 1}, \"1\": {\"In\": 1}, \"2\": {\"In\": 1}, \"3\": {\"In\": 1}, \"4\": {\"In\": 1}, \"5\": {\"In\": 1}, \"6\": {\"In\": 1}, \"7\": {\"In\": 1}, \"8\": {\"O\": 1}, \"9\": {\"O\": 1}, \"10\": {\"O\": 1}, \"11\": {\"O\": 1}, \"12\": {\"O\": 1}, \"13\": {\"O\": 1}, \"14\": {\"O\": 1}, \"15\": {\"O\": 1}, \"16\": {\"O\": 1}, \"17\": {\"O\": 1}, \"18\": {\"O\": 1}, \"19\": {\"O\": 1}}" n_minim_iter=5 energy=-22574.499943919025 stress="-0.050239087447582396 1.2754691264359188e-13 1.9656244953207692e-13 1.2754691264359188e-13 -0.050307399403229314 1.797264913840796e-13 1.9656244953207692e-13 1.797264913840796e-13 -0.050320664189257645" free_energy=-22574.499943919025 pbc="T T T"
In       1.36676447       2.95937358       0.90069158        0      -0.01211517       0.00120617      -0.00620061
In       1.37212569       0.16875704       2.98604318        1       0.01211517       0.00120617       0.00620061
In       1.37212569       2.62185949       4.78742633        2       0.01211517      -0.00120617      -0.00620061
In       1.36676447       5.41247603       6.87277794        3      -0.01211517      -0.00120617       0.00620061
In       4.11101586       2.62185949       6.87277794        4       0.01211517      -0.00120617       0.00620061
In       4.10565464       5.41247603       4.78742633        5      -0.01211517      -0.00120617      -0.00620061
In       4.10565464       2.95937358       2.98604318        6      -0.01211517       0.00120617       0.00620061
In       4.11101586       0.16875704       0.90069158        7       0.01211517       0.00120617      -0.00620061
O        2.12911526       3.37573473       6.61519894        8       0.00188600      -0.00743115       0.02370957
O        0.60977490       0.58511820       5.04500534        9      -0.00188600      -0.00743115      -0.02370957
O        0.60977490       2.20549834       2.72846418       10      -0.00188600       0.00743115       0.02370957
O        2.12911526       4.99611487       1.15827058       11       0.00188600       0.00743115      -0.02370957
O        3.34866507       2.20549834       1.15827058       12      -0.00188600       0.00743115      -0.02370957
O        4.86800543       4.99611487       2.72846418       13       0.00188600       0.00743115       0.02370957
O        4.86800543       3.37573473       5.04500534       14       0.00188600      -0.00743115      -0.02370957
O        3.34866507       0.58511820       6.61519894       15      -0.00188600      -0.00743115       0.02370957
O        5.25037572       4.18592480      -0.00000000       16      -0.00708721       0.00000000      -0.00000000
O        2.96629477       1.39530827       3.88673476       17       0.00708721      -0.00000000      -0.00000000
O        0.22740461       1.39530827      -0.00000000       18       0.00708721      -0.00000000      -0.00000000
O        2.51148556       4.18592480       3.88673476       19      -0.00708721      -0.00000000       0.00000000
20
Lattice="5.477966383619969 1.5694403624632953e-59 -8.330591701585299e-44 9.694599322917141e-60 5.579039673798956 5.5475331026762046e-17 2.560866960265843e-43 -1.2477002348492987e-16 7.776261529661587" Properties=species:S:1:pos:R:3:spacegroup_kinds:I:1:forces:R:3 spacegroup="P 1" unit_cell=conventional occupancy="_JSON {\"0\": {\"In\": 1}, \"1\": {\"In\": 1}, \"2\": {\"In\": 1}, \"3\": {\"In\": 1}, \"4\": {\"In\": 1}, \"5\": {\"In\": 1}, \"6\": {\"In\": 1}, \"7\": {\"In\": 1}, \"8\": {\"O\": 1}, \"9\": {\"O\": 1}, \"10\": {\"O\": 1}, \"11\": {\"O\": 1}, \"12\": {\"O\": 1}, \"13\": {\"O\": 1}, \"14\": {\"O\": 1}, \"15\": {\"O\": 1}, \"16\": {\"O\": 1}, \"17\": {\"O\": 1}, \"18\": {\"O\": 1}, \"19\": {\"O\": 1}}" n_minim_iter=6 energy=-22574.500145357546 stress="-0.050077288669437676 6.706243731300975e-13 2.0942448217742705e-13 6.706243731300975e-13 -0.050064666152240096 1.3377408918776002e-12 2.0942448217742705e-13 1.3377408918776002e-12 -0.05002346892049389" free_energy=-22574.500145357546 pbc="T T T"
In       1.36592437       2.95740213       0.90257455        0      -0.00395780       0.01696151      -0.01356702
In       1.37305882       0.16788229       2.98555621        1       0.00395780       0.01696151       0.01356702
In       1.37305882       2.62163755       4.79070532        2       0.00395780      -0.01696151      -0.01356702
In       1.36592437       5.41115738       6.87368698        3      -0.00395780      -0.01696151       0.01356702
In       4.11204201       2.62163755       6.87368698        4       0.00395780      -0.01696151       0.01356702
In       4.10490756       5.41115738       4.79070532        5      -0.00395780      -0.01696151      -0.01356702
In       4.10490756       2.95740213       2.98555621        6      -0.00395780       0.01696151       0.01356702
In       4.11204201       0.16788229       0.90257455        7       0.00395780       0.01696151      -0.01356702
O        2.12872086       3.37388112       6.61952285        8       0.00498206      -0.00445657       0.01633959
O        0.61026233       0.58436128       5.04486944        9      -0.00498206      -0.00445657      -0.01633959
O        0.61026233       2.20515855       2.73139209       10      -0.00498206       0.00445657       0.01633959
O        2.12872086       4.99467839       1.15673868       11       0.00498206       0.00445657      -0.01633959
O        3.34924552       2.20515855       1.15673868       12      -0.00498206       0.00445657      -0.01633959
O        4.86770406       4.99467839       2.73139209       13       0.00498206       0.00445657       0.01633959
O        4.86770406       3.37388112       5.04486944       14       0.00498206      -0.00445657      -0.01633959
O        3.34924552       0.58436128       6.61952285       15      -0.00498206      -0.00445657       0.01633959
O        5.25024079       4.18427976      -0.00000000       16       0.00053728      -0.00000000      -0.00000000
O        2.96670879       1.39475992       3.88813076       17      -0.00053728       0.00000000      -0.00000000
O        0.22772560       1.39475992      -0.00000000       18      -0.00053728      -0.00000000      -0.00000000
O        2.51125760       4.18427976       3.88813076       19       0.00053728      -0.00000000      -0.00000000
20
Lattice="5.477572411354455 1.7293650429789819e-59 -9.202553273215395e-44 9.833955762274266e-60 5.580528413868565 6.091052643895948e-17 2.620797831842994e-43 -1.1720350893441805e-16 7.774746180392398" Properties=species:S:1:pos:R:3:spacegroup_kinds:I:1:forces:R:3 spacegroup="P 1" unit_cell=conventional occupancy="_JSON {\"0\": {\"In\": 1}, \"1\": {\"In\": 1}, \"2\": {\"In\": 1}, \"3\": {\"In\": 1}, \"4\": {\"In\": 1}, \"5\": {\"In\": 1}, \"6\": {\"In\": 1}, \"7\": {\"In\": 1}, \"8\": {\"O\": 1}, \"9\": {\"O\": 1}, \"10\": {\"O\": 1}, \"11\": {\"O\": 1}, \"12\": {\"O\": 1}, \"13\": {\"O\": 1}, \"14\": {\"O\": 1}, \"15\": {\"O\": 1}, \"16\": {\"O\": 1}, \"17\": {\"O\": 1}, \"18\": {\"O\": 1}, \"19\": {\"O\": 1}}" n_minim_iter=7 energy=-22574.500312254244 stress="-0.0500726276927269 -3.989011893341998e-13 -1.7929912513745936e-13 -3.989011893341998e-13 -0.05008813511094812 1.569721419693473e-12 -1.7929912513745936e-13 1.569721419693473e-12 -0.05004620975729001" free_energy=-22574.500312254244 pbc="T T T"
In       1.36535612       2.95879540       0.90185144        0      -0.00351997       0.00826917       0.00736669
In       1.37343008       0.16853119       2.98552165        1       0.00351997       0.00826917      -0.00736669
In       1.37343008       2.62173302       4.78922453        2       0.00351997      -0.00826917       0.00736669
In       1.36535612       5.41199722       6.87289474        3      -0.00351997      -0.00826917      -0.00736669
In       4.11221629       2.62173302       6.87289474        4       0.00351997      -0.00826917      -0.00736669
In       4.10414233       5.41199722       4.78922453        5      -0.00351997      -0.00826917       0.00736669
In       4.10414233       2.95879540       2.98552165        6      -0.00351997       0.00826917      -0.00736669
In       4.11221629       0.16853119       0.90185144        7       0.00351997       0.00826917       0.00736669
O        2.12877445       3.37441794       6.61941968        8       0.00286027      -0.00555255      -0.00480677
O        0.61001176       0.58415373       5.04269959        9      -0.00286026      -0.00555255       0.00480677
O        0.61001176       2.20611047       2.73204659       10      -0.00286027       0.00555255      -0.00480677
O        2.12877445       4.99637468       1.15532650       11       0.00286027       0.00555255       0.00480677
O        3.34879796       2.20611047       1.15532650       12      -0.00286027       0.00555255       0.00480677
O        4.86756066       4.99637468       2.73204659       13       0.00286027       0.00555255      -0.00480677
O        4.86756066       3.37441794       5.04269959       14       0.00286027      -0.00555255       0.00480677
O        3.34879796       0.58415373       6.61941968       15      -0.00286027      -0.00555255      -0.00480677
O        5.24970058       4.18539631      -0.00000000       16      -0.00199938       0.00000000      -0.00000000
O        2.96665804       1.39513210       3.88737309       17       0.00199938       0.00000000       0.00000000
O        0.22787184       1.39513210      -0.00000000       18       0.00199938       0.00000000      -0.00000000
O        2.51091437       4.18539631       3.88737309       19      -0.00199938      -0.00000000      -0.00000000
20
Lattice="5.4768825986594365 1.6676101233263687e-59 -9.716356097625102e-44 9.369495097379253e-60 5.582317595564033 6.193992371692109e-17 2.6007976321300624e-43 -1.1578820480022434e-16 7.773233220609354" Properties=species:S:1:pos:R:3:spacegroup_kinds:I:1:forces:R:3 spacegroup="P 1" unit_cell=conventional occupancy="_JSON {\"0\": {\"In\": 1}, \"1\": {\"In\": 1}, \"2\": {\"In\": 1}, \"3\": {\"In\": 1}, \"4\": {\"In\": 1}, \"5\": {\"In\": 1}, \"6\": {\"In\": 1}, \"7\": {\"In\": 1}, \"8\": {\"O\": 1}, \"9\": {\"O\": 1}, \"10\": {\"O\": 1}, \"11\": {\"O\": 1}, \"12\": {\"O\": 1}, \"13\": {\"O\": 1}, \"14\": {\"O\": 1}, \"15\": {\"O\": 1}, \"16\": {\"O\": 1}, \"17\": {\"O\": 1}, \"18\": {\"O\": 1}, \"19\": {\"O\": 1}}" n_minim_iter=8 energy=-22574.5004439811 stress="-0.04989424052361877 9.798854690789505e-13 -4.5234967569436173e-13 9.798854690789505e-13 -0.04981727150186701 -4.3614293803912095e-13 -4.5234967569436173e-13 -4.3614293803912095e-13 -0.05025546282099699" free_energy=-22574.5004439811 pbc="T T T"
In       1.36415938       2.96139986       0.90296241        0       0.00528966       0.00230487      -0.00075785
In       1.37428192       0.17024106       2.98365420        1      -0.00528966       0.00230487       0.00075785
In       1.37428192       2.62091773       4.78957902        2      -0.00528966      -0.00230487      -0.00075785
In       1.36415938       5.41207653       6.87027081        3       0.00528966      -0.00230487       0.00075785
In       4.11272322       2.62091773       6.87027081        4      -0.00528966      -0.00230487       0.00075785
In       4.10260068       5.41207653       4.78957902        5       0.00528966      -0.00230487      -0.00075785
In       4.10260068       2.96139986       2.98365420        6       0.00528966       0.00230487       0.00075785
In       4.11272322       0.17024106       0.90296241        7      -0.00528966       0.00230487      -0.00075785
O        2.12899508       3.37424970       6.61872925        8       0.00384256      -0.00051662       0.00168042
O        0.60944622       0.58309090       5.04112058        9      -0.00384256      -0.00051662      -0.00168042
O        0.60944622       2.20806790       2.73211264       10      -0.00384256       0.00051662       0.00168042
O        2.12899508       4.99922670       1.15450397       11       0.00384256       0.00051662      -0.00168042
O        3.34788752       2.20806790       1.15450397       12      -0.00384256       0.00051662      -0.00168042
O        4.86743638       4.99922670       2.73211264       13       0.00384256       0.00051662       0.00168042
O        4.86743638       3.37424970       5.04112058       14       0.00384256      -0.00051662      -0.00168042
O        3.34788752       0.58309090       6.61872925       15      -0.00384256      -0.00051662       0.00168042
O        5.24862246       4.18673820      -0.00000000       16      -0.00866546      -0.00000000      -0.00000000
O        2.96670144       1.39557940       3.88661661       17       0.00866546       0.00000000      -0.00000000
O        0.22826014       1.39557940      -0.00000000       18       0.00866546      -0.00000000      -0.00000000
O        2.51018116       4.18673820       3.88661661       19      -0.00866546      -0.00000000       0.00000000
