20
Lattice="5.38320742902503 5.207004624768003e-60 1.4500562974573991e-43 -1.0138929842634024e-59 5.204306668854256 -2.4177434372640285e-17 -1.4769088364186988e-43 1.4328384926071457e-16 7.336584612621968" Properties=species:S:1:pos:R:3:spacegroup_kinds:I:1:forces:R:3 spacegroup="P 1" unit_cell=conventional occupancy="_JSON {\"0\": {\"In\": 1}, \"1\": {\"In\": 1}, \"2\": {\"In\": 1}, \"3\": {\"In\": 1}, \"4\": {\"In\": 1}, \"5\": {\"In\": 1}, \"6\": {\"In\": 1}, \"7\": {\"In\": 1}, \"8\": {\"O\": 1}, \"9\": {\"O\": 1}, \"10\": {\"O\": 1}, \"11\": {\"O\": 1}, \"12\": {\"O\": 1}, \"13\": {\"O\": 1}, \"14\": {\"O\": 1}, \"15\": {\"O\": 1}, \"16\": {\"O\": 1}, \"17\": {\"O\": 1}, \"18\": {\"O\": 1}, \"19\": {\"O\": 1}}" n_minim_iter=11 energy=-22569.880401908085 stress="-0.3231618990633607 9.246790747167921e-13 4.4508024074048635e-13 9.246790747167921e-13 -0.3231921881217463 -6.930998824783756e-13 4.4508024074048635e-13 -6.930998824783756e-13 -0.323231453951345" free_energy=-22569.880401908085 pbc="T T T"
In       1.33864420       2.77258728       0.89391083        0      -0.00299945      -0.00066372      -0.00028918
In       1.35295951       0.17043395       2.77438147        1       0.00299945      -0.00066372       0.00028918
In       1.35295951       2.43171939       4.56220314        2       0.00299945       0.00066372      -0.00028918
In       1.33864420       5.03387272       6.44267378        3      -0.00299945       0.00066372       0.00028918
In       4.04456323       2.43171939       6.44267378        4       0.00299945       0.00066372       0.00028918
In       4.03024792       5.03387272       4.56220314        5      -0.00299945       0.00066372      -0.00028918
In       4.03024792       2.77258728       2.77438147        6      -0.00299945      -0.00066372       0.00028918
In       4.04456323       0.17043395       0.89391083        7       0.00299945      -0.00066372      -0.00028918
O        2.11472082       3.12376403       6.29967819        8       0.00318973      -0.00235757       0.00197346
O        0.57688290       0.52161070       4.70519873        9      -0.00318973      -0.00235757      -0.00197346
O        0.57688290       2.08054263       2.63138588       10      -0.00318973       0.00235757       0.00197346
O        2.11472082       4.68269597       1.03690643       11       0.00318973       0.00235757      -0.00197346
O        3.26848661       2.08054263       1.03690643       12      -0.00318973       0.00235757      -0.00197346
O        4.80632453       4.68269597       2.63138588       13       0.00318973       0.00235757       0.00197346
O        4.80632453       3.12376403       4.70519873       14       0.00318973      -0.00235757      -0.00197346
O        3.26848661       0.52161070       6.29967819       15      -0.00318973      -0.00235757       0.00197346
O        5.15854786       3.90323000       0.00000000       16       0.00470334      -0.00000000      -0.00000000
O        2.91626329       1.30107667       3.66829231       17      -0.00470334       0.00000000      -0.00000000
O        0.22465957       1.30107667       0.00000000       18      -0.00470334       0.00000000       0.00000000
O        2.46694414       3.90323000       3.66829231       19       0.00470334      -0.00000000       0.00000000
