20
Lattice="5.7305942771393665 8.8347134627544e-59 2.820271365423233e-43 -2.0749072929819325e-58 5.943100787724262 1.4456940077998731e-16 -5.261246741984384e-43 -7.773920132195334e-17 9.24126171306849" Properties=species:S:1:pos:R:3:spacegroup_kinds:I:1:forces:R:3 spacegroup="P 1" unit_cell=conventional occupancy="_JSON {\"0\": {\"In\": 1}, \"1\": {\"In\": 1}, \"2\": {\"In\": 1}, \"3\": {\"In\": 1}, \"4\": {\"In\": 1}, \"5\": {\"In\": 1}, \"6\": {\"In\": 1}, \"7\": {\"In\": 1}, \"8\": {\"O\": 1}, \"9\": {\"O\": 1}, \"10\": {\"O\": 1}, \"11\": {\"O\": 1}, \"12\": {\"O\": 1}, \"13\": {\"O\": 1}, \"14\": {\"O\": 1}, \"15\": {\"O\": 1}, \"16\": {\"O\": 1}, \"17\": {\"O\": 1}, \"18\": {\"O\": 1}, \"19\": {\"O\": 1}}" n_minim_iter=10 energy=-22571.87723610752 stress="0.10093880526351257 4.3588774937816525e-13 1.704245987226462e-13 4.3588774937816525e-13 0.10074093747431367 -3.7687668339234726e-13 1.704245987226462e-13 -3.7687668339234726e-13 0.10064056201716147" free_energy=-22571.87723610752 pbc="T T T"
In       1.37245067       3.16197283       1.14615896        0       0.00711395      -0.00087965      -0.00144864
In       1.49284647       0.19042244       3.47447189        1      -0.00711395      -0.00087965       0.00144864
In       1.49284647       2.78112796       5.76678982        2      -0.00711395       0.00087965      -0.00144864
In       1.37245067       5.75267835       8.09510275        3       0.00711395       0.00087965       0.00144864
In       4.35814360       2.78112796       8.09510275        4      -0.00711395       0.00087965       0.00144864
In       4.23774781       5.75267835       5.76678982        5       0.00711395       0.00087965      -0.00144864
In       4.23774781       3.16197283       3.47447189        6       0.00711395      -0.00087965       0.00144864
In       4.35814360       0.19042244       1.14615896        7      -0.00711395      -0.00087965      -0.00144864
O        2.27721406       3.58672411       7.70646225        8       0.00383143      -0.00898289      -0.00007148
O        0.58808308       0.61517372       6.15543032        9      -0.00383143      -0.00898289       0.00007148
O        0.58808308       2.35637667       3.08583139       10      -0.00383143       0.00898289      -0.00007148
O        2.27721406       5.32792707       1.53479946       11       0.00383143       0.00898289       0.00007148
O        3.45338022       2.35637667       1.53479946       12      -0.00383143       0.00898289       0.00007148
O        5.14251119       5.32792707       3.08583139       13       0.00383143       0.00898289      -0.00007148
O        5.14251119       3.58672411       6.15543032       14       0.00383143      -0.00898289       0.00007148
O        3.45338022       0.61517372       7.70646225       15      -0.00383143      -0.00898289      -0.00007148
O        5.46894778       4.45732559      -0.00000000       16      -0.00873489       0.00000000      -0.00000000
O        3.12694364       1.48577520       4.62063086       17       0.00873489      -0.00000000       0.00000000
O        0.26164650       1.48577520      -0.00000000       18       0.00873489       0.00000000      -0.00000000
O        2.60365064       4.45732559       4.62063086       19      -0.00873489       0.00000000      -0.00000000
