20
Lattice="5.501636788070847 -3.299763899685957e-60 3.807994204926377e-43 -6.046170010626894e-60 5.61951277153881 -7.124573248270306e-18 -1.5100333495176987e-43 -8.19319864139469e-18 7.894796964748737" Properties=species:S:1:pos:R:3:spacegroup_kinds:I:1:forces:R:3 spacegroup="P 1" unit_cell=conventional occupancy="_JSON {\"0\": {\"In\": 1}, \"1\": {\"In\": 1}, \"2\": {\"In\": 1}, \"3\": {\"In\": 1}, \"4\": {\"In\": 1}, \"5\": {\"In\": 1}, \"6\": {\"In\": 1}, \"7\": {\"In\": 1}, \"8\": {\"O\": 1}, \"9\": {\"O\": 1}, \"10\": {\"O\": 1}, \"11\": {\"O\": 1}, \"12\": {\"O\": 1}, \"13\": {\"O\": 1}, \"14\": {\"O\": 1}, \"15\": {\"O\": 1}, \"16\": {\"O\": 1}, \"17\": {\"O\": 1}, \"18\": {\"O\": 1}, \"19\": {\"O\": 1}}" n_minim_iter=7 energy=-22574.908332417795 stress="-0.014961904039706994 -7.583310363716358e-13 4.2922385927746824e-13 -7.583310363716358e-13 -0.014967862971839016 -5.106791911714258e-14 4.2922385927746824e-13 -5.106791911714258e-14 -0.014955155535990894" free_energy=-22574.908332417795 pbc="T T T"
In       1.36772320       2.97522053       0.90356602        0      -0.00218172       0.00185566       0.00003707
In       1.38309520       0.16546414       3.04383247        1       0.00218172       0.00185566      -0.00003707
In       1.38309520       2.64429224       4.85096450        2       0.00218172      -0.00185566       0.00003707
In       1.36772320       5.45404863       6.99123095        3      -0.00218172      -0.00185566      -0.00003707
In       4.13391359       2.64429224       6.99123095        4       0.00218172      -0.00185566      -0.00003707
In       4.11854159       5.45404863       4.85096450        5      -0.00218172      -0.00185566       0.00003707
In       4.11854159       2.97522053       3.04383247        6      -0.00218172       0.00185566      -0.00003707
In       4.13391359       0.16546414       0.90356602        7       0.00218172       0.00185566       0.00003707
O        2.14429201       3.39797355       6.70771467        8      -0.00011255      -0.00214914       0.00039465
O        0.60652639       0.58821717       5.13448078        9       0.00011255      -0.00214914      -0.00039465
O        0.60652639       2.22153922       2.76031619       10       0.00011255       0.00214914       0.00039465
O        2.14429201       5.03129560       1.18708230       11      -0.00011255       0.00214914      -0.00039465
O        3.35734478       2.22153922       1.18708230       12       0.00011255       0.00214914      -0.00039465
O        4.89511040       5.03129560       2.76031619       13      -0.00011255       0.00214914       0.00039465
O        4.89511040       3.39797355       5.13448078       14      -0.00011255      -0.00214914      -0.00039465
O        3.35734478       0.58821717       6.70771467       15       0.00011255      -0.00214914       0.00039465
O        5.26850665       4.21463458       0.00000000       16      -0.00026570      -0.00000000      -0.00000000
O        2.98394854       1.40487819       3.94739848       17       0.00026570       0.00000000       0.00000000
O        0.23313014       1.40487819       0.00000000       18       0.00026570      -0.00000000      -0.00000000
O        2.51768825       4.21463458       3.94739848       19      -0.00026570      -0.00000000      -0.00000000
