20
Lattice="5.395117431392256 1.6532989045261025e-59 2.641063308959298e-43 -5.250683878709384e-59 5.3494904616900785 1.7218920481313666e-16 -1.7926487995941944e-43 -1.2483517892818034e-18 7.566822460228188" Properties=species:S:1:pos:R:3:spacegroup_kinds:I:1:forces:R:3 spacegroup="P 1" unit_cell=conventional occupancy="_JSON {\"0\": {\"In\": 1}, \"1\": {\"In\": 1}, \"2\": {\"In\": 1}, \"3\": {\"In\": 1}, \"4\": {\"In\": 1}, \"5\": {\"In\": 1}, \"6\": {\"In\": 1}, \"7\": {\"In\": 1}, \"8\": {\"O\": 1}, \"9\": {\"O\": 1}, \"10\": {\"O\": 1}, \"11\": {\"O\": 1}, \"12\": {\"O\": 1}, \"13\": {\"O\": 1}, \"14\": {\"O\": 1}, \"15\": {\"O\": 1}, \"16\": {\"O\": 1}, \"17\": {\"O\": 1}, \"18\": {\"O\": 1}, \"19\": {\"O\": 1}}" n_minim_iter=14 energy=-22573.593749261156 stress="-0.0952124978180248 8.610273440303002e-13 7.699082908162174e-13 8.610273440303002e-13 -0.09523438071728145 1.6744644045462455e-13 7.699082908162174e-13 1.6744644045462455e-13 -0.0953838680333328" free_energy=-22573.593749261156 pbc="T T T"
In       1.34223801       2.83418263       0.92553753        0      -0.00297741      -0.00531263      -0.00234280
In       1.35532071       0.15943740       2.85787370        1       0.00297741      -0.00531263       0.00234280
In       1.35532071       2.51530783       4.70894876        2       0.00297741       0.00531263      -0.00234280
In       1.34223801       5.19005306       6.64128493        3      -0.00297741       0.00531263       0.00234280
In       4.05287943       2.51530783       6.64128493        4       0.00297741       0.00531263       0.00234280
In       4.03979672       5.19005306       4.70894876        5      -0.00297741       0.00531263      -0.00234280
In       4.03979672       2.83418263       2.85787370        6      -0.00297741      -0.00531263       0.00234280
In       4.05287943       0.15943740       0.92553753        7       0.00297741      -0.00531263      -0.00234280
O        2.09322014       3.21084714       6.49282151        8      -0.00414351      -0.00134357      -0.00157665
O        0.60433858       0.53610191       4.85741218        9       0.00414351      -0.00134357       0.00157665
O        0.60433858       2.13864332       2.70941028       10       0.00414351       0.00134357      -0.00157665
O        2.09322014       4.81338855       1.07400095       11      -0.00414351       0.00134357       0.00157665
O        3.30189729       2.13864332       1.07400095       12       0.00414351       0.00134357       0.00157665
O        4.79077886       4.81338855       2.70941028       13      -0.00414351       0.00134357      -0.00157665
O        4.79077886       3.21084714       4.85741218       14      -0.00414351      -0.00134357       0.00157665
O        3.30189729       0.53610191       6.49282151       15       0.00414351      -0.00134357      -0.00157665
O        5.17755120       4.01211785       0.00000000       16      -0.00604694       0.00000000       0.00000000
O        2.91512495       1.33737262       3.78341123       17       0.00604694      -0.00000000      -0.00000000
O        0.21756623       1.33737262       0.00000000       18       0.00604694      -0.00000000      -0.00000000
O        2.47999249       4.01211785       3.78341123       19      -0.00604694       0.00000000      -0.00000000
