20
Lattice="5.769315683323231 8.894409283460824e-59 2.839327831089441e-43 -2.0889273621405404e-58 5.983258092266155 1.4554625068745523e-16 -5.29679678483816e-43 -7.826448212970565e-17 9.303704564741064" Properties=species:S:1:pos:R:3:spacegroup_kinds:I:1:forces:R:3 spacegroup="P 1" unit_cell=conventional occupancy="_JSON {\"0\": {\"In\": 1}, \"1\": {\"In\": 1}, \"2\": {\"In\": 1}, \"3\": {\"In\": 1}, \"4\": {\"In\": 1}, \"5\": {\"In\": 1}, \"6\": {\"In\": 1}, \"7\": {\"In\": 1}, \"8\": {\"O\": 1}, \"9\": {\"O\": 1}, \"10\": {\"O\": 1}, \"11\": {\"O\": 1}, \"12\": {\"O\": 1}, \"13\": {\"O\": 1}, \"14\": {\"O\": 1}, \"15\": {\"O\": 1}, \"16\": {\"O\": 1}, \"17\": {\"O\": 1}, \"18\": {\"O\": 1}, \"19\": {\"O\": 1}}" n_minim_iter=10 energy=-22571.87723610752 stress="0.10093880526351257 4.3588774937816525e-13 1.704245987226462e-13 4.3588774937816525e-13 0.10074093747431367 -3.7687668339234726e-13 1.704245987226462e-13 -3.7687668339234726e-13 0.10064056201716147" free_energy=-22571.87723610752 pbc="T T T"
In       1.38172427       3.18333816       1.15390351        0       0.00711395      -0.00087965      -0.00144864
In       1.50293357       0.19170911       3.49794877        1      -0.00711395      -0.00087965       0.00144864
In       1.50293357       2.79991993       5.80575580        2      -0.00711395       0.00087965      -0.00144864
In       1.38172427       5.79154898       8.14980105        3       0.00711395       0.00087965       0.00144864
In       4.38759141       2.79991993       8.14980105        4      -0.00711395       0.00087965       0.00144864
In       4.26638211       5.79154898       5.80575580        5       0.00711395       0.00087965      -0.00144864
In       4.26638211       3.18333816       3.49794877        6       0.00711395      -0.00087965       0.00144864
In       4.38759141       0.19170911       1.15390351        7      -0.00711395      -0.00087965      -0.00144864
O        2.29260110       3.61095947       7.75853452        8       0.00383143      -0.00898289      -0.00007148
O        0.59205674       0.61933043       6.19702233        9      -0.00383143      -0.00898289       0.00007148
O        0.59205674       2.37229862       3.10668224       10      -0.00383143       0.00898289      -0.00007148
O        2.29260110       5.36392767       1.54517004       11       0.00383143       0.00898289       0.00007148
O        3.47671458       2.37229862       1.54517004       12      -0.00383143       0.00898289       0.00007148
O        5.17725895       5.36392767       3.10668224       13       0.00383143       0.00898289      -0.00007148
O        5.17725895       3.61095947       6.19702233       14       0.00383143      -0.00898289       0.00007148
O        3.47671458       0.61933043       7.75853452       15      -0.00383143      -0.00898289      -0.00007148
O        5.50590125       4.48744357      -0.00000000       16      -0.00873489       0.00000000      -0.00000000
O        3.14807227       1.49581452       4.65185228       17       0.00873489      -0.00000000       0.00000000
O        0.26341443       1.49581452      -0.00000000       18       0.00873489       0.00000000      -0.00000000
O        2.62124341       4.48744357       4.65185228       19      -0.00873489       0.00000000      -0.00000000
