20
Lattice="5.877054392234611 -2.1349272980420607e-61 -4.485973091727736e-44 2.3937751351141337e-61 5.88048064772582 -9.852041826235757e-18 1.363572531054084e-43 -1.3662248064392462e-17 8.549352880696079" Properties=species:S:1:pos:R:3:spacegroup_kinds:I:1:forces:R:3 spacegroup="P 1" unit_cell=conventional occupancy="_JSON {\"0\": {\"In\": 1}, \"1\": {\"In\": 1}, \"2\": {\"In\": 1}, \"3\": {\"In\": 1}, \"4\": {\"In\": 1}, \"5\": {\"In\": 1}, \"6\": {\"In\": 1}, \"7\": {\"In\": 1}, \"8\": {\"O\": 1}, \"9\": {\"O\": 1}, \"10\": {\"O\": 1}, \"11\": {\"O\": 1}, \"12\": {\"O\": 1}, \"13\": {\"O\": 1}, \"14\": {\"O\": 1}, \"15\": {\"O\": 1}, \"16\": {\"O\": 1}, \"17\": {\"O\": 1}, \"18\": {\"O\": 1}, \"19\": {\"O\": 1}}" n_minim_iter=6 energy=-22573.84075779838 stress="0.0648255819137091 3.1795076968356507e-13 -1.1707723862956807e-13 3.1795076968356507e-13 0.0648081158061772 4.889347212340469e-14 -1.1707723862956807e-13 4.889347212340469e-14 0.06477940879500552" free_energy=-22573.84075779838 pbc="T T T"
In       1.45436014       3.08384179       0.99849897        0      -0.00869315       0.00369977      -0.00234958
In       1.48416706       0.14360147       3.27617747        1       0.00869315       0.00369977       0.00234958
In       1.48416706       2.79663885       5.27317541        2       0.00869315      -0.00369977      -0.00234958
In       1.45436014       5.73687918       7.55085391        3      -0.00869315      -0.00369977       0.00234958
In       4.42269426       2.79663885       7.55085391        4       0.00869315      -0.00369977       0.00234958
In       4.39288733       5.73687918       5.27317541        5      -0.00869315      -0.00369977      -0.00234958
In       4.39288733       3.08384179       3.27617747        6      -0.00869315       0.00369977       0.00234958
In       4.42269426       0.14360147       0.99849897        7       0.00869315       0.00369977      -0.00234958
O        2.29975920       3.53004009       7.24579175        8       0.00280087      -0.00261154       0.00496246
O        0.63876799       0.58979977       5.57823757        9      -0.00280087      -0.00261154      -0.00496246
O        0.63876799       2.35044056       2.97111531       10      -0.00280087       0.00261154       0.00496246
O        2.29975920       5.29068088       1.30356113       11       0.00280087       0.00261154      -0.00496246
O        3.57729519       2.35044056       1.30356113       12      -0.00280087       0.00261154      -0.00496246
O        5.23828640       5.29068088       2.97111531       13       0.00280087       0.00261154       0.00496246
O        5.23828640       3.53004009       5.57823757       14       0.00280087      -0.00261154      -0.00496246
O        3.57729519       0.58979977       7.24579175       15      -0.00280087      -0.00261154       0.00496246
O        5.60854744       4.41036049      -0.00000000       16      -0.00326193      -0.00000000       0.00000000
O        3.20703414       1.47012016       4.27467644       17       0.00326193       0.00000000      -0.00000000
O        0.26850695       1.47012016      -0.00000000       18       0.00326193      -0.00000000      -0.00000000
O        2.67002025       4.41036049       4.27467644       19      -0.00326193       0.00000000      -0.00000000
