20
Lattice="5.688172459107168 8.107524612515068e-62 2.0362937703104846e-43 -2.3857683769654983e-62 5.758768046643562 -1.6264201257765597e-18 -2.9482382276331018e-43 2.3259375457224673e-18 8.23559337744893" Properties=species:S:1:pos:R:3:spacegroup_kinds:I:1:forces:R:3 spacegroup="P 1" unit_cell=conventional occupancy="_JSON {\"0\": {\"In\": 1}, \"1\": {\"In\": 1}, \"2\": {\"In\": 1}, \"3\": {\"In\": 1}, \"4\": {\"In\": 1}, \"5\": {\"In\": 1}, \"6\": {\"In\": 1}, \"7\": {\"In\": 1}, \"8\": {\"O\": 1}, \"9\": {\"O\": 1}, \"10\": {\"O\": 1}, \"11\": {\"O\": 1}, \"12\": {\"O\": 1}, \"13\": {\"O\": 1}, \"14\": {\"O\": 1}, \"15\": {\"O\": 1}, \"16\": {\"O\": 1}, \"17\": {\"O\": 1}, \"18\": {\"O\": 1}, \"19\": {\"O\": 1}}" n_minim_iter=1 energy=-22574.759114025957 stress="0.02986935220393917 2.2978717950334857e-13 1.922031122827023e-13 2.2978717950334857e-13 0.03264093633670246 -6.837850659706545e-13 1.922031122827023e-13 -6.837850659706545e-13 0.030896529495088504" free_energy=-22574.759114025957 pbc="T T T"
In       1.40908852       3.03442025       0.94767580        0      -0.01798403      -0.06965779       0.02437668
In       1.43499771       0.15503623       3.17012089        1       0.01798403      -0.06965779      -0.02437668
In       1.43499771       2.72434780       5.06547249        2       0.01798403       0.06965779       0.02437668
In       1.40908852       5.60373182       7.28791758        3      -0.01798403       0.06965779      -0.02437668
In       4.27908394       2.72434780       7.28791758        4       0.01798403       0.06965779      -0.02437668
In       4.25317475       5.60373182       5.06547249        5      -0.01798403       0.06965779       0.02437668
In       4.25317475       3.03442025       3.17012089        6      -0.01798403      -0.06965779      -0.02437668
In       4.27908394       0.15503623       0.94767580        7       0.01798403      -0.06965779       0.02437668
O        2.22100251       3.47594310       6.99401264        8       0.01993279      -0.03700398      -0.01982136
O        0.62308372       0.59655908       5.35937742        9      -0.01993279      -0.03700398       0.01982136
O        0.62308372       2.28282494       2.87621595       10      -0.01993279       0.03700398      -0.01982136
O        2.22100251       5.16220897       1.24158073       11       0.01993279       0.03700398       0.01982136
O        3.46716994       2.28282494       1.24158073       12      -0.01993279       0.03700398       0.01982136
O        5.06508874       5.16220897       2.87621595       13       0.01993279       0.03700398      -0.01982136
O        5.06508874       3.47594310       5.35937742       14       0.01993279      -0.03700398       0.01982136
O        3.46716994       0.59655908       6.99401264       15      -0.01993279      -0.03700398      -0.01982136
O        5.45204955       4.31907603      -0.00000000       16      -0.04911194       0.00000000      -0.00000000
O        3.08020914       1.43969201       4.11779669       17       0.04911194      -0.00000000       0.00000000
O        0.23612291       1.43969201      -0.00000000       18       0.04911194      -0.00000000      -0.00000000
O        2.60796332       4.31907603       4.11779669       19      -0.04911194       0.00000000       0.00000000
20
Lattice="5.700002316111481 -2.046419817128207e-62 2.039588711562523e-43 -1.8810617585359385e-61 5.744562434601102 9.175720023700654e-20 -2.9507557167133304e-43 4.778271702798512e-18 8.238824487534266" Properties=species:S:1:pos:R:3:spacegroup_kinds:I:1:forces:R:3 spacegroup="P 1" unit_cell=conventional occupancy="_JSON {\"0\": {\"In\": 1}, \"1\": {\"In\": 1}, \"2\": {\"In\": 1}, \"3\": {\"In\": 1}, \"4\": {\"In\": 1}, \"5\": {\"In\": 1}, \"6\": {\"In\": 1}, \"7\": {\"In\": 1}, \"8\": {\"O\": 1}, \"9\": {\"O\": 1}, \"10\": {\"O\": 1}, \"11\": {\"O\": 1}, \"12\": {\"O\": 1}, \"13\": {\"O\": 1}, \"14\": {\"O\": 1}, \"15\": {\"O\": 1}, \"16\": {\"O\": 1}, \"17\": {\"O\": 1}, \"18\": {\"O\": 1}, \"19\": {\"O\": 1}}" n_minim_iter=2 energy=-22574.760207563235 stress="0.031248608092186655 -1.6416467645601307e-13 1.228284179137877e-13 -1.6416467645601307e-13 0.03050644146705663 3.101635534363075e-13 1.228284179137877e-13 3.101635534363075e-13 0.030805615012635828" free_energy=-22574.760207563235 pbc="T T T"
In       1.41190944       3.02651240       0.94819592        0      -0.00641227      -0.07664498       0.03067461
In       1.43809172       0.15423118       3.17121633        1       0.00641227      -0.07664498      -0.03067461
In       1.43809172       2.71805003       5.06760816        2       0.00641227       0.07664498       0.03067461
In       1.41190944       5.59033125       7.29062857        3      -0.00641227       0.07664498      -0.03067461
In       4.28809288       2.71805003       7.29062857        4       0.00641227       0.07664498      -0.03067461
In       4.26191059       5.59033125       5.06760816        5      -0.00641227       0.07664498       0.03067461
In       4.26191059       3.02651240       3.17121633        6      -0.00641227      -0.07664498      -0.03067461
In       4.28809288       0.15423118       0.94819592        7       0.00641227      -0.07664498       0.03067461
O        2.22574308       3.46714422       6.99663604        8       0.01767618      -0.03878914      -0.01482273
O        0.62425808       0.59486300       5.36160069        9      -0.01767618      -0.03878914       0.01482273
O        0.62425808       2.27741821       2.87722380       10      -0.01767618       0.03878914      -0.01482273
O        2.22574308       5.14969943       1.24218845       11       0.01767618       0.03878914       0.01482273
O        3.47425924       2.27741821       1.24218845       12      -0.01767618       0.03878914       0.01482273
O        5.07574424       5.14969943       2.87722380       13       0.01767618       0.03878914      -0.01482273
O        5.07574424       3.46714422       5.36160069       14       0.01767618      -0.03878914       0.01482273
O        3.47425924       0.59486300       6.99663604       15      -0.01767618      -0.03878914      -0.01482273
O        5.46308902       4.30842183       0.00000000       16      -0.03950347       0.00000000      -0.00000000
O        3.08691446       1.43614061       4.11941224       17       0.03950347       0.00000000      -0.00000000
O        0.23691330       1.43614061       0.00000000       18       0.03950347      -0.00000000       0.00000000
O        2.61308786       4.30842183       4.11941224       19      -0.03950347      -0.00000000      -0.00000000
20
Lattice="5.695201134158521 -1.2674506176820679e-61 2.0065599855916597e-43 -2.6980937885104334e-61 5.73882024099074 -6.271294245887997e-19 -2.9620554182206687e-43 3.748095402332912e-18 8.254020617867825" Properties=species:S:1:pos:R:3:spacegroup_kinds:I:1:forces:R:3 spacegroup="P 1" unit_cell=conventional occupancy="_JSON {\"0\": {\"In\": 1}, \"1\": {\"In\": 1}, \"2\": {\"In\": 1}, \"3\": {\"In\": 1}, \"4\": {\"In\": 1}, \"5\": {\"In\": 1}, \"6\": {\"In\": 1}, \"7\": {\"In\": 1}, \"8\": {\"O\": 1}, \"9\": {\"O\": 1}, \"10\": {\"O\": 1}, \"11\": {\"O\": 1}, \"12\": {\"O\": 1}, \"13\": {\"O\": 1}, \"14\": {\"O\": 1}, \"15\": {\"O\": 1}, \"16\": {\"O\": 1}, \"17\": {\"O\": 1}, \"18\": {\"O\": 1}, \"19\": {\"O\": 1}}" n_minim_iter=3 energy=-22574.763154246444 stress="0.02935610746963131 -5.553318459523908e-14 1.528497042624284e-13 -5.553318459523908e-14 0.02948600908333263 6.303901047186384e-14 1.528497042624284e-13 6.303901047186384e-14 0.030880357196713327" free_energy=-22574.763154246444 pbc="T T T"
In       1.41003474       3.01773252       0.95220877        0      -0.00427905      -0.01415592       0.01463367
In       1.43756583       0.14832240       3.17480154        1       0.00427905      -0.01415592      -0.01463367
In       1.43756583       2.72108772       5.07921907        2       0.00427905       0.01415592       0.01463367
In       1.41003474       5.59049784       7.30181185        3      -0.00427905       0.01415592      -0.01463367
In       4.28516639       2.72108772       7.30181185        4       0.00427905       0.01415592      -0.01463367
In       4.25763531       5.59049784       5.07921907        5      -0.00427905       0.01415592       0.01463367
In       4.25763531       3.01773252       3.17480154        6      -0.00427905      -0.01415592      -0.01463367
In       4.28516639       0.14832240       0.95220877        7       0.00427905      -0.01415592       0.01463367
O        2.22527021       3.46073750       7.00831461        8      -0.00345377      -0.00169488      -0.00140656
O        0.62233035       0.59132737       5.37271632        9       0.00345377      -0.00169488       0.00140656
O        0.62233035       2.27808275       2.88130430       10       0.00345377       0.00169488      -0.00140656
O        2.22527021       5.14749287       1.24570601       11      -0.00345377       0.00169488       0.00140656
O        3.46993092       2.27808275       1.24570601       12       0.00345377       0.00169488       0.00140656
O        5.07287078       5.14749287       2.88130430       13      -0.00345377       0.00169488      -0.00140656
O        5.07287078       3.46073750       5.37271632       14      -0.00345377      -0.00169488       0.00140656
O        3.46993092       0.59132737       7.00831461       15       0.00345377      -0.00169488      -0.00140656
O        5.45527926       4.30411518      -0.00000000       16       0.01778851      -0.00000000      -0.00000000
O        3.08752244       1.43470506       4.12701031       17      -0.01778851       0.00000000      -0.00000000
O        0.23992187       1.43470506      -0.00000000       18      -0.01778851      -0.00000000      -0.00000000
O        2.60767869       4.30411518       4.12701031       19       0.01778851       0.00000000       0.00000000
20
Lattice="5.698762575077087 -1.2670757885766797e-61 1.914913588098053e-43 -2.6995140002314898e-61 5.741212779462973 -6.264763195059323e-19 -2.9554225019978743e-43 3.749657999185769e-18 8.245424716275174" Properties=species:S:1:pos:R:3:spacegroup_kinds:I:1:forces:R:3 spacegroup="P 1" unit_cell=conventional occupancy="_JSON {\"0\": {\"In\": 1}, \"1\": {\"In\": 1}, \"2\": {\"In\": 1}, \"3\": {\"In\": 1}, \"4\": {\"In\": 1}, \"5\": {\"In\": 1}, \"6\": {\"In\": 1}, \"7\": {\"In\": 1}, \"8\": {\"O\": 1}, \"9\": {\"O\": 1}, \"10\": {\"O\": 1}, \"11\": {\"O\": 1}, \"12\": {\"O\": 1}, \"13\": {\"O\": 1}, \"14\": {\"O\": 1}, \"15\": {\"O\": 1}, \"16\": {\"O\": 1}, \"17\": {\"O\": 1}, \"18\": {\"O\": 1}, \"19\": {\"O\": 1}}" n_minim_iter=4 energy=-22574.76340461274 stress="0.029848898788837404 5.014448957530478e-13 -3.594975225149899e-13 5.014448957530478e-13 0.029804138293305187 -2.9131498066729836e-13 -3.594975225149899e-13 -2.9131498066729836e-13 0.02979653502068626" free_energy=-22574.76340461274 pbc="T T T"
In       1.41083882       3.01844279       0.95147403        0       0.00204756      -0.00586142       0.00582171
In       1.43854247       0.14783640       3.17123833        1      -0.00204756      -0.00586142      -0.00582171
In       1.43854247       2.72276999       5.07418638        2      -0.00204756       0.00586142       0.00582171
In       1.41083882       5.59337638       7.29395069        3       0.00204756       0.00586142      -0.00582171
In       4.28792376       2.72276999       7.29395069        4      -0.00204756       0.00586142      -0.00582171
In       4.26022010       5.59337638       5.07418638        5       0.00204756       0.00586142       0.00582171
In       4.26022010       3.01844279       3.17123833        6       0.00204756      -0.00586142      -0.00582171
In       4.28792376       0.14783640       0.95147403        7      -0.00204756      -0.00586142       0.00582171
O        2.22676392       3.46192538       7.00090642        8      -0.00046483       0.00071891       0.00785662
O        0.62261737       0.59131899       5.36723066        9       0.00046483       0.00071891      -0.00785662
O        0.62261737       2.27928740       2.87819406       10       0.00046483      -0.00071891       0.00785662
O        2.22676392       5.14989379       1.24451830       11      -0.00046483      -0.00071891      -0.00785662
O        3.47199865       2.27928740       1.24451830       12       0.00046483      -0.00071891      -0.00785662
O        5.07614521       5.14989379       2.87819406       13      -0.00046483      -0.00071891       0.00785662
O        5.07614521       3.46192538       5.36723066       14      -0.00046483       0.00071891      -0.00785662
O        3.47199865       0.59131899       7.00090642       15       0.00046483       0.00071891       0.00785662
O        5.45850202       4.30590958      -0.00000000       16       0.02084107      -0.00000000       0.00000000
O        3.08964184       1.43530319       4.12271236       17      -0.02084107       0.00000000       0.00000000
O        0.24026055       1.43530319      -0.00000000       18      -0.02084107      -0.00000000       0.00000000
O        2.60912073       4.30590958       4.12271236       19       0.02084107      -0.00000000      -0.00000000
20
Lattice="5.698536493444284 2.7203316455255624e-63 1.924139614810527e-43 -2.6994387745053245e-61 5.7413128434933 3.2671876937936513e-18 -2.956790304601066e-43 9.318036669980108e-18 8.245608128885285" Properties=species:S:1:pos:R:3:spacegroup_kinds:I:1:forces:R:3 spacegroup="P 1" unit_cell=conventional occupancy="_JSON {\"0\": {\"In\": 1}, \"1\": {\"In\": 1}, \"2\": {\"In\": 1}, \"3\": {\"In\": 1}, \"4\": {\"In\": 1}, \"5\": {\"In\": 1}, \"6\": {\"In\": 1}, \"7\": {\"In\": 1}, \"8\": {\"O\": 1}, \"9\": {\"O\": 1}, \"10\": {\"O\": 1}, \"11\": {\"O\": 1}, \"12\": {\"O\": 1}, \"13\": {\"O\": 1}, \"14\": {\"O\": 1}, \"15\": {\"O\": 1}, \"16\": {\"O\": 1}, \"17\": {\"O\": 1}, \"18\": {\"O\": 1}, \"19\": {\"O\": 1}}" n_minim_iter=5 energy=-22574.763550224216 stress="0.029724348391948055 -6.542732385741205e-13 -6.831906123202168e-13 -6.542732385741205e-13 0.029950048946641335 -3.853257354503004e-14 -6.831906123202168e-13 -3.853257354503004e-14 0.02978708067573092" free_energy=-22574.763550224216 pbc="T T T"
In       1.41088711       3.01783578       0.95202258        0      -0.00181328      -0.00260251       0.00017489
In       1.43838114       0.14717936       3.17078149        1       0.00181328      -0.00260251      -0.00017489
In       1.43838114       2.72347706       5.07482664        2       0.00181328       0.00260251       0.00017489
In       1.41088711       5.59413349       7.29358555        3      -0.00181328       0.00260251      -0.00017489
In       4.28764938       2.72347706       7.29358555        4       0.00181328       0.00260251      -0.00017489
In       4.26015536       5.59413349       5.07482664        5      -0.00181328       0.00260251       0.00017489
In       4.26015536       3.01783578       3.17078149        6      -0.00181328      -0.00260251      -0.00017489
In       4.28764938       0.14717936       0.95202258        7       0.00181328      -0.00260251       0.00017489
O        2.22669151       3.46192210       7.00157365        8      -0.00012364       0.00126634       0.00316956
O        0.62257674       0.59126568       5.36683854        9       0.00012364       0.00126634      -0.00316956
O        0.62257674       2.27939074       2.87876959       10       0.00012364      -0.00126634       0.00316956
O        2.22669151       5.15004716       1.24403448       11      -0.00012364      -0.00126634      -0.00316956
O        3.47184499       2.27939074       1.24403448       12       0.00012364      -0.00126634      -0.00316956
O        5.07595975       5.15004716       2.87876959       13      -0.00012364      -0.00126634       0.00316956
O        5.07595975       3.46192210       5.36683854       14      -0.00012364       0.00126634      -0.00316956
O        3.47184499       0.59126568       7.00157365       15       0.00012364       0.00126634       0.00316956
O        5.45968781       4.30598463       0.00000000       16       0.01087616      -0.00000000       0.00000000
O        3.08811693       1.43532821       4.12280406       17      -0.01087616      -0.00000000      -0.00000000
O        0.23884869       1.43532821       0.00000000       18      -0.01087616      -0.00000000      -0.00000000
O        2.61041956       4.30598463       4.12280406       19       0.01087616       0.00000000      -0.00000000
20
Lattice="5.6996394235375725 1.4495170307441559e-62 1.934556064164541e-43 -2.694891802434716e-61 5.739742535029901 3.611103992244997e-18 -2.9572850452000667e-43 9.808909601009523e-18 8.246267971180963" Properties=species:S:1:pos:R:3:spacegroup_kinds:I:1:forces:R:3 spacegroup="P 1" unit_cell=conventional occupancy="_JSON {\"0\": {\"In\": 1}, \"1\": {\"In\": 1}, \"2\": {\"In\": 1}, \"3\": {\"In\": 1}, \"4\": {\"In\": 1}, \"5\": {\"In\": 1}, \"6\": {\"In\": 1}, \"7\": {\"In\": 1}, \"8\": {\"O\": 1}, \"9\": {\"O\": 1}, \"10\": {\"O\": 1}, \"11\": {\"O\": 1}, \"12\": {\"O\": 1}, \"13\": {\"O\": 1}, \"14\": {\"O\": 1}, \"15\": {\"O\": 1}, \"16\": {\"O\": 1}, \"17\": {\"O\": 1}, \"18\": {\"O\": 1}, \"19\": {\"O\": 1}}" n_minim_iter=6 energy=-22574.76360053273 stress="0.029793112759082595 -5.208970059358034e-13 -1.0000816690878137e-13 -5.208970059358034e-13 0.029832782398785878 -5.275320438791276e-13 -1.0000816690878137e-13 -5.275320438791276e-13 0.029803507464478324" free_energy=-22574.76360053273 pbc="T T T"
In       1.41120039       3.01644844       0.95250035        0      -0.00331647      -0.00136610      -0.00311843
In       1.43861932       0.14657718       3.17063364        1       0.00331647      -0.00136610       0.00311843
In       1.43861932       2.72329409       5.07563433        2       0.00331647       0.00136610      -0.00311843
In       1.41120039       5.59316536       7.29376762        3      -0.00331647       0.00136610       0.00311843
In       4.28843904       2.72329409       7.29376762        4       0.00331647       0.00136610       0.00311843
In       4.26102010       5.59316536       5.07563433        5      -0.00331647       0.00136610      -0.00311843
In       4.26102010       3.01644844       3.17063364        6      -0.00331647      -0.00136610       0.00311843
In       4.28843904       0.14657718       0.95250035        7       0.00331647      -0.00136610      -0.00311843
O        2.22712981       3.46095210       7.00258281        8       0.00019615       0.00096282      -0.00077182
O        0.62268990       0.59108083       5.36681915        9      -0.00019615       0.00096282       0.00077182
O        0.62268990       2.27879044       2.87944883       10      -0.00019615      -0.00096282      -0.00077182
O        2.22712981       5.14866170       1.24368516       11       0.00019615      -0.00096282       0.00077182
O        3.47250961       2.27879044       1.24368516       12      -0.00019615      -0.00096282       0.00077182
O        5.07694952       5.14866170       2.87944883       13       0.00019615      -0.00096282      -0.00077182
O        5.07694952       3.46095210       5.36681915       14       0.00019615       0.00096282       0.00077182
O        3.47250961       0.59108083       7.00258281       15      -0.00019615       0.00096282      -0.00077182
O        5.46203337       4.30480690       0.00000000       16       0.00224799       0.00000000       0.00000000
O        3.08742577       1.43493563       4.12313399       17      -0.00224799       0.00000000       0.00000000
O        0.23760605       1.43493563       0.00000000       18      -0.00224799      -0.00000000      -0.00000000
O        2.61221366       4.30480690       4.12313399       19       0.00224799      -0.00000000       0.00000000
