10
Lattice="5.223465437448716 -0.30770154024779395 -0.21246358972765453 2.608989574723289 4.535685704838615 -0.21246358972765408 2.608989574723292 1.4083408829505284 4.316730423300422" Properties=species:S:1:pos:R:3:spacegroup_kinds:I:1:forces:R:3 spacegroup="P 1" unit_cell=conventional occupancy="_JSON {\"0\": {\"In\": 1}, \"1\": {\"In\": 1}, \"2\": {\"In\": 1}, \"3\": {\"In\": 1}, \"4\": {\"O\": 1}, \"5\": {\"O\": 1}, \"6\": {\"O\": 1}, \"7\": {\"O\": 1}, \"8\": {\"O\": 1}, \"9\": {\"O\": 1}}" n_minim_iter=1 energy=-11285.749757726808 stress="-0.20166537199749704 0.0017792256532186467 0.0012285303118382438 0.0017792256532186467 -0.20400100396395243 0.0006631645758820189 0.0012285303118382438 0.0006631645758820189 -0.2045035298220876" free_energy=-11285.749757726808 pbc="T T T"
In       9.09311506       4.90849248       3.38924508        0       0.15722457       0.08487033       0.05860177
In       6.56905180       3.54599509       2.44845978        1      -0.15722457      -0.08487033      -0.05860177
In       3.87239277       2.09032995       1.44334346        2       0.15722457       0.08487033       0.05860177
In       1.34832951       0.72783257       0.50255816        3      -0.15722457      -0.08487033      -0.05860177
O        5.22209386       1.92584766      -0.10450591        4      -0.00000000      -0.02643514       0.03828483
O        5.96594935       4.56167280       0.76048722        5       0.02209991      -0.04094067       0.00000000
O        7.08722794       1.59141864       2.05385930        6      -0.02209991       0.01450554       0.03828483
O        3.35421663       4.04490640       1.83794394        7       0.02209991      -0.01450554      -0.03828483
O        5.21935072       3.71047739       3.99630915        8       0.00000000       0.02643514      -0.03828483
O        4.47549522       1.07465225       3.13131602        9      -0.02209991       0.04094067       0.00000000
10
Lattice="5.21072010934337 -0.32225787839868586 -0.22251453667558824 2.5898267634937473 4.533017927738313 -0.2225145366755878 2.5898267634937495 1.3979967364087813 4.317796819816709" Properties=species:S:1:pos:R:3:spacegroup_kinds:I:1:forces:R:3 spacegroup="P 1" unit_cell=conventional occupancy="_JSON {\"0\": {\"In\": 1}, \"1\": {\"In\": 1}, \"2\": {\"In\": 1}, \"3\": {\"In\": 1}, \"4\": {\"O\": 1}, \"5\": {\"O\": 1}, \"6\": {\"O\": 1}, \"7\": {\"O\": 1}, \"8\": {\"O\": 1}, \"9\": {\"O\": 1}}" n_minim_iter=2 energy=-11285.752666950186 stress="-0.20261843477349512 -0.0014263695285531125 -0.0009848881152834145 -0.0014263695285531125 -0.20074600546040705 -0.0005316457416750713 -0.0009848881152834145 -0.0005316457416750713 -0.20034314056143174" free_energy=-11285.752666950186 pbc="T T T"
In       9.05087411       4.88569068       3.37350076        0       0.20637842       0.11140373       0.07692271
In       6.53468633       3.52744450       2.43565086        1      -0.20637842      -0.11140373      -0.07692271
In       3.85568729       2.08131228       1.43711688        2       0.20637842       0.11140373       0.07692271
In       1.33949951       0.72306611       0.49926698        3      -0.20637842      -0.11140373      -0.07692271
O        5.20295346       1.91294495      -0.11612596        4      -0.00000000      -0.03746194       0.05425446
O        5.93616789       4.54813172       0.74567740        5       0.03131837      -0.05801812       0.00000000
O        7.05956579       1.57138082       2.04277245        6      -0.03131837       0.02055618       0.05425446
O        3.33080784       4.03737597       1.82999529        7       0.03131837      -0.02055618      -0.05425446
O        5.18742017       3.69581184       3.98889370        8       0.00000000       0.03746194      -0.05425446
O        4.45420573       1.06062507       3.12709034        9      -0.03131837       0.05801812      -0.00000000
10
Lattice="5.201861724564238 -0.3324197403173041 -0.2295311595361942 2.5764706070199748 4.53118830952778 -0.2295311595361937 2.5764706070199774 1.3907870406003597 4.318571923367417" Properties=species:S:1:pos:R:3:spacegroup_kinds:I:1:forces:R:3 spacegroup="P 1" unit_cell=conventional occupancy="_JSON {\"0\": {\"In\": 1}, \"1\": {\"In\": 1}, \"2\": {\"In\": 1}, \"3\": {\"In\": 1}, \"4\": {\"O\": 1}, \"5\": {\"O\": 1}, \"6\": {\"O\": 1}, \"7\": {\"O\": 1}, \"8\": {\"O\": 1}, \"9\": {\"O\": 1}}" n_minim_iter=3 energy=-11285.757505491689 stress="-0.19952206571833772 -0.0010207110776056716 -0.0007047866545448262 -0.0010207110776056716 -0.19818215393348826 -0.000380446080534301 -0.0007047866545448262 -0.000380446080534301 -0.19789386351861635" free_energy=-11285.757505491689 pbc="T T T"
In       9.02721365       4.87291869       3.36468188        0       0.07365268       0.03975795       0.02745231
In       6.50499074       3.51141473       2.42458252        1      -0.07365268      -0.03975795      -0.02745231
In       3.84981218       2.07814088       1.43492708        2       0.07365268       0.03975795       0.02745231
In       1.32758927       0.71663692       0.49482772        3      -0.07365268      -0.03975795      -0.02745231
O        5.18963159       1.90291646      -0.12273554        4       0.00000000       0.02524934      -0.03656749
O        5.91629105       4.53710762       0.73534624        5      -0.02110857       0.03910420       0.00000000
O        7.03944274       1.55797555       2.03655042        6       0.02110857      -0.01385486      -0.03656749
O        3.31536019       4.03158006       1.82295918        7      -0.02110857       0.01385486       0.03656749
O        5.16517134       3.68663914       3.98224514        8      -0.00000000      -0.02524934       0.03656749
O        4.43851187       1.05244799       3.12416336        9       0.02110857      -0.03910420      -0.00000000
10
Lattice="5.202319189711223 -0.33189405198088207 -0.22916817912685264 2.577161106209939 4.531282295997098 -0.22916817912685217 2.577161106209943 1.3911597742625759 4.318531206650561" Properties=species:S:1:pos:R:3:spacegroup_kinds:I:1:forces:R:3 spacegroup="P 1" unit_cell=conventional occupancy="_JSON {\"0\": {\"In\": 1}, \"1\": {\"In\": 1}, \"2\": {\"In\": 1}, \"3\": {\"In\": 1}, \"4\": {\"O\": 1}, \"5\": {\"O\": 1}, \"6\": {\"O\": 1}, \"7\": {\"O\": 1}, \"8\": {\"O\": 1}, \"9\": {\"O\": 1}}" n_minim_iter=4 energy=-11285.758313258251 stress="-0.19819810214429712 -4.951303379381822e-05 -3.418805334463391e-05 -4.951303379381822e-05 -0.19813310520338356 -1.8454820906381245e-05 -3.418805334463391e-05 -1.8454820906381245e-05 -0.19811912070338966" free_energy=-11285.758313258251 pbc="T T T"
In       9.03111824       4.87502640       3.36613722        0       0.02238272       0.01208226       0.00834263
In       6.50384385       3.51079563       2.42415505        1      -0.02238272      -0.01208226      -0.00834263
In       3.85279754       2.07975239       1.43603980        2       0.02238272       0.01208226       0.00834263
In       1.32552315       0.71552162       0.49405762        3      -0.02238272      -0.01208226      -0.00834263
O        5.19031994       1.90363774      -0.12268735        4      -0.00000000       0.03471351      -0.05027402
O        5.91714882       4.53799130       0.73588053        5      -0.02902066       0.05376156      -0.00000000
O        7.04065217       1.55855745       2.03657826        6       0.02902066      -0.01904806      -0.05027402
O        3.31598922       4.03199057       1.82361659        7      -0.02902066       0.01904806       0.05027402
O        5.16632145       3.68691028       3.98288219        8       0.00000000      -0.03471351       0.05027402
O        4.43949257       1.05255672       3.12431431        9       0.02902066      -0.05376156       0.00000000
10
Lattice="5.201896148084317 -0.33238017965133204 -0.22950384345224584 2.5765225688714373 4.531195379960531 -0.22950384345224528 2.5765225688714413 1.3908150897732956 4.318568856877697" Properties=species:S:1:pos:R:3:spacegroup_kinds:I:1:forces:R:3 spacegroup="P 1" unit_cell=conventional occupancy="_JSON {\"0\": {\"In\": 1}, \"1\": {\"In\": 1}, \"2\": {\"In\": 1}, \"3\": {\"In\": 1}, \"4\": {\"O\": 1}, \"5\": {\"O\": 1}, \"6\": {\"O\": 1}, \"7\": {\"O\": 1}, \"8\": {\"O\": 1}, \"9\": {\"O\": 1}}" n_minim_iter=5 energy=-11285.758879394569 stress="-0.19759427574888294 0.00024842441751712126 0.00017153356826056596 0.00024842441751712126 -0.19792038841167306 9.2594366472443e-05 0.00017153356826056596 9.2594366472443e-05 -0.19799055359543985" free_energy=-11285.758879394569 pbc="T T T"
In       9.03190768       4.87545254       3.36643147        0      -0.00772036      -0.00416747      -0.00287758
In       6.50050424       3.50899290       2.42291028        1       0.00772036       0.00416747       0.00287758
In       3.85443704       2.08063739       1.43665088        2      -0.00772036      -0.00416747      -0.00287758
In       1.32303359       0.71417775       0.49312970        3       0.00772036       0.00416747       0.00287758
O        5.18968339       1.90406648      -0.12431882        4      -0.00000000       0.02458011      -0.03559828
O        5.91543956       4.53887112       0.73538645        5      -0.02054910       0.03806776      -0.00000000
O        7.04044979       1.55741808       2.03496560        6       0.02054910      -0.01348764      -0.03559828
O        3.31449148       4.03221221       1.82459556        7      -0.02054910       0.01348764       0.03559828
O        5.16525788       3.68556381       3.98387999        8       0.00000000      -0.02458011       0.03559828
O        4.43950172       1.05075917       3.12417472        9       0.02054910      -0.03806776       0.00000000
10
Lattice="5.202000811524663 -0.33225990036818437 -0.22942079229739343 2.5766805540679876 4.5312168792482055 -0.2294207922973929 2.5766805540679907 1.3909003706856296 4.318559535950477" Properties=species:S:1:pos:R:3:spacegroup_kinds:I:1:forces:R:3 spacegroup="P 1" unit_cell=conventional occupancy="_JSON {\"0\": {\"In\": 1}, \"1\": {\"In\": 1}, \"2\": {\"In\": 1}, \"3\": {\"In\": 1}, \"4\": {\"O\": 1}, \"5\": {\"O\": 1}, \"6\": {\"O\": 1}, \"7\": {\"O\": 1}, \"8\": {\"O\": 1}, \"9\": {\"O\": 1}}" n_minim_iter=6 energy=-11285.759075852096 stress="-0.19764015439778856 0.0002011529420203005 0.000138893280294784 0.0002011529420203005 -0.19790421266272495 7.497503564718195e-05 0.000138893280294784 7.497503564718195e-05 -0.19796102645406105" free_energy=-11285.759075852096 pbc="T T T"
In       9.03309382       4.87609282       3.36687357        0      -0.00928018      -0.00500947      -0.00345897
In       6.49994905       3.50869321       2.42270335        1       0.00928018       0.00500947       0.00345897
In       3.85541286       2.08116414       1.43701460        2      -0.00928018      -0.00500947      -0.00345897
In       1.32226809       0.71376453       0.49284438        3       0.00928018       0.00500947       0.00345897
O        5.18984088       1.90498416      -0.12539783        4      -0.00000000       0.00697371      -0.01009971
O        5.91500659       4.54023894       0.73550869        5      -0.00583005       0.01080033       0.00000000
O        7.04135572       1.55713823       2.03388194        6       0.00583005      -0.00382663      -0.01009971
O        3.31400618       4.03271912       1.82583601        7      -0.00583005       0.00382663       0.01009971
O        5.16552103       3.68487319       3.98511577        8       0.00000000      -0.00697371       0.01009971
O        4.44035532       1.04961841       3.12420925        9       0.00583005      -0.01080033       0.00000000
10
Lattice="5.201908642783313 -0.33236582046272145 -0.22949392863428508 2.576541429339 4.531197946390705 -0.22949392863428456 2.576541429339003 1.390825270713763 4.318567743940039" Properties=species:S:1:pos:R:3:spacegroup_kinds:I:1:forces:R:3 spacegroup="P 1" unit_cell=conventional occupancy="_JSON {\"0\": {\"In\": 1}, \"1\": {\"In\": 1}, \"2\": {\"In\": 1}, \"3\": {\"In\": 1}, \"4\": {\"O\": 1}, \"5\": {\"O\": 1}, \"6\": {\"O\": 1}, \"7\": {\"O\": 1}, \"8\": {\"O\": 1}, \"9\": {\"O\": 1}}" n_minim_iter=7 energy=-11285.759093505212 stress="-0.19785003705753187 3.5767775849428375e-05 2.469714705050938e-05 3.5767775849428375e-05 -0.19789699027289842 1.3331599988946065e-05 2.469714705050938e-05 1.3331599988946065e-05 -0.19790709255191483" free_energy=-11285.759093505212 pbc="T T T"
In       9.03267180       4.87586501       3.36671628        0      -0.00231087      -0.00124741      -0.00086132
In       6.49981544       3.50862108       2.42265355        1       0.00231087       0.00124741       0.00086132
In       3.85517605       2.08103632       1.43692633        2      -0.00231087      -0.00124741      -0.00086132
In       1.32231969       0.71379238       0.49286361        3       0.00231087       0.00124741       0.00086132
O        5.18970219       1.90507689      -0.12575230        4      -0.00000000       0.00073061      -0.00105812
O        5.91463475       4.54042958       0.73540104        5      -0.00061080       0.00113152       0.00000000
O        7.04131106       1.55689035       2.03353157        6       0.00061080      -0.00040090      -0.00105812
O        3.31368043       4.03276704       1.82604831        7      -0.00061080       0.00040090       0.00105812
O        5.16528930       3.68458051       3.98533219        8      -0.00000000      -0.00073061       0.00105812
O        4.44035674       1.04922781       3.12417884        9       0.00061080      -0.00113152       0.00000000
