10
Lattice="6.167241464326786 0.06086290461940198 0.04202498039587203 3.434981811653799 5.122447806086267 0.04202498039587085 3.434981811653792 1.8542141235104765 4.775262046132081" Properties=species:S:1:pos:R:3:spacegroup_kinds:I:1:forces:R:3 spacegroup="P 1" unit_cell=conventional occupancy="_JSON {\"0\": {\"In\": 1}, \"1\": {\"In\": 1}, \"2\": {\"In\": 1}, \"3\": {\"In\": 1}, \"4\": {\"O\": 1}, \"5\": {\"O\": 1}, \"6\": {\"O\": 1}, \"7\": {\"O\": 1}, \"8\": {\"O\": 1}, \"9\": {\"O\": 1}}" n_minim_iter=6 energy=-11287.135771557641 stress="0.05151057311479532 0.00010472389112153719 7.231037510246568e-05 0.00010472389112153719 0.05137309956694921 3.903337077940428e-05 7.231037510246568e-05 3.903337077940428e-05 0.051343521270243296" free_energy=-11287.135771557641 pbc="T T T"
In      11.10294124       5.99340305       4.13836059        0       0.00503954       0.00272036       0.00187837
In       8.45286640       4.56288421       3.15060743        1      -0.00503954      -0.00272036      -0.00187837
In       4.58433870       2.47464064       1.70870458        2       0.00503954       0.00272036       0.00187837
In       1.93426386       1.04412179       0.72095142        3      -0.00503954      -0.00272036      -0.00187837
O        6.34292201       2.44481022       0.28723675        4      -0.00000000      -0.00525179       0.00760593
O        7.51283169       5.36544559       1.25685298        5       0.00439052      -0.00813356       0.00000000
O        8.60799414       2.35750826       2.67486778        6      -0.00439052       0.00288177       0.00760593
O        4.42921096       4.68001658       2.18444424        7       0.00439052      -0.00288177      -0.00760593
O        6.69428309       4.59271463       4.57207526        8      -0.00000000       0.00525179      -0.00760593
O        5.52437340       1.67207926       3.60245903        9      -0.00439052       0.00813356       0.00000000
