10
Lattice="5.016050043020181 -0.3487580236701703 -0.24081251460624525 2.4608527918084335 4.384813990376983 -0.24081251460624 2.460852791808436 1.3283761756672867 4.18569004267113" Properties=species:S:1:pos:R:3:spacegroup_kinds:I:1:forces:R:3 spacegroup="P 1" unit_cell=conventional occupancy="_JSON {\"0\": {\"In\": 1}, \"1\": {\"In\": 1}, \"2\": {\"In\": 1}, \"3\": {\"In\": 1}, \"4\": {\"O\": 1}, \"5\": {\"O\": 1}, \"6\": {\"O\": 1}, \"7\": {\"O\": 1}, \"8\": {\"O\": 1}, \"9\": {\"O\": 1}}" n_minim_iter=1 energy=-11282.102684298789 stress="-0.5632135194120235 0.012959752316177136 0.008948526864475644 0.012959752316177136 -0.5802260954977031 0.004830443306912903 0.008948526864475644 0.004830443306912903 -0.5838864578540779" free_energy=-11282.102684298789 pbc="T T T"
In       8.67118712       4.68073443       3.23198135        0      -0.09943237      -0.05367391      -0.03706108
In       6.23544631       3.36591378       2.32411617        1       0.09943237       0.05367391       0.03706108
In       3.70230931       1.99851836       1.37994884        2      -0.09943237      -0.05367391      -0.03706108
In       1.26656849       0.68369771       0.47208366        3       0.09943237       0.05367391       0.03706108
O        4.99246392       1.81654206      -0.13548525        4      -0.00000000      -0.15248480       0.22083693
O        5.67964338       4.36551567       0.68520374        5       0.12747805      -0.23615654       0.00000000
O        6.76613726       1.47435050       1.95735978        6      -0.12747805       0.08367174       0.22083693
O        3.17161836       3.89008164       1.74670523        7       0.12747805      -0.08367174      -0.22083693
O        4.94529169       3.54789008       3.83955026        8      -0.00000000       0.15248480      -0.22083693
O        4.25811224       0.99891647       3.01886127        9      -0.12747805       0.23615654       0.00000000
10
Lattice="4.983333637675868 -0.3870134324326875 -0.26722733679282745 2.410918873028283 4.378454490907857 -0.26722733679282246 2.410918873028285 1.301421687253327 4.18910202435167" Properties=species:S:1:pos:R:3:spacegroup_kinds:I:1:forces:R:3 spacegroup="P 1" unit_cell=conventional occupancy="_JSON {\"0\": {\"In\": 1}, \"1\": {\"In\": 1}, \"2\": {\"In\": 1}, \"3\": {\"In\": 1}, \"4\": {\"O\": 1}, \"5\": {\"O\": 1}, \"6\": {\"O\": 1}, \"7\": {\"O\": 1}, \"8\": {\"O\": 1}, \"9\": {\"O\": 1}}" n_minim_iter=2 energy=-11282.127822870792 stress="-0.5562189156001877 -0.001166002348238858 -0.0008051082365403031 -0.001166002348238858 -0.554688276496819 -0.00043459999190710694 -0.0008051082365403031 -0.00043459999190710694 -0.5543589499004175" free_energy=-11282.127822870792 pbc="T T T"
In       8.55492098       4.61797360       3.18864588        0       0.21301057       0.11498378       0.07939469
In       6.15283608       3.32132052       2.29332515        1      -0.21301057      -0.11498378      -0.07939469
In       3.65233529       1.97154223       1.36132220        2       0.21301057       0.11498378       0.07939469
In       1.25025039       0.67488915       0.46600147        3      -0.21301057      -0.11498378      -0.07939469
O        4.94295966       1.78299338      -0.16607451        4       0.00000000      -0.33931867       0.49142009
O        5.60227007       4.33069206       0.64643450        5       0.28367210      -0.52551023       0.00000000
O        6.69456812       1.42194838       1.92847650        6      -0.28367210       0.18619156       0.49142009
O        3.11060325       3.87091436       1.72617084        7       0.28367210      -0.18619156      -0.49142009
O        4.86221171       3.50986936       3.82072186        8      -0.00000000       0.33931867      -0.49142009
O        4.20290130       0.96217069       3.00821285        9      -0.28367210       0.52551023       0.00000000
10
Lattice="4.951008219667228 -0.42537758960782623 -0.2937172482301953 2.361108583325528 4.372481531430355 -0.2937172482301904 2.3611085833255303 1.2745339342091482 4.192902075550631" Properties=species:S:1:pos:R:3:spacegroup_kinds:I:1:forces:R:3 spacegroup="P 1" unit_cell=conventional occupancy="_JSON {\"0\": {\"In\": 1}, \"1\": {\"In\": 1}, \"2\": {\"In\": 1}, \"3\": {\"In\": 1}, \"4\": {\"O\": 1}, \"5\": {\"O\": 1}, \"6\": {\"O\": 1}, \"7\": {\"O\": 1}, \"8\": {\"O\": 1}, \"9\": {\"O\": 1}}" n_minim_iter=3 energy=-11282.163490191304 stress="-0.5199432413056998 -0.003010592326930355 -0.00207877169602805 -0.003010592326930355 -0.515991164926233 -0.0011221275820452543 -0.00207877169602805 -0.0011221275820452543 -0.5151408509263172" free_energy=-11282.163490191304 pbc="T T T"
In       8.44488614       4.55857644       3.14763297        0       0.06311742       0.03407098       0.02352554
In       6.06495193       3.27388037       2.26056839        1      -0.06311742      -0.03407098      -0.02352554
In       3.60827344       1.94775750       1.34489918        2       0.06311742       0.03407098       0.02352554
In       1.22833924       0.66306144       0.45783460        3      -0.06311742      -0.03407098      -0.02352554
O        4.89381045       1.73910990      -0.18162841        4      -0.00000000      -0.03020039       0.04373788
O        5.53398013       4.28003855       0.60764964        5       0.02524768      -0.04677200      -0.00000000
O        6.61474936       1.37529975       1.91482263        6      -0.02524768       0.01657161       0.04373788
O        3.05847602       3.84633812       1.69064495        7       0.02524768      -0.01657161      -0.04373788
O        4.77941492       3.48252798       3.78709599        8      -0.00000000       0.03020039      -0.04373788
O        4.13924525       0.94159932       2.99781793        9      -0.02524768       0.04677200      -0.00000000
10
Lattice="4.957705115076788 -0.4173818884701685 -0.2881963289500117 2.371467762150248 4.373692753493733 -0.2881963289500068 2.371467762150249 1.2801258519362229 4.192078628698224" Properties=species:S:1:pos:R:3:spacegroup_kinds:I:1:forces:R:3 spacegroup="P 1" unit_cell=conventional occupancy="_JSON {\"0\": {\"In\": 1}, \"1\": {\"In\": 1}, \"2\": {\"In\": 1}, \"3\": {\"In\": 1}, \"4\": {\"O\": 1}, \"5\": {\"O\": 1}, \"6\": {\"O\": 1}, \"7\": {\"O\": 1}, \"8\": {\"O\": 1}, \"9\": {\"O\": 1}}" n_minim_iter=4 energy=-11282.164243361178 stress="-0.5218172109320034 0.0008733625415738782 0.0006030445632343033 0.0008733625415738782 -0.5229636947796539 0.00032552537521262915 0.0006030445632343033 0.00032552537521262915 -0.523210367961339" free_energy=-11282.164243361178 pbc="T T T"
In       8.46893816       4.57155980       3.15659780        0      -0.00936147      -0.00505335      -0.00348927
In       6.08202279       3.28309528       2.26693115        1       0.00936147       0.00505335       0.00348927
In       3.61861784       1.95334144       1.34875481        2      -0.00936147      -0.00505335      -0.00348927
In       1.23170247       0.66487692       0.45908817        3       0.00936147       0.00505335       0.00348927
O        4.90401271       1.74611405      -0.17530912        4      -0.00000000       0.00727119      -0.01053054
O        5.54994167       4.28726783       0.61572516        5      -0.00607875       0.01126105       0.00000000
O        6.62955151       1.38617376       1.92073019        6       0.00607875      -0.00398986      -0.01053054
O        3.07108911       3.85026296       1.69495578        7      -0.00607875       0.00398986       0.01053054
O        4.79662792       3.49032266       3.79099509        8      -0.00000000      -0.00727119       0.01053054
O        4.15069896       0.94916889       2.99996081        9       0.00607875      -0.01126105       0.00000000
10
Lattice="4.956006254007678 -0.41940782921084424 -0.28959521256298554 2.3688418634089103 4.373384175112906 -0.2895952125629806 2.368841863408913 1.2787083834312727 4.192285701190932" Properties=species:S:1:pos:R:3:spacegroup_kinds:I:1:forces:R:3 spacegroup="P 1" unit_cell=conventional occupancy="_JSON {\"0\": {\"In\": 1}, \"1\": {\"In\": 1}, \"2\": {\"In\": 1}, \"3\": {\"In\": 1}, \"4\": {\"O\": 1}, \"5\": {\"O\": 1}, \"6\": {\"O\": 1}, \"7\": {\"O\": 1}, \"8\": {\"O\": 1}, \"9\": {\"O\": 1}}" n_minim_iter=5 energy=-11282.164319470805 stress="-0.5211389649986574 2.4807641309446762e-05 1.7129326668664336e-05 2.4807641309446762e-05 -0.5211715305789386 9.246465677555776e-06 1.7129326668664336e-05 9.246465677555776e-06 -0.5211785372674486" free_energy=-11282.164319470805 pbc="T T T"
In       8.46295105       4.56832794       3.15436625        0       0.00472004       0.00254789       0.00175928
In       6.07758391       3.28069915       2.26527666        1      -0.00472004      -0.00254789      -0.00175928
In       3.61610606       1.95198557       1.34781861        2       0.00472004       0.00254789       0.00175928
In       1.23073891       0.66435679       0.45872903        3      -0.00472004      -0.00254789      -0.00175928
O        4.90142562       1.74429112      -0.17684167        4      -0.00000000       0.00067755      -0.00098126
O        5.54593459       4.28536086       0.61367860        5      -0.00056643       0.00104933       0.00000000
O        6.62575851       1.38344380       1.91930118        6       0.00056643      -0.00037179      -0.00098126
O        3.06793146       3.84924093       1.69379409        7      -0.00056643       0.00037179       0.00098126
O        4.79226435       3.48839361       3.78993694        8       0.00000000      -0.00067755       0.00098126
O        4.14775538       0.94732387       2.99941667        9       0.00056643      -0.00104933      -0.00000000
