10
Lattice="5.086054967887073 -0.33537431718533744 -0.2315712533459432 2.510454868745095 4.435994524454506 -0.23157125334593895 2.510454868745101 1.3551515347971075 4.230276230236458" Properties=species:S:1:pos:R:3:spacegroup_kinds:I:1:forces:R:3 spacegroup="P 1" unit_cell=conventional occupancy="_JSON {\"0\": {\"In\": 1}, \"1\": {\"In\": 1}, \"2\": {\"In\": 1}, \"3\": {\"In\": 1}, \"4\": {\"O\": 1}, \"5\": {\"O\": 1}, \"6\": {\"O\": 1}, \"7\": {\"O\": 1}, \"8\": {\"O\": 1}, \"9\": {\"O\": 1}}" n_minim_iter=1 energy=-11283.74760227267 stress="-0.4274677012872134 0.004795908838835197 0.003311507659644921 0.004795908838835197 -0.43376340525037577 0.0017875623838574722 0.003311507659644921 0.0017875623838574722 -0.4351179654077799" free_energy=-11283.74760227267 pbc="T T T"
In       8.82097614       4.76159102       3.28781169        0      -0.02279810      -0.01230649      -0.00849746
In       6.33947090       3.42206659       2.36288889        1       0.02279810       0.01230649       0.00849746
In       3.76749379       2.03370515       1.40424483        2      -0.02279810      -0.01230649      -0.00849746
In       1.28598855       0.69418072       0.47932203        3       0.02279810       0.01230649       0.00849746
O        5.06976865       1.85598851      -0.12946369        4       0.00000000      -0.08351324       0.12094851
O        5.77345623       4.43599554       0.71021218        5       0.06981749      -0.12933879      -0.00000000
O        6.87653594       1.51182178       1.98567442        6      -0.06981749       0.04582554       0.12094851
O        3.23042875       3.94394996       1.78145930        7       0.06981749      -0.04582554      -0.12094851
O        5.03719604       3.59978323       3.89659741        8       0.00000000       0.08351324      -0.12094851
O        4.33350846       1.01977620       3.05692154        9      -0.06981749       0.12933879       0.00000000
10
Lattice="5.075386792464152 -0.3477072108706572 -0.24008694313417892 2.4942906472278903 4.4338432048012795 -0.24008694313417467 2.494290647227896 1.346426036533604 4.231281630093934" Properties=species:S:1:pos:R:3:spacegroup_kinds:I:1:forces:R:3 spacegroup="P 1" unit_cell=conventional occupancy="_JSON {\"0\": {\"In\": 1}, \"1\": {\"In\": 1}, \"2\": {\"In\": 1}, \"3\": {\"In\": 1}, \"4\": {\"O\": 1}, \"5\": {\"O\": 1}, \"6\": {\"O\": 1}, \"7\": {\"O\": 1}, \"8\": {\"O\": 1}, \"9\": {\"O\": 1}}" n_minim_iter=2 energy=-11283.750633966545 stress="-0.4300083097656425 -0.0008086181047405878 -0.0005583394394761706 -0.0008086181047405878 -0.42894681748363256 -0.0003013934080841402 -0.0005583394394761706 -0.0003013934080841402 -0.42871843076566307" free_energy=-11283.750633966545 pbc="T T T"
In       8.78333896       4.74127435       3.27378331        0       0.04773448       0.02576723       0.01779191
In       6.31261316       3.40756869       2.35287830        1      -0.04773448      -0.02576723      -0.01779191
In       3.75135492       2.02499334       1.39822944        2       0.04773448       0.02576723       0.01779191
In       1.28062911       0.69128768       0.47732443        3      -0.04773448      -0.02576723      -0.01779191
O        5.05368541       1.84501689      -0.13917231        4       0.00000000      -0.12381541       0.17931634
O        5.74845717       4.42449548       0.69768999        5       0.10351030      -0.19175563       0.00000000
O        6.85320430       1.49494294       1.97646850        6      -0.10351030       0.06794022       0.17931634
O        3.21076377       3.93761909       1.77463924        7       0.10351030      -0.06794022      -0.17931634
O        5.01028266       3.58754514       3.89028005        8       0.00000000       0.12381541      -0.17931634
O        4.31551091       1.00806655       3.05341775        9      -0.10351030       0.19175563       0.00000000
10
Lattice="5.072471081616464 -0.3510877762098936 -0.24242117599731183 2.489864563511975 4.433260646048983 -0.24242117599730764 2.4898645635119805 1.3440368224451784 4.231563895569816" Properties=species:S:1:pos:R:3:spacegroup_kinds:I:1:forces:R:3 spacegroup="P 1" unit_cell=conventional occupancy="_JSON {\"0\": {\"In\": 1}, \"1\": {\"In\": 1}, \"2\": {\"In\": 1}, \"3\": {\"In\": 1}, \"4\": {\"O\": 1}, \"5\": {\"O\": 1}, \"6\": {\"O\": 1}, \"7\": {\"O\": 1}, \"8\": {\"O\": 1}, \"9\": {\"O\": 1}}" n_minim_iter=3 energy=-11283.753914779636 stress="-0.4272874734203724 -0.000297792232096973 -0.00020562135021588918 -0.000297792232096973 -0.42689655445546093 -0.00011099506016848317 -0.00020562135021588918 -0.00011099506016848317 -0.4268124457879839" free_energy=-11283.753914779636 pbc="T T T"
In       8.77365646       4.73604771       3.27017439        0      -0.00978542      -0.00528220      -0.00364728
In       6.30464384       3.40326683       2.34990792        1       0.00978542       0.00528220       0.00364728
In       3.74755636       2.02294286       1.39681362        2      -0.00978542      -0.00528220      -0.00364728
In       1.27854373       0.69016198       0.47654715        3       0.00978542       0.00528220       0.00364728
O        5.04928559       1.84004058      -0.13897692        4       0.00000000      -0.05158079       0.07470216
O        5.74326380       4.41829618       0.69425921        5       0.04312180      -0.07988430      -0.00000000
O        6.84517194       1.49140167       1.97680503        6      -0.04312180       0.02830351       0.07470216
O        3.20702825       3.93480802       1.76991651        7       0.04312180      -0.02830351      -0.07470216
O        5.00291461       3.58616911       3.88569846        8       0.00000000       0.05158079      -0.07470216
O        4.30893640       1.00791351       3.05246233        9      -0.04312180       0.07988430      -0.00000000
10
Lattice="5.070604541217826 -0.3532541443310581 -0.24391702274323154 2.487029257469234 4.432888942484121 -0.24391702274322738 2.48702925746924 1.3425063152118972 4.231746292489428" Properties=species:S:1:pos:R:3:spacegroup_kinds:I:1:forces:R:3 spacegroup="P 1" unit_cell=conventional occupancy="_JSON {\"0\": {\"In\": 1}, \"1\": {\"In\": 1}, \"2\": {\"In\": 1}, \"3\": {\"In\": 1}, \"4\": {\"O\": 1}, \"5\": {\"O\": 1}, \"6\": {\"O\": 1}, \"7\": {\"O\": 1}, \"8\": {\"O\": 1}, \"9\": {\"O\": 1}}" n_minim_iter=4 energy=-11283.754706578948 stress="-0.425397878417355 -2.8813216167398604e-05 -1.9895121436039676e-05 -2.8813216167398604e-05 -0.42536005461998694 -1.0739450501058292e-05 -1.9895121436039676e-05 -1.0739450501058292e-05 -0.42535191659539606" free_energy=-11283.754706578948 pbc="T T T"
In       8.76682890       4.73236217       3.26762958        0      -0.03735436      -0.02016400      -0.01392296
In       6.30016568       3.40084950       2.34823879        1       0.03735436       0.02016400       0.01392296
In       3.74449737       2.02129161       1.39567345        2      -0.03735436      -0.02016400      -0.01392296
In       1.27783415       0.68977895       0.47628267        3       0.03735436       0.02016400       0.01392296
O        5.04646803       1.83665312      -0.13856307        4       0.00000000      -0.00402022       0.00582231
O        5.74010463       4.41401660       0.69206104        5       0.00336092      -0.00622620      -0.00000000
O        6.83986069       1.48924236       1.97731007        6      -0.00336092       0.00220598       0.00582231
O        3.20480236       3.93289875       1.76660217        7       0.00336092      -0.00220598      -0.00582231
O        4.99819502       3.58548799       3.88247532        8       0.00000000       0.00402022      -0.00582231
O        4.30455841       1.00812452       3.05185121        9      -0.00336092       0.00622620       0.00000000
10
Lattice="5.0705607371613635 -0.3533050058451862 -0.24395214190403236 2.4869627007471324 4.432880230898445 -0.24395214190402836 2.4869627007471378 1.3424703876813007 4.231750588967707" Properties=species:S:1:pos:R:3:spacegroup_kinds:I:1:forces:R:3 spacegroup="P 1" unit_cell=conventional occupancy="_JSON {\"0\": {\"In\": 1}, \"1\": {\"In\": 1}, \"2\": {\"In\": 1}, \"3\": {\"In\": 1}, \"4\": {\"O\": 1}, \"5\": {\"O\": 1}, \"6\": {\"O\": 1}, \"7\": {\"O\": 1}, \"8\": {\"O\": 1}, \"9\": {\"O\": 1}}" n_minim_iter=5 energy=-11283.75493549709 stress="-0.42445725897757125 4.29220160426252e-05 2.9637048607522322e-05 4.29220160426252e-05 -0.42451360373563296 1.5998173851905763e-05 2.9637048607522322e-05 1.5998173851905763e-05 -0.4245257266626555" free_energy=-11283.75493549709 pbc="T T T"
In       8.76484073       4.73128895       3.26688853        0      -0.02053974      -0.01108742      -0.00765570
In       6.30188846       3.40177947       2.34888092        1       0.02053974       0.01108742       0.00765570
In       3.74259766       2.02026614       1.39496538        2      -0.02053974      -0.01108742      -0.00765570
In       1.27964539       0.69075666       0.47695777        3       0.02053974       0.01108742       0.00765570
O        5.04640190       1.83571548      -0.13731058        4       0.00000000       0.01306762      -0.01892526
O        5.74074787       4.41258715       0.69200943        5      -0.01092460       0.02023812      -0.00000000
O        6.83901862       1.48966254       1.97856471        6       0.01092460      -0.00717049      -0.01892526
O        3.20546750       3.93238307       1.76528159        7      -0.01092460       0.00717049       0.01892526
O        4.99808423       3.58633013       3.88115688        8      -0.00000000      -0.01306762       0.01892526
O        4.30373825       1.00945846       3.05183687        9       0.01092460      -0.02023812      -0.00000000
10
Lattice="5.07117588605858 -0.35259083632281657 -0.24345901788432636 2.48789729566672 4.433002618024849 -0.24345901788432248 2.487897295666726 1.3429748849958951 4.231690319845546" Properties=species:S:1:pos:R:3:spacegroup_kinds:I:1:forces:R:3 spacegroup="P 1" unit_cell=conventional occupancy="_JSON {\"0\": {\"In\": 1}, \"1\": {\"In\": 1}, \"2\": {\"In\": 1}, \"3\": {\"In\": 1}, \"4\": {\"O\": 1}, \"5\": {\"O\": 1}, \"6\": {\"O\": 1}, \"7\": {\"O\": 1}, \"8\": {\"O\": 1}, \"9\": {\"O\": 1}}" n_minim_iter=6 energy=-11283.755003843648 stress="-0.4247117982726061 1.1902239508222382e-05 8.218329017565906e-06 1.1902239508222382e-05 -0.42472742262950963 4.436280607913459e-06 8.218329017565906e-06 4.436280607913459e-06 -0.4247307843039927" free_energy=-11283.755003843648 pbc="T T T"
In       8.76648252       4.73217519       3.26750047        0      -0.00679334      -0.00366707      -0.00253206
In       6.30397318       3.40290481       2.34965795        1       0.00679334       0.00366707       0.00253206
In       3.74299728       2.02048186       1.39511433        2      -0.00679334      -0.00366707      -0.00253206
In       1.28048794       0.69121147       0.47727181        3       0.00679334       0.00366707       0.00253206
O        5.04733056       1.83650566      -0.13697421        4       0.00000000       0.00437841      -0.00634106
O        5.74206204       4.41349221       0.69273405        5      -0.00366037       0.00678094       0.00000000
O        6.84049637       1.49055345       1.97887095        6       0.00366037      -0.00240253      -0.00634106
O        3.20647410       3.93283321       1.76590133        7      -0.00366037       0.00240253       0.00634106
O        4.99963991       3.58688100       3.88174649        8      -0.00000000      -0.00437841       0.00634106
O        4.30490843       1.00989446       3.05203823        9       0.00366037      -0.00678094      -0.00000000
