10
Lattice="5.6614418974213585 -0.008796700824039917 -0.006073998308009853 3.09920276223962 4.7378205937276325 -0.006073998308010741 3.0992027622396225 1.6729595230667837 4.432627584851364" Properties=species:S:1:pos:R:3:spacegroup_kinds:I:1:forces:R:3 spacegroup="P 1" unit_cell=conventional occupancy="_JSON {\"0\": {\"In\": 1}, \"1\": {\"In\": 1}, \"2\": {\"In\": 1}, \"3\": {\"In\": 1}, \"4\": {\"O\": 1}, \"5\": {\"O\": 1}, \"6\": {\"O\": 1}, \"7\": {\"O\": 1}, \"8\": {\"O\": 1}, \"9\": {\"O\": 1}}" n_minim_iter=1 energy=-11287.002849093653 stress="-0.12169099291768752 0.0028220057081765194 0.0019485552868669636 0.0028220057081765194 -0.1253955071420917 0.0010518363499077987 0.0019485552868669636 0.0010518363499077987 -0.12619255659204265" free_energy=-11287.002849093653 pbc="T T T"
In      10.18435178       5.49754554       3.79597794        0       0.08900787       0.04804673       0.03317559
In       7.60541936       4.10542960       2.83474145        1      -0.08900787      -0.04804673      -0.03317559
In       4.25442807       2.29655383       1.58573815        2       0.08900787       0.04804673       0.03317559
In       1.67549565       0.90443789       0.62450165        3      -0.08900787      -0.04804673      -0.03317559
O        5.79568281       2.23597633       0.17537494        4      -0.00000000       0.06713390      -0.09722703
O        6.81034230       4.95600212       1.09904590        5      -0.05612427       0.10397174       0.00000000
O        7.88022608       2.08146178       2.39168874        6       0.05612427      -0.03683784      -0.09722703
O        3.97962136       4.32052164       2.02879086        7      -0.05612427       0.03683784       0.09722703
O        6.06416462       4.16600710       4.24510465        8      -0.00000000      -0.06713390       0.09722703
O        5.04950513       1.44598131       3.32143369        9       0.05612427      -0.10397174      -0.00000000
10
Lattice="5.635305980836159 -0.03593347808579754 -0.024811561682017123 3.062174932765258 4.730861379668531 -0.024811561682018018 3.0621749327652616 1.6529717827703547 4.4327586549007245" Properties=species:S:1:pos:R:3:spacegroup_kinds:I:1:forces:R:3 spacegroup="P 1" unit_cell=conventional occupancy="_JSON {\"0\": {\"In\": 1}, \"1\": {\"In\": 1}, \"2\": {\"In\": 1}, \"3\": {\"In\": 1}, \"4\": {\"O\": 1}, \"5\": {\"O\": 1}, \"6\": {\"O\": 1}, \"7\": {\"O\": 1}, \"8\": {\"O\": 1}, \"9\": {\"O\": 1}}" n_minim_iter=2 energy=-11287.006499464413 stress="-0.12198777125469498 -0.0015443286537505881 -0.0010663372339726157 -0.0015443286537505881 -0.11996049418283272 -0.0005756122365260714 -0.0010663372339726157 -0.0005756122365260714 -0.1195243128181965" free_energy=-11287.006499464413 pbc="T T T"
In      10.09957553       5.45178305       3.76437958        0       0.21197945       0.11442718       0.07901036
In       7.53990824       4.07006649       2.81032372        1      -0.21197945      -0.11442718      -0.07901036
In       4.21974761       2.27783321       1.57281182        2       0.21197945       0.11442718       0.07901036
In       1.66008032       0.89611665       0.61875595        3      -0.21197945      -0.11442718      -0.07901036
O        5.75756696       2.21257023       0.15133591        4      -0.00000000       0.02665804      -0.03860765
O        6.75063335       4.93113747       1.07097232        5      -0.02228625       0.04128589      -0.00000000
O        7.82667550       2.04235753       2.36771524        6       0.02228625      -0.01462785      -0.03860765
O        3.93298036       4.30554217       2.01542030        7      -0.02228625       0.01462785       0.03860765
O        6.00208890       4.13532947       4.23179963        8      -0.00000000      -0.02665804       0.03860765
O        5.00902250       1.41676223       3.31216321        9       0.02228625      -0.04128589      -0.00000000
10
Lattice="5.6415417000249075 -0.029439668286942503 -0.020327677266741694 3.0710254654758034 4.732511176699733 -0.020327677266742582 3.0710254654758087 1.6577493285194502 4.432712760358404" Properties=species:S:1:pos:R:3:spacegroup_kinds:I:1:forces:R:3 spacegroup="P 1" unit_cell=conventional occupancy="_JSON {\"0\": {\"In\": 1}, \"1\": {\"In\": 1}, \"2\": {\"In\": 1}, \"3\": {\"In\": 1}, \"4\": {\"O\": 1}, \"5\": {\"O\": 1}, \"6\": {\"O\": 1}, \"7\": {\"O\": 1}, \"8\": {\"O\": 1}, \"9\": {\"O\": 1}}" n_minim_iter=3 energy=-11287.015975655875 stress="-0.1144660553400487 0.002699707732159274 0.0018641102545238252 0.002699707732159274 -0.11801002609476736 0.0010062526512954158 0.0018641102545238252 0.0010062526512954158 -0.11877253361334483" free_energy=-11287.015975655875 pbc="T T T"
In      10.13377661       5.47024490       3.77712723        0      -0.01206713      -0.00651387      -0.00449774
In       7.54161234       4.07098637       2.81095888        1       0.01206713       0.00651387       0.00449774
In       4.24198030       2.28983448       1.58109853        2      -0.01206713      -0.00651387      -0.00449774
In       1.64981603       0.89057595       0.61493018        3       0.01206712       0.00651387       0.00449774
O        5.76666901       2.22161721       0.15208660        4       0.00000000       0.04472134      -0.06476792
O        6.76201231       4.94241946       1.07768668        5      -0.03738726       0.06926091      -0.00000000
O        7.84235118       2.04981339       2.36844298        6       0.03738726      -0.02453957      -0.06476792
O        3.94124146       4.31100746       2.02361443        7      -0.03738726       0.02453957       0.06476792
O        6.01692363       4.13920363       4.23997081        8      -0.00000000      -0.04472134       0.06476792
O        5.02158033       1.41840139       3.31437073        9       0.03738726      -0.06926091       0.00000000
10
Lattice="5.607002942568398 -0.06556339506546432 -0.04527060299771098 3.021873679047195 4.723458481306357 -0.045270602997711934 3.0218736790472014 1.6312170376402113 4.433084753107369" Properties=species:S:1:pos:R:3:spacegroup_kinds:I:1:forces:R:3 spacegroup="P 1" unit_cell=conventional occupancy="_JSON {\"0\": {\"In\": 1}, \"1\": {\"In\": 1}, \"2\": {\"In\": 1}, \"3\": {\"In\": 1}, \"4\": {\"O\": 1}, \"5\": {\"O\": 1}, \"6\": {\"O\": 1}, \"7\": {\"O\": 1}, \"8\": {\"O\": 1}, \"9\": {\"O\": 1}}" n_minim_iter=4 energy=-11287.021885252241 stress="-0.10885937839011367 1.9091844906613383e-05 1.3182649653071447e-05 1.9091844906613383e-05 -0.10888444070827331 7.116036522574755e-06 1.3182649653071447e-05 7.116036522574755e-06 -0.1088898330240158" free_energy=-11287.021885252241 pbc="T T T"
In      10.03237035       5.41550547       3.73933043        0       0.01075364       0.00580485       0.00400816
In       7.44375511       4.01816272       2.77448490        1      -0.01075364      -0.00580485      -0.00400816
In       4.20699520       2.27094941       1.56805866        2       0.01075364       0.00580485       0.00400816
In       1.61837996       0.87360666       0.60321312        3      -0.01075364      -0.00580485      -0.00400816
O        5.71618905       2.19353854       0.11578044        4      -0.00000000      -0.01099619       0.01592529
O        6.68034335       4.91415503       1.04036529        5       0.00919287      -0.01703004      -0.00000000
O        7.77390843       1.99621761       2.33232281        6      -0.00919287       0.00603385       0.01592529
O        3.87684188       4.29289452       2.01022074        7       0.00919287      -0.00603385      -0.01592529
O        5.93456126       4.09557359       4.22676312        8       0.00000000       0.01099619      -0.01592529
O        4.97040696       1.37495710       3.30217827        9      -0.00919287       0.01703004      -0.00000000
10
Lattice="5.605414680036196 -0.06723377970171687 -0.04642398011684526 3.019605714815129 4.72304726245187 -0.0464239801168462 3.0196057148151345 1.6299927833235077 4.433108858983421" Properties=species:S:1:pos:R:3:spacegroup_kinds:I:1:forces:R:3 spacegroup="P 1" unit_cell=conventional occupancy="_JSON {\"0\": {\"In\": 1}, \"1\": {\"In\": 1}, \"2\": {\"In\": 1}, \"3\": {\"In\": 1}, \"4\": {\"O\": 1}, \"5\": {\"O\": 1}, \"6\": {\"O\": 1}, \"7\": {\"O\": 1}, \"8\": {\"O\": 1}, \"9\": {\"O\": 1}}" n_minim_iter=5 energy=-11287.02194754777 stress="-0.1085595392023428 7.558611738706905e-05 5.219115089458248e-05 7.558611738706905e-05 -0.10865876290126203 2.8172949974948478e-05 5.219115089458248e-05 2.8172949974948478e-05 -0.10868011150334203" free_energy=-11287.02194754777 pbc="T T T"
In      10.02790602       5.41309561       3.73766645        0      -0.00232908      -0.00125725      -0.00086811
In       7.43903316       4.01561380       2.77272490        1       0.00232908       0.00125725       0.00086811
In       4.20559296       2.27019248       1.56753601        2      -0.00232908      -0.00125725      -0.00086811
In       1.61672010       0.87271066       0.60259445        3       0.00232908       0.00125725       0.00086811
O        5.71386387       2.19169782       0.11489242        4      -0.00000000       0.00024767      -0.00035870
O        6.67703389       4.91201044       1.03864125        5      -0.00020706       0.00038358       0.00000000
O        7.77029957       1.99404209       2.33144685        6       0.00020706      -0.00013590      -0.00035870
O        3.87432655       4.29176419       2.00881405        7      -0.00020706       0.00013590       0.00035870
O        5.93076225       4.09410846       4.22536848        8       0.00000000      -0.00024767       0.00035870
O        4.96759223       1.37379584       3.30161966        9       0.00020706      -0.00038358      -0.00000000
