10
Lattice="5.07117588605858 -0.35259083632281657 -0.24345901788432636 2.48789729566672 4.433002618024849 -0.24345901788432248 2.487897295666726 1.3429748849958951 4.231690319845546" Properties=species:S:1:pos:R:3:spacegroup_kinds:I:1:forces:R:3 spacegroup="P 1" unit_cell=conventional occupancy="_JSON {\"0\": {\"In\": 1}, \"1\": {\"In\": 1}, \"2\": {\"In\": 1}, \"3\": {\"In\": 1}, \"4\": {\"O\": 1}, \"5\": {\"O\": 1}, \"6\": {\"O\": 1}, \"7\": {\"O\": 1}, \"8\": {\"O\": 1}, \"9\": {\"O\": 1}}" n_minim_iter=6 energy=-11283.755003843648 stress="-0.4247117982726061 1.1902239508222382e-05 8.218329017565906e-06 1.1902239508222382e-05 -0.42472742262950963 4.436280607913459e-06 8.218329017565906e-06 4.436280607913459e-06 -0.4247307843039927" free_energy=-11283.755003843648 pbc="T T T"
In       8.76648252       4.73217519       3.26750047        0      -0.00679334      -0.00366707      -0.00253206
In       6.30397318       3.40290481       2.34965795        1       0.00679334       0.00366707       0.00253206
In       3.74299728       2.02048186       1.39511433        2      -0.00679334      -0.00366707      -0.00253206
In       1.28048794       0.69121147       0.47727181        3       0.00679334       0.00366707       0.00253206
O        5.04733056       1.83650566      -0.13697421        4       0.00000000       0.00437841      -0.00634106
O        5.74206204       4.41349221       0.69273405        5      -0.00366037       0.00678094       0.00000000
O        6.84049637       1.49055345       1.97887095        6       0.00366037      -0.00240253      -0.00634106
O        3.20647410       3.93283321       1.76590133        7      -0.00366037       0.00240253       0.00634106
O        4.99963991       3.58688100       3.88174649        8      -0.00000000      -0.00437841       0.00634106
O        4.30490843       1.00989446       3.05203823        9       0.00366037      -0.00678094      -0.00000000
