10
Lattice="5.963270554430784 -0.005828285190835993 -0.004024349025365563 3.2673043503054067 4.988522021272919 -0.004024349025366895 3.2673043503054027 1.7637012957651486 4.666339667386667" Properties=species:S:1:pos:R:3:spacegroup_kinds:I:1:forces:R:3 spacegroup="P 1" unit_cell=conventional occupancy="_JSON {\"0\": {\"In\": 1}, \"1\": {\"In\": 1}, \"2\": {\"In\": 1}, \"3\": {\"In\": 1}, \"4\": {\"O\": 1}, \"5\": {\"O\": 1}, \"6\": {\"O\": 1}, \"7\": {\"O\": 1}, \"8\": {\"O\": 1}, \"9\": {\"O\": 1}}" n_minim_iter=1 energy=-11287.574687705484 stress="0.03383872389361902 0.001554619033927367 0.001073442597570698 0.001554619033927367 0.03179793839279625 0.0005794477337353283 0.001073442597570698 0.0005794477337353283 0.03135885060480517" free_energy=-11287.574687705484 pbc="T T T"
In      10.71080487       5.78172659       3.99220097        0      -0.06356615      -0.03431321      -0.02369279
In       8.03601402       4.33786597       2.99523549        1       0.06356615       0.03431321       0.02369279
In       4.46186525       2.40852908       1.66305548        2      -0.06356615      -0.03431321      -0.02369279
In       1.78707439       0.96466845       0.66609001        3       0.06356615       0.03431321       0.02369279
O        6.10610510       2.33666324       0.21688077        4      -0.00000000      -0.03313811       0.04799245
O        7.19386389       5.18922788       1.16054840        5       0.02770363      -0.05132172       0.00000000
O        8.28565065       2.20723164       2.55005060        6      -0.02770363       0.01818361       0.04799245
O        4.21222862       4.53916341       2.10824037        7       0.02770363      -0.01818361      -0.04799245
O        6.39177417       4.40973181       4.44141021        8       0.00000000       0.03313811      -0.04799245
O        5.30401537       1.55716717       3.49774258        9      -0.02770363       0.05132172       0.00000000
10
Lattice="5.9516267655722475 -0.01787950392529862 -0.012345546218122897 3.2508402700462313 4.9854005227245635 -0.01234554621812424 3.250840270046226 1.7548139327975765 4.666368914450864" Properties=species:S:1:pos:R:3:spacegroup_kinds:I:1:forces:R:3 spacegroup="P 1" unit_cell=conventional occupancy="_JSON {\"0\": {\"In\": 1}, \"1\": {\"In\": 1}, \"2\": {\"In\": 1}, \"3\": {\"In\": 1}, \"4\": {\"O\": 1}, \"5\": {\"O\": 1}, \"6\": {\"O\": 1}, \"7\": {\"O\": 1}, \"8\": {\"O\": 1}, \"9\": {\"O\": 1}}" n_minim_iter=2 energy=-11287.575904278006 stress="0.03120025708627425 -0.00022084230732835936 -0.0001524885090387964 -0.00022084230732835936 0.0314901620515213 -8.231378370539864e-05 -0.0001524885090387964 -8.231378370539864e-05 0.031552536922953324" free_energy=-11287.575904278006 pbc="T T T"
In      10.67201339       5.76078683       3.97774235        0      -0.03378889      -0.01823935      -0.01259401
In       8.00794758       4.32271561       2.98477439        1       0.03378889       0.01823935       0.01259401
In       4.44535974       2.39961935       1.65690344        2      -0.03378889      -0.01823935      -0.01259401
In       1.78129392       0.96154814       0.66393548        3       0.03378889       0.01823935       0.01259401
O        6.08914021       2.32547937       0.20732607        4       0.00000000      -0.03036658       0.04397857
O        7.16795072       5.17695338       1.14807391        5       0.02538662      -0.04702939       0.00000000
O        8.26116998       2.19027720       2.54051053        6      -0.02538662       0.01666281       0.04397857
O        4.19213733       4.53205776       2.10116730        7       0.02538662      -0.01666281      -0.04397857
O        6.36416710       4.39685560       4.43435175        8      -0.00000000       0.03036658      -0.04397857
O        5.28535660       1.54538158       3.49360392        9      -0.02538662       0.04702939      -0.00000000
10
Lattice="5.9547114751498444 -0.014683013644337113 -0.010138414596111159 3.2552051993907254 4.986225371263367 -0.010138414596112505 3.2552051993907205 1.7571701355615115 4.666358254053349" Properties=species:S:1:pos:R:3:spacegroup_kinds:I:1:forces:R:3 spacegroup="P 1" unit_cell=conventional occupancy="_JSON {\"0\": {\"In\": 1}, \"1\": {\"In\": 1}, \"2\": {\"In\": 1}, \"3\": {\"In\": 1}, \"4\": {\"O\": 1}, \"5\": {\"O\": 1}, \"6\": {\"O\": 1}, \"7\": {\"O\": 1}, \"8\": {\"O\": 1}, \"9\": {\"O\": 1}}" n_minim_iter=3 energy=-11287.577222152411 stress="0.030952199531850057 -8.444983363086496e-05 -5.831142311776224e-05 -8.444983363086496e-05 0.031063058842474976 -3.147669218190593e-05 -5.831142311776224e-05 -3.147669218190593e-05 0.031086910917440286" free_energy=-11287.577222152411 pbc="T T T"
In      10.67925439       5.76469554       3.98044126        0      -0.02740648      -0.01479411      -0.01021512
In       8.01842843       4.32837321       2.98868088        1       0.02740648       0.01479411       0.01021512
In       4.44669345       2.40033929       1.65740055        2      -0.02740648      -0.01479411      -0.01021512
In       1.78586750       0.96401697       0.66564017        3       0.02740648       0.01479411       0.01021512
O        6.09363621       2.32593265       0.21349782        4       0.00000000      -0.00336145       0.00486823
O        7.17691929       5.17631595       1.15138194        5       0.00281019      -0.00520595       0.00000000
O        8.26555833       2.19615108       2.54667695        6      -0.00281019       0.00184450       0.00486823
O        4.19956355       4.53256143       2.09940448        7       0.00281019      -0.00184450      -0.00486823
O        6.37148567       4.40277986       4.43258361        8      -0.00000000       0.00336145      -0.00486823
O        5.28820260       1.55239656       3.49469949        9      -0.00281019       0.00520595       0.00000000
10
Lattice="5.956500064407068 -0.012830883258942626 -0.00885954459108073 3.2577350276255057 4.9867043363957775 -0.008859544591082066 3.2577350276255017 1.7585357449010055 4.66635303680126" Properties=species:S:1:pos:R:3:spacegroup_kinds:I:1:forces:R:3 spacegroup="P 1" unit_cell=conventional occupancy="_JSON {\"0\": {\"In\": 1}, \"1\": {\"In\": 1}, \"2\": {\"In\": 1}, \"3\": {\"In\": 1}, \"4\": {\"O\": 1}, \"5\": {\"O\": 1}, \"6\": {\"O\": 1}, \"7\": {\"O\": 1}, \"8\": {\"O\": 1}, \"9\": {\"O\": 1}}" n_minim_iter=4 energy=-11287.57743785865 stress="0.030826274373239256 -2.809842848048543e-05 -1.9401569823144276e-05 -2.809842848048543e-05 0.030863159850051794 -1.0473028999386737e-05 -1.9401569823144276e-05 -1.0473028999386737e-05 0.030871095991937565" free_energy=-11287.57743785865 pbc="T T T"
In      10.68333893       5.76690039       3.98196368        0      -0.02188591      -0.01181409      -0.00815746
In       8.02461626       4.33171342       2.99098725        1       0.02188591       0.01181409       0.00815746
In       4.44735387       2.40069579       1.65764670        2      -0.02188591      -0.01181409      -0.00815746
In       1.78863120       0.96550882       0.66667027        3       0.02188591       0.01181409       0.00815746
O        6.09624257       2.32652684       0.21659446        4      -0.00000000       0.00802240      -0.01161848
O        7.18184062       5.17646040       1.15329894        5      -0.00670677       0.01242447       0.00000000
O        8.26837954       2.19937334       2.54977098        6       0.00670677      -0.00440207      -0.01161848
O        4.20359059       4.53303587       2.09886297        7      -0.00670677       0.00440207       0.01161848
O        6.37572756       4.40588237       4.43203949        8       0.00000000      -0.00802240       0.01161848
O        5.29012951       1.55594880       3.49533501        9       0.00670677      -0.01242447      -0.00000000
10
Lattice="5.959351221431964 -0.00988036133102091 -0.0068222506605025305 3.261766170812748 4.987468902044821 -0.006822250660503857 3.2617661708127437 1.760711768834034 4.66634617865602" Properties=species:S:1:pos:R:3:spacegroup_kinds:I:1:forces:R:3 spacegroup="P 1" unit_cell=conventional occupancy="_JSON {\"0\": {\"In\": 1}, \"1\": {\"In\": 1}, \"2\": {\"In\": 1}, \"3\": {\"In\": 1}, \"4\": {\"O\": 1}, \"5\": {\"O\": 1}, \"6\": {\"O\": 1}, \"7\": {\"O\": 1}, \"8\": {\"O\": 1}, \"9\": {\"O\": 1}}" n_minim_iter=5 energy=-11287.577581912074 stress="0.030737429464859984 2.7924478415099212e-05 1.928145979849744e-05 2.7924478415099212e-05 0.030700772335452365 1.040819310461636e-05 1.928145979849744e-05 1.040819310461636e-05 0.03069288532402767" free_energy=-11287.577581912074 pbc="T T T"
In      10.68974265       5.77035714       3.98435052        0      -0.00841416      -0.00454199      -0.00313618
In       8.03458270       4.33709334       2.99470200        1       0.00841416       0.00454199       0.00313618
In       4.44830087       2.40120698       1.65799968        2      -0.00841416      -0.00454199      -0.00313618
In       1.79314092       0.96794318       0.66835116        3       0.00841416       0.00454199       0.00313618
O        6.10039651       2.32860068       0.21989611        4       0.00000000       0.01207227      -0.01748373
O        7.18874097       5.17843683       1.15635317        5      -0.01009248       0.01869659      -0.00000000
O        8.27381822       2.20388909       2.55306920        6       0.01009248      -0.00662432      -0.01748373
O        4.20906536       4.53441123       2.09963248        7      -0.01009248       0.00662432       0.01748373
O        6.38248707       4.40969964       4.43280557        8       0.00000000      -0.01207227       0.01748373
O        5.29414261       1.55986349       3.49634851        9       0.01009248      -0.01869659      -0.00000000
10
Lattice="5.9599868332434855 -0.009222919806216291 -0.006368296525974892 3.262664569291658 4.987639524161134 -0.006368296525976216 3.262664569291654 1.7611967271946525 4.666344893628615" Properties=species:S:1:pos:R:3:spacegroup_kinds:I:1:forces:R:3 spacegroup="P 1" unit_cell=conventional occupancy="_JSON {\"0\": {\"In\": 1}, \"1\": {\"In\": 1}, \"2\": {\"In\": 1}, \"3\": {\"In\": 1}, \"4\": {\"O\": 1}, \"5\": {\"O\": 1}, \"6\": {\"O\": 1}, \"7\": {\"O\": 1}, \"8\": {\"O\": 1}, \"9\": {\"O\": 1}}" n_minim_iter=6 energy=-11287.57770203385 stress="0.0307995258666361 7.56641580016772e-06 5.2245029340904305e-06 7.56641580016772e-06 0.030789593252925865 2.8202033790507764e-06 5.2245029340904305e-06 2.8202033790507764e-06 0.030787456187638968" free_energy=-11287.57770203385 pbc="T T T"
In      10.69098749       5.77102911       3.98481450        0      -0.00014071      -0.00007596      -0.00005245
In       8.03698648       4.33839090       2.99559795        1       0.00014071       0.00007596       0.00005245
In       4.44832951       2.40122244       1.65801035        2      -0.00014071      -0.00007596      -0.00005245
In       1.79432849       0.96858424       0.66879380        3       0.00014071       0.00007596       0.00005245
O        6.10132241       2.33009467       0.21913754        4      -0.00000000      -0.00002095       0.00003034
O        7.18941633       5.18047541       1.15703378        5       0.00001751      -0.00003244       0.00000000
O        8.27589307       2.20432926       2.55230998        6      -0.00001751       0.00001149       0.00003034
O        4.20942291       4.53528409       2.10129832        7       0.00001751      -0.00001149      -0.00003034
O        6.38399357       4.40951868       4.43447077        8       0.00000000       0.00002095      -0.00003034
O        5.29589965       1.55913793       3.49657452        9      -0.00001751       0.00003244       0.00000000
