10
Lattice="6.279819599611639 0.08456896683001855 0.058393683235371474 3.5165742800434066 5.203555654238207 0.05839368323537768 3.5165742800434034 1.8982579978468104 4.845308849042218" Properties=species:S:1:pos:R:3:spacegroup_kinds:I:1:forces:R:3 spacegroup="P 1" unit_cell=conventional occupancy="_JSON {\"0\": {\"In\": 1}, \"1\": {\"In\": 1}, \"2\": {\"In\": 1}, \"3\": {\"In\": 1}, \"4\": {\"O\": 1}, \"5\": {\"O\": 1}, \"6\": {\"O\": 1}, \"7\": {\"O\": 1}, \"8\": {\"O\": 1}, \"9\": {\"O\": 1}}" n_minim_iter=4 energy=-11286.756793836355 stress="0.06356046067744767 -1.391449060361504e-05 -9.607761538085941e-06 -1.391449060361504e-05 0.06357872656149088 -5.186299653308286e-06 -9.607761538085941e-06 -5.186299653308286e-06 0.06358265658103392" free_energy=-11286.756793836355 pbc="T T T"
In      11.32352587       6.11247534       4.22057833        0      -0.00770386      -0.00415857      -0.00287143
In       8.64592638       4.66709860       3.22256600        1       0.00770386       0.00415857       0.00287143
In       4.66704179       2.51928403       1.73953022        2      -0.00770386      -0.00415857      -0.00287143
In       1.98944230       1.07390729       0.74151789        3       0.00770386       0.00415857       0.00287143
O        6.46815184       2.50927833       0.29881311        4       0.00000000      -0.00354723       0.00513729
O        7.66598276       5.47891828       1.29891774        5       0.00296550      -0.00549367      -0.00000000
O        8.78689521       2.42014701       2.72146753        6      -0.00296550       0.00194644       0.00513729
O        4.52607296       4.76623562       2.24062869        7       0.00296550      -0.00194644      -0.00513729
O        6.84481633       4.67710430       4.66328311        8       0.00000000       0.00354723      -0.00513729
O        5.64698541       1.70746435       3.66317848        9      -0.00296550       0.00549367       0.00000000
