10
Lattice="6.375956461061601 0.09412017534875473 0.06498865850424186 3.577311534050039 5.278685592940103 0.06498865850424763 3.5773115340500374 1.9310441610283062 4.913228425689782" Properties=species:S:1:pos:R:3:spacegroup_kinds:I:1:forces:R:3 spacegroup="P 1" unit_cell=conventional occupancy="_JSON {\"0\": {\"In\": 1}, \"1\": {\"In\": 1}, \"2\": {\"In\": 1}, \"3\": {\"In\": 1}, \"4\": {\"O\": 1}, \"5\": {\"O\": 1}, \"6\": {\"O\": 1}, \"7\": {\"O\": 1}, \"8\": {\"O\": 1}, \"9\": {\"O\": 1}}" n_minim_iter=1 energy=-11286.277985493485 stress="0.08184355564550472 -0.0022994133005678256 -0.0015877125736675373 -0.0022994133005678256 0.08486205034979084 -0.0008570523042187765 -0.0015877125736675373 -0.0008570523042187765 0.0855114984001745" free_energy=-11286.277985493485 pbc="T T T"
In      11.50290350       6.20930395       4.28743713        0      -0.02499390      -0.01349179      -0.00931589
In       8.79296580       4.74647095       3.27737149        1       0.02499390       0.01349179       0.00931589
In       4.73761374       2.55737899       1.76583425        2      -0.02499390      -0.01349179      -0.00931589
In       2.02767604       1.09454599       0.75576862        3       0.02499390       0.01349179       0.00931589
O        6.57062312       2.55736635       0.30219120        4      -0.00000000       0.07016577      -0.10161796
O        7.78716408       5.57222353       1.32579010        5      -0.05865894       0.10866727      -0.00000000
O        8.93139369       2.46303028       2.75880542        6       0.05865894      -0.03850149      -0.10161796
O        4.59918585       4.84081966       2.28440033        7      -0.05865894       0.03850149       0.10161796
O        6.95995642       4.74648359       4.74101454        8       0.00000000      -0.07016577       0.10161796
O        5.74341546       1.73162642       3.71741565        9       0.05865894      -0.10866727       0.00000000
10
Lattice="6.391186015659414 0.10943849444214374 0.07556574258563488 3.598474514492822 5.283012080184176 0.07556574258564058 3.5984745144928216 1.9424680052825773 4.913526724184779" Properties=species:S:1:pos:R:3:spacegroup_kinds:I:1:forces:R:3 spacegroup="P 1" unit_cell=conventional occupancy="_JSON {\"0\": {\"In\": 1}, \"1\": {\"In\": 1}, \"2\": {\"In\": 1}, \"3\": {\"In\": 1}, \"4\": {\"O\": 1}, \"5\": {\"O\": 1}, \"6\": {\"O\": 1}, \"7\": {\"O\": 1}, \"8\": {\"O\": 1}, \"9\": {\"O\": 1}}" n_minim_iter=2 energy=-11286.28040567271 stress="0.08277450667827672 0.0002443284979845929 0.00016870539443365106 0.0002443284979845929 0.08245377082757109 9.106770981514393e-05 0.00016870539443365106 9.106770981514393e-05 0.0823847624996028" free_energy=-11286.28040567271 pbc="T T T"
In      11.55167205       6.23562937       4.30561446        0      -0.01604635      -0.00866187      -0.00598090
In       8.83053052       4.76674851       3.29137286        1       0.01604635       0.00866187       0.00598090
In       4.75760453       2.56817008       1.77328535        2      -0.01604635      -0.00866187      -0.00598090
In       2.03646300       1.09928922       0.75904376        3       0.01604635       0.00866187       0.00598090
O        6.59262677       2.57179303       0.31429060        4      -0.00000000       0.05291299      -0.07663153
O        7.82058493       5.58826493       1.34173030        5      -0.04423553       0.08194751      -0.00000000
O        8.96314313       2.48471705       2.77105396        6       0.04423553      -0.02903452      -0.07663153
O        4.62499192       4.85020155       2.29360425        7      -0.04423553       0.02903451       0.07663153
O        6.99550828       4.76312556       4.75036762        8       0.00000000      -0.05291299       0.07663153
O        5.76755013       1.74665367       3.72292792        9       0.04423553      -0.08194751      -0.00000000
10
Lattice="6.3867409372951185 0.10497338472685311 0.07248264707082379 3.5923025489047853 5.281746075755121 0.07248264707082945 3.5923025489047844 1.9391363585983554 4.913435206211938" Properties=species:S:1:pos:R:3:spacegroup_kinds:I:1:forces:R:3 spacegroup="P 1" unit_cell=conventional occupancy="_JSON {\"0\": {\"In\": 1}, \"1\": {\"In\": 1}, \"2\": {\"In\": 1}, \"3\": {\"In\": 1}, \"4\": {\"O\": 1}, \"5\": {\"O\": 1}, \"6\": {\"O\": 1}, \"7\": {\"O\": 1}, \"8\": {\"O\": 1}, \"9\": {\"O\": 1}}" n_minim_iter=3 energy=-11286.28296345855 stress="0.081312770213378 9.054893127933177e-05 6.252276448145853e-05 9.054893127933177e-05 0.08119390447102755 3.374998645490933e-05 6.252276448145853e-05 3.374998645490933e-05 0.08116832976145913" free_energy=-11286.28296345855 pbc="T T T"
In      11.53609785       6.22722237       4.29980954        0      -0.01229647      -0.00663768      -0.00458322
In       8.82092121       4.76156137       3.28779121        1       0.01229647       0.00663768       0.00458322
In       4.75042484       2.56429446       1.77060929        2      -0.01229647      -0.00663768      -0.00458322
In       2.03524819       1.09863346       0.75859096        3       0.01229647       0.00663768       0.00458322
O        6.58620698       2.57189503       0.30452229        4      -0.00000000       0.00766759      -0.01110463
O        7.80723333       5.59025818       1.33708277        5      -0.00641014       0.01187497       0.00000000
O        8.95748319       2.47602872       2.76123989        6       0.00641014      -0.00420737      -0.01110463
O        4.61386286       4.84982711       2.29716061        7      -0.00641014       0.00420737       0.01110463
O        6.98513906       4.75396080       4.75387821        8      -0.00000000      -0.00766759       0.01110463
O        5.76411272       1.73559765       3.72131773        9       0.00641014      -0.01187497      -0.00000000
10
Lattice="6.3854631676471 0.10368896341771167 0.071595772205514 3.5905276261669576 5.281382643990524 0.07159577220551964 3.5905276261669568 1.9381782496507456 4.91340957578572" Properties=species:S:1:pos:R:3:spacegroup_kinds:I:1:forces:R:3 spacegroup="P 1" unit_cell=conventional occupancy="_JSON {\"0\": {\"In\": 1}, \"1\": {\"In\": 1}, \"2\": {\"In\": 1}, \"3\": {\"In\": 1}, \"4\": {\"O\": 1}, \"5\": {\"O\": 1}, \"6\": {\"O\": 1}, \"7\": {\"O\": 1}, \"8\": {\"O\": 1}, \"9\": {\"O\": 1}}" n_minim_iter=4 energy=-11286.283048041036 stress="0.08098678832949273 -4.5498354007487396e-06 -3.1415975209765528e-06 -4.5498354007487396e-06 0.08099276100989107 -1.6958437900987276e-06 -3.1415975209765528e-06 -1.6958437900987276e-06 0.08099404606866192" free_energy=-11286.283048041036 pbc="T T T"
In      11.53156098       6.22477335       4.29811853        0      -0.00982897      -0.00530571      -0.00366352
In       8.81821666       4.76010144       3.28678316        1       0.00982897       0.00530571       0.00366352
In       4.74830177       2.56314842       1.76981797        2      -0.00982897      -0.00530571      -0.00366352
In       2.03495745       1.09847652       0.75848260        3       0.00982897       0.00530571       0.00366352
O        6.58436119       2.57155946       0.30224139        4       0.00000000      -0.00116948       0.00169371
O        7.80369907       5.59026664       1.33574605        5       0.00097769      -0.00181121      -0.00000000
O        8.95555094       2.47373022       2.75894618        6      -0.00097769       0.00064172       0.00169371
O        4.61096749       4.84951965       2.29765495        7       0.00097769      -0.00064172      -0.00169371
O        6.98215724       4.75169041       4.75435974        8      -0.00000000       0.00116948      -0.00169371
O        5.76281936       1.73298323       3.72085507        9      -0.00097769       0.00181121       0.00000000
10
Lattice="6.385286254282017 0.10351109758922356 0.07147295835030863 3.590281853219337 5.281332342401015 0.07147295835031425 3.590281853219335 1.9380455806307506 4.913406051006163" Properties=species:S:1:pos:R:3:spacegroup_kinds:I:1:forces:R:3 spacegroup="P 1" unit_cell=conventional occupancy="_JSON {\"0\": {\"In\": 1}, \"1\": {\"In\": 1}, \"2\": {\"In\": 1}, \"3\": {\"In\": 1}, \"4\": {\"O\": 1}, \"5\": {\"O\": 1}, \"6\": {\"O\": 1}, \"7\": {\"O\": 1}, \"8\": {\"O\": 1}, \"9\": {\"O\": 1}}" n_minim_iter=5 energy=-11286.283073298418 stress="0.08094211045859738 -4.286347229276095e-06 -2.9596637112001827e-06 -4.286347229276095e-06 0.08094773724887122 -1.5976355758402772e-06 -2.9596637112001827e-06 -1.5976355758402772e-06 0.08094894788896871" free_energy=-11286.283073298418 pbc="T T T"
In      11.53016774       6.22402128       4.29759923        0      -0.00186044      -0.00100427      -0.00069343
In       8.81860721       4.76031227       3.28692873        1       0.00186044       0.00100427       0.00069343
In       4.74724276       2.56257677       1.76942325        2      -0.00186044      -0.00100427      -0.00069343
In       2.03568223       1.09886776       0.75875274        3       0.00186044       0.00100427       0.00069343
O        6.58410562       2.57148153       0.30197111        4       0.00000000      -0.00169444       0.00245399
O        7.80323600       5.59021910       1.33556095        5       0.00141656      -0.00262422       0.00000000
O        8.95525710       2.47342921       2.75867414        6      -0.00141656       0.00092978       0.00245399
O        4.61059287       4.84945983       2.29767783        7       0.00141656      -0.00092978      -0.00245399
O        6.98174435       4.75140750       4.75438086        8       0.00000000       0.00169444      -0.00245399
O        5.76261397       1.73266993       3.72079102        9      -0.00141656       0.00262422       0.00000000
