10
Lattice="6.129964479209299 0.022821881485936328 0.015758188473602292 3.3827246305771976 5.11215800111153 0.01575818847360375 3.3827246305771905 1.8260055307085161 4.774946235367949" Properties=species:S:1:pos:R:3:spacegroup_kinds:I:1:forces:R:3 spacegroup="P 1" unit_cell=conventional occupancy="_JSON {\"0\": {\"In\": 1}, \"1\": {\"In\": 1}, \"2\": {\"In\": 1}, \"3\": {\"In\": 1}, \"4\": {\"O\": 1}, \"5\": {\"O\": 1}, \"6\": {\"O\": 1}, \"7\": {\"O\": 1}, \"8\": {\"O\": 1}, \"9\": {\"O\": 1}}" n_minim_iter=6 energy=-11287.300420139478 stress="0.0486439374512553 -9.156272687299928e-05 -6.322277477957155e-05 -9.156272687299928e-05 0.04876413402730749 -3.412785599240776e-05 -6.322277477957155e-05 -3.412785599240776e-05 0.04878999507359205" free_energy=-11287.300420139478 pbc="T T T"
In      11.00286290       5.93938045       4.10105874        0       0.00141553       0.00076411       0.00052760
In       8.34025772       4.50209769       3.10863519        1      -0.00141553      -0.00076411      -0.00052760
In       4.55515603       2.45888774       1.69782743        2       0.00141553       0.00076411       0.00052760
In       1.89255085       1.02160498       0.70540388        3      -0.00141553      -0.00076411      -0.00052760
O        6.28883568       2.40972777       0.25644064        4      -0.00000000      -0.00171768       0.00248763
O        7.43004780       5.32690441       1.21737384        5       0.00143599      -0.00266020       0.00000000
O        8.53034819       2.30356242       2.64391376        6      -0.00143599       0.00094253       0.00248763
O        4.36506556       4.65742300       2.16254885        7       0.00143599      -0.00094253      -0.00248763
O        6.60657807       4.55125766       4.55002197        8      -0.00000000       0.00171768      -0.00248763
O        5.46536595       1.63408102       3.58908877        9      -0.00143599       0.00266020      -0.00000000
