10
Lattice="6.043570123431173 -0.019264016762828164 -0.01330153287730222 3.3001341394471697 5.063025340725348 -0.013301532877305521 3.3001341394471666 1.7814229205178655 4.739296879269907" Properties=species:S:1:pos:R:3:spacegroup_kinds:I:1:forces:R:3 spacegroup="P 1" unit_cell=conventional occupancy="_JSON {\"0\": {\"In\": 1}, \"1\": {\"In\": 1}, \"2\": {\"In\": 1}, \"3\": {\"In\": 1}, \"4\": {\"O\": 1}, \"5\": {\"O\": 1}, \"6\": {\"O\": 1}, \"7\": {\"O\": 1}, \"8\": {\"O\": 1}, \"9\": {\"O\": 1}}" n_minim_iter=6 energy=-11287.45320468714 stress="0.043806601864884415 -0.00015185245029265742 -0.00010485198278698724 -0.00015185245029265742 0.044005942199117715 -5.659943442316398e-05 -0.00010485198278698724 -5.659943442316398e-05 0.04404883152111079" free_energy=-11287.45320468714 pbc="T T T"
In      10.81872683       5.83998321       4.03242634        0      -0.00555647      -0.00299940      -0.00207104
In       8.14703079       4.39779317       3.03661439        1       0.00555647       0.00299940       0.00207104
In       4.49680763       2.42739108       1.67607943        2      -0.00555647      -0.00299940      -0.00207104
In       1.82511159       0.98520105       0.68026748        3       0.00555647       0.00299940       0.00207104
O        6.18274467       2.35531259       0.21763140        4       0.00000000       0.00163576      -0.00236900
O        7.28217828       5.24824010       1.16487192        5      -0.00136750       0.00253334       0.00000000
O        8.38344520       2.22596068       2.58727983        6       0.00136750      -0.00089758      -0.00236900
O        4.26039322       4.59922358       2.12541398        7      -0.00136750       0.00089758       0.00236900
O        6.46109374       4.46987166       4.49506242        8      -0.00000000      -0.00163576       0.00236900
O        5.36166013       1.57694415       3.54782190        9       0.00136750      -0.00253334       0.00000000
