10
Lattice="5.016050043020179 -0.3487580236701644 -0.24081251460624634 2.4608527918084286 4.384813990376995 -0.24081251460624248 2.460852791808435 1.3283761756672907 4.185690042671127" Properties=species:S:1:pos:R:3:spacegroup_kinds:I:1:forces:R:3 spacegroup="P 1" unit_cell=conventional occupancy="_JSON {\"0\": {\"In\": 1}, \"1\": {\"In\": 1}, \"2\": {\"In\": 1}, \"3\": {\"In\": 1}, \"4\": {\"O\": 1}, \"5\": {\"O\": 1}, \"6\": {\"O\": 1}, \"7\": {\"O\": 1}, \"8\": {\"O\": 1}, \"9\": {\"O\": 1}}" n_minim_iter=6 energy=-11283.755003843648 stress="-0.4247117982726061 1.1902239508222382e-05 8.218329017565906e-06 1.1902239508222382e-05 -0.42472742262950963 4.436280607913459e-06 8.218329017565906e-06 4.436280607913459e-06 -0.4247307843039927" free_energy=-11283.755003843648 pbc="T T T"
In       8.67118712       4.68073443       3.23198135        0      -0.00679334      -0.00366707      -0.00253206
In       6.23544631       3.36591378       2.32411617        1       0.00679334       0.00366707       0.00253206
In       3.70230931       1.99851836       1.37994884        2      -0.00679334      -0.00366707      -0.00253206
In       1.26656849       0.68369771       0.47208366        3       0.00679334       0.00366707       0.00253206
O        4.99246392       1.81654206      -0.13548525        4       0.00000000       0.00437841      -0.00634106
O        5.67964338       4.36551567       0.68520374        5      -0.00366037       0.00678094       0.00000000
O        6.76613726       1.47435050       1.95735978        6       0.00366037      -0.00240253      -0.00634106
O        3.17161836       3.89008164       1.74670523        7      -0.00366037       0.00240253       0.00634106
O        4.94529169       3.54789008       3.83955026        8      -0.00000000      -0.00437841       0.00634106
O        4.25811224       0.99891647       3.01886127        9       0.00366037      -0.00678094      -0.00000000
