10
Lattice="5.6614418974213585 -0.008796700824040467 -0.006073998308011379 3.0992027622396208 4.737820593727633 -0.00607399830801372 3.099202762239623 1.6729595230667849 4.432627584851359" Properties=species:S:1:pos:R:3:spacegroup_kinds:I:1:forces:R:3 spacegroup="P 1" unit_cell=conventional occupancy="_JSON {\"0\": {\"In\": 1}, \"1\": {\"In\": 1}, \"2\": {\"In\": 1}, \"3\": {\"In\": 1}, \"4\": {\"O\": 1}, \"5\": {\"O\": 1}, \"6\": {\"O\": 1}, \"7\": {\"O\": 1}, \"8\": {\"O\": 1}, \"9\": {\"O\": 1}}" n_minim_iter=5 energy=-11287.336285937734 stress="-0.07892904467211831 2.284166409963879e-06 1.5771854015358976e-06 2.284166409963879e-06 -0.0789320431526119 8.513696261013885e-07 1.5771854015358976e-06 8.513696261013885e-07 -0.07893268829499882" free_energy=-11287.336285937734 pbc="T T T"
In      10.18435178       5.49754554       3.79597794        0      -0.00004004      -0.00002162      -0.00001493
In       7.60541936       4.10542960       2.83474145        1       0.00004004       0.00002162       0.00001493
In       4.25442807       2.29655383       1.58573815        2      -0.00004004      -0.00002162      -0.00001493
In       1.67549565       0.90443789       0.62450165        3       0.00004004       0.00002162       0.00001493
O        5.79568281       2.23597633       0.17537494        4       0.00000000       0.00008183      -0.00011851
O        6.81034230       4.95600212       1.09904590        5      -0.00006841       0.00012673       0.00000000
O        7.88022608       2.08146178       2.39168874        6       0.00006841      -0.00004490      -0.00011851
O        3.97962136       4.32052164       2.02879086        7      -0.00006841       0.00004490       0.00011851
O        6.06416462       4.16600710       4.24510465        8      -0.00000000      -0.00008183       0.00011851
O        5.04950513       1.44598131       3.32143369        9       0.00006841      -0.00012673       0.00000000
