10
Lattice="5.72897658036882 0.007212219693316546 0.004979936352323529 3.1496440554900325 4.785495480955297 0.0049799363523215625 3.1496440554900373 1.7001878938359498 4.473293297299351" Properties=species:S:1:pos:R:3:spacegroup_kinds:I:1:forces:R:3 spacegroup="P 1" unit_cell=conventional occupancy="_JSON {\"0\": {\"In\": 1}, \"1\": {\"In\": 1}, \"2\": {\"In\": 1}, \"3\": {\"In\": 1}, \"4\": {\"O\": 1}, \"5\": {\"O\": 1}, \"6\": {\"O\": 1}, \"7\": {\"O\": 1}, \"8\": {\"O\": 1}, \"9\": {\"O\": 1}}" n_minim_iter=6 energy=-11287.542393938273 stress="-0.04659404571902803 3.748936912336884e-06 2.588587348807757e-06 3.748936912336884e-06 -0.04659896703889796 1.3973290142304535e-06 2.588587348807757e-06 1.3973290142304535e-06 -0.04660002588971919" free_energy=-11287.542393938273 pbc="T T T"
In      10.31771545       5.56953567       3.84568611        0      -0.00040198      -0.00021699      -0.00014983
In       7.72468160       4.16980774       2.87919365        1       0.00040198       0.00021699       0.00014983
In       4.30358310       2.32308787       1.60405953        2      -0.00040198      -0.00021699      -0.00014983
In       1.71054925       0.92335994       0.63756706        3       0.00040198       0.00021699       0.00014983
O        5.87155447       2.26466084       0.19956132        4      -0.00000000       0.00026380      -0.00038204
O        6.91314674       5.00740029       1.12579323        5      -0.00022053       0.00040855      -0.00000000
O        7.97960625       2.12693225       2.43620797        6       0.00022053      -0.00014475      -0.00038204
O        4.04865845       4.36596335       2.04704520        7      -0.00022053       0.00014475       0.00038204
O        6.15671023       4.22823476       4.28369185        8      -0.00000000      -0.00026380       0.00038204
O        5.11511796       1.48549531       3.35745994        9       0.00022053      -0.00040855      -0.00000000
