10
Lattice="5.792717953190749 0.020212958170533542 0.013956763584830107 3.1954890214234895 4.831649797207823 0.013956763584826294 3.195489021423491 1.7249351524785592 4.513273011224997" Properties=species:S:1:pos:R:3:spacegroup_kinds:I:1:forces:R:3 spacegroup="P 1" unit_cell=conventional occupancy="_JSON {\"0\": {\"In\": 1}, \"1\": {\"In\": 1}, \"2\": {\"In\": 1}, \"3\": {\"In\": 1}, \"4\": {\"O\": 1}, \"5\": {\"O\": 1}, \"6\": {\"O\": 1}, \"7\": {\"O\": 1}, \"8\": {\"O\": 1}, \"9\": {\"O\": 1}}" n_minim_iter=3 energy=-11287.65196506891 stress="-0.0204292172124161 0.0004490921775184675 0.0003100918382738413 0.0004490921775184675 -0.021018751229923506 0.00016738856193663942 0.0003100918382738413 0.00016738856193663942 -0.021145593168158238" free_energy=-11287.65196506891 pbc="T T T"
In      10.44198515       5.63661685       3.89200473        0       0.00400605       0.00216248       0.00149316
In       7.83355886       4.22858003       2.91977509        1      -0.00400605      -0.00216248      -0.00149316
In       4.35013715       2.34821789       1.62141146        2       0.00400605       0.00216248       0.00149316
In       1.74171086       0.94018107       0.64918182        3      -0.00400605      -0.00216248      -0.00149316
O        5.94228298       2.29055233       0.22082778        4      -0.00000000       0.00270081      -0.00391146
O        7.00812236       5.05549951       1.14925340        5      -0.00225789       0.00418280       0.00000000
O        8.07193263       2.16765126       2.47746429        6       0.00225789      -0.00148199      -0.00391146
O        4.11176338       4.40914666       2.06372225        7      -0.00225789       0.00148199       0.00391146
O        6.24141303       4.28624559       4.32035876        8       0.00000000      -0.00270081       0.00391146
O        5.17557365       1.52129841       3.39193314        9       0.00225789      -0.00418280       0.00000000
