320
Lattice="17.8241728087827 1.3970087638928546e-09 -1.171352526606148e-15 -5.941390937578009 16.80479128237581 -2.4196927991350975e-09 -5.941390935602339 -8.402395639790903 14.553376157445857" Properties=species:S:1:pos:R:3:spacegroup_kinds:I:1:forces:R:3 spacegroup="P 1" unit_cell=conventional occupancy="_JSON {\"0\": {\"In\": 1}, \"1\": {\"In\": 1}, \"2\": {\"In\": 1}, \"3\": {\"In\": 1}, \"4\": {\"In\": 1}, \"5\": {\"In\": 1}, \"6\": {\"In\": 1}, \"7\": {\"In\": 1}, \"8\": {\"In\": 1}, \"9\": {\"In\": 1}, \"10\": {\"In\": 1}, \"11\": {\"In\": 1}, \"12\": {\"In\": 1}, \"13\": {\"In\": 1}, \"14\": {\"In\": 1}, \"15\": {\"In\": 1}, \"16\": {\"O\": 1}, \"17\": {\"O\": 1}, \"18\": {\"O\": 1}, \"19\": {\"O\": 1}, \"20\": {\"O\": 1}, \"21\": {\"O\": 1}, \"22\": {\"O\": 1}, \"23\": {\"O\": 1}, \"24\": {\"O\": 1}, \"25\": {\"O\": 1}, \"26\": {\"O\": 1}, \"27\": {\"O\": 1}, \"28\": {\"O\": 1}, \"29\": {\"O\": 1}, \"30\": {\"O\": 1}, \"31\": {\"O\": 1}, \"32\": {\"O\": 1}, \"33\": {\"O\": 1}, \"34\": {\"O\": 1}, \"35\": {\"O\": 1}, \"36\": {\"O\": 1}, \"37\": {\"O\": 1}, \"38\": {\"O\": 1}, \"39\": {\"O\": 1}}" n_minim_iter=7 energy=-361215.24552978564 stress="0.00014599010478072373 2.65071191094232e-06 -7.3521547866978135e-06 2.65071191094232e-06 0.0001577312899305028 5.802110383014657e-06 -7.3521547866978135e-06 5.802110383014657e-06 0.00015402748355491662" free_energy=-45151.90573962641 pbc="T T T"
In      -4.25539980       3.00902206       5.70325303        0       0.00538747      -0.00068063       0.00151315
In       4.65668660       3.00902206       5.70325303        0       0.00318982      -0.00222873       0.00363159
In      -7.22609527      11.41141770       5.70325303        0       0.00203066      -0.00143690       0.00247088
In       1.68599114      11.41141770       5.70325303        0       0.00193884      -0.00122964       0.00246138
In      -7.22609527      -1.19217576      12.97994111        0       0.00208837      -0.00141345       0.00243574
In       1.68599114      -1.19217576      12.97994111        0       0.00205415      -0.00142550       0.00251315
In     -10.19679074       7.21021988      12.97994111        0       0.00195525      -0.00145444       0.00236925
In      -1.28470433       7.21021988      12.97994111        0       0.00203137      -0.00142028       0.00247743
In       7.22609527       1.19217577       1.57343504        1      -0.00185259       0.00148046      -0.00263183
In      16.13818167       1.19217577       1.57343504        1      -0.00107296       0.00246234      -0.00050123
In       4.25539980       9.59457141       1.57343504        1      -0.00199067       0.00157158      -0.00251414
In      13.16748621       9.59457141       1.57343504        1      -0.00203047       0.00140124      -0.00237074
In       4.25539980      -3.00902205       8.85012312        1      -0.00201545       0.00141472      -0.00246726
In      13.16748621      -3.00902205       8.85012312        1      -0.00199483       0.00145951      -0.00252091
In       1.28470433       5.39337359       8.85012312        1      -0.00198253       0.00085677      -0.00231949
In      10.19679074       5.39337359       8.85012312        1      -0.00205336       0.00146380      -0.00244581
In       1.28470433      -0.90842314       5.21177908        2      -0.00192898       0.00092039      -0.00187962
In      10.19679073      -0.90842314       5.21177908        2      -0.00209430       0.00139583      -0.00249007
In      -1.68599114       7.49397250       5.21177908        2      -0.00209398       0.00064927      -0.00258142
In       7.22609527       7.49397250       5.21177908        2      -0.00196932       0.00149259      -0.00255697
In      -1.68599114      -5.10962096      12.48846716        2      -0.00201665       0.00148701      -0.00241795
In       7.22609527      -5.10962096      12.48846716        2      -0.00209294       0.00138857      -0.00257723
In      -4.65668661       3.29277468      12.48846716        2      -0.00199262       0.00146884      -0.00250382
In       4.25539980       3.29277468      12.48846716        2      -0.00202486       0.00142016      -0.00242414
In       7.42673866      -2.10059891       3.63834404        3      -0.00002450       0.00006142      -0.00000592
In      16.33882507      -2.10059891       3.63834404        3       0.00009837       0.00013148      -0.00007487
In       4.45604320       6.30179673       3.63834404        3       0.00127457       0.00053621      -0.00057677
In      13.36812960       6.30179673       3.63834404        3       0.00170029      -0.00076639       0.00001630
In       4.45604320      -6.30179673      10.91503212        3      -0.00000053      -0.00001936      -0.00002054
In      13.36812960      -6.30179673      10.91503212        3      -0.00003606      -0.00001734       0.00007455
In       1.48534773       2.10059891      10.91503212        3      -0.00008333      -0.00001651      -0.00003026
In      10.39743413       2.10059891      10.91503212        3       0.00000563       0.00001112      -0.00002900
In      -1.28470433       4.05932151       3.39260706        4      -0.02452784      -0.00329233      -0.00836223
In       7.62738207       4.05932151       3.39260706        4       0.00202631      -0.00144626      -0.00263739
In      -4.25539980      12.46171715       3.39260706        4       0.00204351      -0.00139701      -0.00245893
In       4.65668661      12.46171715       3.39260706        4       0.00201040      -0.00137549      -0.00247703
In      -4.25539980      -0.14187631      10.66929514        4       0.00205284      -0.00140901      -0.00248403
In       4.65668661      -0.14187631      10.66929514        4       0.00202523      -0.00147650      -0.00243730
In      -7.22609527       8.26051933      10.66929514        4       0.00204380      -0.00143110      -0.00248080
In       1.68599114       8.26051933      10.66929514        4       0.00204288      -0.00143166      -0.00247399
In       4.65668660      -2.86714574       5.45751606        5       0.00205596       0.00279792       0.00000993
In      13.56877300      -2.86714574       5.45751606        5       0.00203747       0.00285164      -0.00000895
In       1.68599113       5.53524990       5.45751606        5      -0.00958212      -0.00979738      -0.01218728
In      10.59807754       5.53524990       5.45751606        5       0.00213963       0.00282006      -0.00007176
In       1.68599113      -7.06834356      12.73420414        5       0.00197760       0.00284514       0.00003624
In      10.59807754      -7.06834356      12.73420414        5       0.00206624       0.00277527      -0.00003229
In      -1.28470434       1.33405208      12.73420414        5       0.00200201       0.00287559       0.00007260
In       7.62738207       1.33405208      12.73420414        5       0.00199652       0.00287899      -0.00001651
In      -1.28470433       1.33405208       5.45751606        6       0.00208512       0.00534510      -0.00194989
In       7.62738207       1.33405208       5.45751606        6       0.00226585       0.00278866       0.00011992
In      -4.25539980       9.73644772       5.45751606        6       0.00207206       0.00274497      -0.00008389
In       4.65668661       9.73644772       5.45751606        6       0.00208030       0.00293502      -0.00005847
In      -4.25539980      -2.86714574      12.73420414        6       0.00195679       0.00279088      -0.00016893
In       4.65668661      -2.86714574      12.73420414        6       0.00204841       0.00286057       0.00001002
In      -7.22609527       5.53524990      12.73420414        6       0.00199652       0.00281971      -0.00002263
In       1.68599114       5.53524990      12.73420414        6       0.00206677       0.00286714       0.00005413
In      -1.68599114       7.06834357       1.81917202        7      -0.00104662      -0.00402107       0.00035362
In       7.22609526       7.06834357       1.81917202        7      -0.00183320      -0.00284843      -0.00001555
In      -4.65668661      15.47073921       1.81917202        7      -0.00221441      -0.00305209      -0.00011647
In       4.25539980      15.47073921       1.81917202        7      -0.00199135      -0.00286695      -0.00000030
In      -4.65668661       2.86714575       9.09586010        7      -0.00191775      -0.00273719      -0.00023118
In       4.25539980       2.86714575       9.09586010        7      -0.00190235      -0.00268564       0.00004776
In      -7.62738208      11.26954139       9.09586010        7      -0.00202029      -0.00284962      -0.00002799
In       1.28470433      11.26954139       9.09586010        7      -0.00200413      -0.00285247      -0.00001347
In       4.25539980       0.14187631       3.88408101        8      -0.00100319      -0.00054941       0.00270371
In      13.16748620       0.14187631       3.88408101        8      -0.00206242       0.00138926       0.00248125
In       1.28470433       8.54427195       3.88408101        8      -0.00363372       0.00300440       0.00305623
In      10.19679074       8.54427195       3.88408101        8      -0.00188473       0.00138158       0.00245803
In       1.28470433      -4.05932151      11.16076909        8      -0.00199847       0.00143951       0.00245407
In      10.19679074      -4.05932151      11.16076909        8      -0.00198682       0.00140289       0.00247877
In      -1.68599114       4.34307413      11.16076909        8      -0.00193019       0.00148683       0.00250676
In       7.22609527       4.34307413      11.16076909        8      -0.00200645       0.00139474       0.00246000
In       7.42673866       4.20119782      -0.00000000        9       0.00005529      -0.00005058      -0.00005110
In      16.33882507       4.20119782      -0.00000000        9       0.00089281       0.00031447       0.00197228
In       4.45604320      12.60359346      -0.00000000        9      -0.00001629       0.00001977      -0.00001261
In      13.36812960      12.60359346      -0.00000000        9       0.00002758      -0.00001150      -0.00001772
In       4.45604320       0.00000000       7.27668808        9       0.00004141      -0.00000681      -0.00008986
In      13.36812960       0.00000000       7.27668808        9      -0.00001200       0.00008503      -0.00010062
In       1.48534773       8.40239564       7.27668808        9      -0.00031510       0.00083198       0.00020393
In      10.39743413       8.40239564       7.27668808        9       0.00000158       0.00001250       0.00002461
In       4.25539980       6.44367304       0.24573697       10      -0.00115355       0.00247677       0.00153611
In      13.16748620       6.44367304       0.24573697       10      -0.00213447       0.00144341       0.00234014
In       1.28470433      14.84606868       0.24573697       10      -0.00198290       0.00139749       0.00247982
In      10.19679074      14.84606868       0.24573697       10      -0.00195340       0.00136579       0.00247424
In       1.28470433       2.24247522       7.52242505       10      -0.00230060       0.00178426       0.00224120
In      10.19679074       2.24247522       7.52242505       10      -0.00192219       0.00140891       0.00241373
In      -1.68599114      10.64487086       7.52242505       10      -0.00197532       0.00146208       0.00250804
In       7.22609527      10.64487086       7.52242505       10      -0.00196320       0.00146011       0.00247474
In      -1.28470433      -2.24247522       7.03095110       11       0.00211028      -0.00148149      -0.00248480
In       7.62738207      -2.24247522       7.03095110       11       0.00200333      -0.00137293      -0.00247482
In      -4.25539980       6.15992042       7.03095110       11       0.00202427      -0.00152115      -0.00259419
In       4.65668661       6.15992042       7.03095110       11       0.00292514      -0.00048861      -0.00094347
In      -4.25539980      -6.44367304      14.30763918       11       0.00156867      -0.00243674      -0.00448725
In       4.65668661      -6.44367304      14.30763918       11       0.00204419      -0.00141934      -0.00245385
In      -7.22609527       1.95872260      14.30763918       11       0.00204857      -0.00143852      -0.00251119
In       1.68599114       1.95872260      14.30763918       11       0.00198297      -0.00147455      -0.00242849
In       4.25539980       2.86714575       1.81917202       12      -0.00096492      -0.00357247      -0.00091368
In      13.16748620       2.86714575       1.81917202       12      -0.00134147      -0.00264218       0.00024179
In       1.28470433      11.26954139       1.81917202       12      -0.00205475      -0.00278123       0.00005584
In      10.19679074      11.26954139       1.81917202       12      -0.00202169      -0.00287466       0.00000371
In       1.28470433      -1.33405207       9.09586010       12      -0.00209053      -0.00285381      -0.00001400
In      10.19679074      -1.33405207       9.09586010       12      -0.00202500      -0.00284828       0.00000405
In      -1.68599114       7.06834357       9.09586010       12      -0.00208159      -0.00282563       0.00004321
In       7.22609527       7.06834357       9.09586010       12      -0.00220519      -0.00295076      -0.00016341
In       1.68599113       5.10962097       2.06490899       13      -0.00733368      -0.00364255       0.00843259
In      10.59807753       5.10962097       2.06490899       13       0.00206109      -0.00138369       0.00247191
In      -1.28470434      13.51201661       2.06490899       13       0.00198415      -0.00133059       0.00244499
In       7.62738207      13.51201661       2.06490899       13       0.00201389      -0.00142293       0.00249297
In      -1.28470434       0.90842315       9.34159707       13       0.00211220      -0.00140098       0.00239482
In       7.62738207       0.90842315       9.34159707       13       0.00201120      -0.00139828       0.00242762
In      -4.25539981       9.31081879       9.34159707       13       0.00198092      -0.00140656       0.00250290
In       4.65668660       9.31081879       9.34159707       13       0.00199558      -0.00143588       0.00244488
In       1.48534773       8.40239564      -0.00000000       14      -0.00015491       0.00018322      -0.00002404
In      10.39743414       8.40239564      -0.00000000       14       0.00003079       0.00000252      -0.00003454
In      -1.48534774      16.80479128      -0.00000000       14       0.00008825       0.00013241       0.00003538
In       7.42673867      16.80479128      -0.00000000       14       0.00011307       0.00007776       0.00007030
In      -1.48534774       4.20119782       7.27668808       14      -0.00001317      -0.00009339      -0.00197992
In       7.42673867       4.20119782       7.27668808       14       0.00024745      -0.00010204       0.00015979
In      -4.45604321      12.60359346       7.27668808       14       0.00001214      -0.00002267       0.00002252
In       4.45604320      12.60359346       7.27668808       14      -0.00002069       0.00003723       0.00000662
In       1.48534773       2.10059891       3.63834404       15      -0.00707482       0.00796985       0.00109513
In      10.39743413       2.10059891       3.63834404       15      -0.00001395      -0.00000961       0.00002897
In      -1.48534774      10.50299455       3.63834404       15       0.00000098       0.00035259      -0.00004815
In       7.42673867      10.50299455       3.63834404       15      -0.00005487      -0.00005267      -0.00001860
In      -1.48534774      -2.10059891      10.91503212       15      -0.00001592      -0.00000012      -0.00006753
In       7.42673867      -2.10059891      10.91503212       15       0.00000374      -0.00001923       0.00001256
In      -4.45604321       6.30179673      10.91503212       15      -0.00003324       0.00002716       0.00003083
In       4.45604320       6.30179673      10.91503212       15       0.00001734       0.00003478       0.00005426
O        0.86517571       4.20176968       3.95946557       16       0.07832266       0.01230880       0.01834122
O        9.78726211       4.20176968       3.95946557       16      -0.00037947      -0.00629443       0.00089192
O       -2.09551976      12.60416532       3.95946557       16      -0.00031648      -0.00630855       0.00090733
O        6.81656665      12.60416532       3.95946557       16      -0.00025412      -0.00616648       0.00093114
O       -2.09551976       0.00057186      11.23615365       16      -0.00035722      -0.00628913       0.00085196
O        6.81656665       0.00057186      11.23615365       16      -0.00032968      -0.00631333       0.00094153
O       -5.06621523       8.40296750      11.23615365       16      -0.00034192      -0.00631014       0.00087989
O        3.84587118       8.40296750      11.23615365       16      -0.00026019      -0.00633073       0.00087946
O       -2.09551975       3.42871185       5.29646004       17      -0.00643172       0.00155787       0.00969104
O        6.81656665       3.42871185       5.29646004       17      -0.00137565       0.00391163       0.00507225
O       -5.06621522      11.83110749       5.29646004       17      -0.00028160       0.00389750       0.00497459
O        3.84587119      11.83110749       5.29646004       17      -0.00035746       0.00387402       0.00498457
O       -5.06621522      -0.77248597      12.57314812       17      -0.00038009       0.00388370       0.00499446
O        3.84587119      -0.77248597      12.57314812       17      -0.00033354       0.00393235       0.00501233
O       -8.03691069       7.62990967      12.57314812       17      -0.00032578       0.00404955       0.00510267
O        0.87517572       7.62990967      12.57314812       17      -0.00030349       0.00397842       0.00505178
O       -0.43604237       2.25528413       0.05220838       18      -0.00254945       0.00489267       0.00163221
O        8.47604403       2.25528413       0.05220838       18      -0.00252164       0.00539540       0.00262976
O       -3.40673784      10.65767977       0.05220838       18      -0.00239105       0.00545342       0.00253416
O        5.50534857      10.65767977       0.05220838       18      -0.00238138       0.00524914       0.00258819
O       -3.40673784      -1.94591369       7.32889646       18      -0.00239023       0.00521639       0.00265928
O        5.50534857      -1.94591369       7.32889646       18      -0.00236211       0.00548727       0.00240630
O       -6.37743331       6.45648195       7.32889646       18      -0.00239746       0.00540920       0.00258200
O        2.53465310       6.45648195       7.32889646       18      -0.00223581       0.00541812       0.00258173
O       -0.87517572      -0.77191412       1.97923754       19       0.00024607      -0.00293912       0.00547020
O        8.03691068      -0.77191412       1.97923754       19       0.00018164      -0.00230917       0.00598979
O       -3.84587119       7.63048152       1.97923754       19       0.00000236      -0.00195050       0.00565370
O        5.06621522       7.63048152       1.97923754       19       0.00000923      -0.00251103       0.00599618
O       -3.84587119      -4.97311194       9.25592562       19       0.00032185      -0.00236075       0.00590768
O        5.06621522      -4.97311194       9.25592562       19       0.00033893      -0.00235196       0.00593272
O       -6.81656666       3.42928370       9.25592562       19       0.00034663      -0.00237087       0.00593081
O        2.09551975       3.42928370       9.25592562       19       0.00048017      -0.00246562       0.00638907
O        3.93112711       5.00325446       1.92702916       20       0.00262472       0.00296766       0.00491161
O       12.84321351       5.00325446       1.92702916       20       0.00375934       0.00360684       0.00313169
O        0.96043164      13.40565010       1.92702916       20       0.00382312       0.00398174       0.00335379
O        9.87251805      13.40565010       1.92702916       20       0.00383549       0.00387270       0.00336437
O        0.96043164       0.80205664       9.20371724       20       0.00364505       0.00395524       0.00328397
O        9.87251805       0.80205664       9.20371724       20       0.00385236       0.00381178       0.00340223
O       -2.01026383       9.20445228       9.20371724       20       0.00379218       0.00370968       0.00325562
O        6.90182258       9.20445228       9.20371724       20       0.00386449       0.00386404       0.00330305
O        2.01026382       2.93336993       1.65811600       21      -0.00483731       0.00362356       0.01380072
O       10.92235022       2.93336993       1.65811600       21      -0.00391106      -0.00101466       0.00499016
O       -0.96043165      11.33576557       1.65811600       21      -0.00384304      -0.00106751       0.00502815
O        7.95165476      11.33576557       1.65811600       21      -0.00382634      -0.00100703       0.00498757
O       -0.96043165      -1.26782789       8.93480408       21      -0.00389076      -0.00091485       0.00502083
O        7.95165476      -1.26782789       8.93480408       21      -0.00381588      -0.00100413       0.00500047
O       -3.93112712       7.13456775       8.93480408       21      -0.00374335      -0.00091994       0.00498015
O        4.98095929       7.13456775       8.93480408       21      -0.00361168      -0.00070196       0.00545467
O        2.01026382       6.27108235       0.26891315       22      -0.00390351       0.00463222      -0.00144198
O       10.92235022       6.27108235       0.26891315       22      -0.00403638       0.00488514      -0.00170253
O       -0.96043165      14.67347799       0.26891315       22      -0.00384513       0.00500871      -0.00152397
O        7.95165476      14.67347799       0.26891315       22      -0.00389541       0.00472676      -0.00168367
O       -0.96043165       2.06988453       7.54560123       22      -0.00377147       0.00412029      -0.00067926
O        7.95165476       2.06988453       7.54560123       22      -0.00408506       0.00491104      -0.00179070
O       -3.93112712      10.47228017       7.54560123       22      -0.00387565       0.00487015      -0.00159196
O        4.98095929      10.47228017       7.54560123       22      -0.00379269       0.00476346      -0.00164205
O       -2.27164973       5.96114005       3.69055242       23      -0.00816194       0.00431857       0.00277027
O        6.64043667       5.96114005       3.69055242       23      -0.00664616       0.00034073       0.00270669
O       -5.24234520      14.36353569       3.69055242       23      -0.00591992       0.00046994       0.00251649
O        3.66974121      14.36353569       3.69055242       23      -0.00580076       0.00043005       0.00255370
O       -5.24234520       1.75994223      10.96724050       23      -0.00579870       0.00038046       0.00253192
O        3.66974121       1.75994223      10.96724050       23      -0.00584882       0.00044077       0.00261309
O       -8.21304067      10.16233787      10.96724050       23      -0.00581626       0.00040352       0.00261824
O        0.69904574      10.16233787      10.96724050       23      -0.00581315       0.00036512       0.00252587
O        3.40673784       1.94591369       7.22447970       24       0.00257163      -0.00501609      -0.00308964
O       12.31882424       1.94591369       7.22447970       24       0.00248167      -0.00537405      -0.00253622
O        0.43604237      10.34830933       7.22447970       24       0.00243269      -0.00532796      -0.00253508
O        9.34812878      10.34830933       7.22447970       24       0.00229067      -0.00538132      -0.00257655
O        0.43604237      -2.25528413      14.50116778       24       0.00238998      -0.00540496      -0.00252037
O        9.34812878      -2.25528413      14.50116778       24       0.00137218      -0.00517095      -0.00318967
O       -2.53465310       6.14711151      14.50116778       24       0.00232203      -0.00534922      -0.00253371
O        6.37743331       6.14711151      14.50116778       24       0.00238929      -0.00522753      -0.00245840
O        5.24234520      -1.75994222       3.58613566       25       0.00590323      -0.00065935      -0.00264046
O       14.15443160      -1.75994222       3.58613566       25       0.00583781      -0.00049049      -0.00266205
O        2.27164973       6.64245342       3.58613566       25       0.00187255      -0.01333873      -0.00191351
O       11.18373614       6.64245342       3.58613566       25       0.00562692      -0.00039825      -0.00254782
O        2.27164973      -5.96114004      10.86282374       25       0.00583721      -0.00042329      -0.00256377
O       11.18373614      -5.96114004      10.86282374       25       0.00582263      -0.00041398      -0.00246560
O       -0.69904574       2.44125560      10.86282374       25       0.00585547      -0.00045215      -0.00267382
O        8.21304067       2.44125560      10.86282374       25       0.00582945      -0.00038955      -0.00256473
O        6.37743331       3.27345476       1.71131487       26       0.00174735       0.00458896      -0.00324541
O       15.28951971       3.27345476       1.71131487       26       0.00178157       0.00399189      -0.00519278
O        3.40673784      11.67585040       1.71131487       26       0.00234961       0.00490420      -0.00336844
O       12.31882425      11.67585040       1.71131487       26       0.00236862       0.00489441      -0.00332896
O        3.40673784      -0.92774306       8.98800295       26       0.00228251       0.00475164      -0.00330057
O       12.31882425      -0.92774306       8.98800295       26       0.00234545       0.00489822      -0.00332133
O        0.43604237       7.47465258       8.98800295       26       0.00219794       0.00475585      -0.00352945
O        9.34812878       7.47465258       8.98800295       26       0.00223457       0.00488254      -0.00337866
O        3.66974121       2.31614104       3.90725719       27      -0.00977471       0.00482178      -0.00116906
O       12.58182761       2.31614104       3.90725719       27      -0.00585955       0.00199101      -0.00176628
O        0.69904574      10.71853668       3.90725719       27      -0.00591679       0.00191649      -0.00169642
O        9.61113215      10.71853668       3.90725719       27      -0.00580231       0.00203599      -0.00163979
O        0.69904574      -1.88505678      11.18394527       27      -0.00579397       0.00194603      -0.00163530
O        9.61113215      -1.88505678      11.18394527       27      -0.00581298       0.00196383      -0.00164460
O       -2.27164973       6.51733886      11.18394527       27      -0.00586573       0.00200980      -0.00163112
O        6.64043668       6.51733886      11.18394527       27      -0.00581941       0.00195188      -0.00175627
O        0.69904574       4.32631238       6.95556654       28      -0.00324869      -0.00168731      -0.00112156
O        9.61113214       4.32631238       6.95556654       28      -0.00589933      -0.00236836      -0.00091552
O       -2.27164973      12.72870802       6.95556654       28      -0.00588247      -0.00236296      -0.00094000
O        6.64043668      12.72870802       6.95556654       28      -0.00578855      -0.00238747      -0.00091791
O       -2.27164973       0.12511456      14.23225462       28      -0.00577388      -0.00220619      -0.00113798
O        6.64043668       0.12511456      14.23225462       28      -0.00595952      -0.00233621      -0.00098817
O       -5.24234520       8.52751020      14.23225462       28      -0.00593856      -0.00237989      -0.00082248
O        3.66974121       8.52751020      14.23225462       28      -0.00573358      -0.00218998      -0.00073473
O        2.27164973      -0.12511456       0.32112153       29       0.00580894       0.00264889       0.00080821
O       11.18373613      -0.12511456       0.32112153       29       0.00576833       0.00237540       0.00088367
O       -0.69904574       8.27728108       0.32112153       29       0.00583550       0.00269101       0.00100781
O        8.21304067       8.27728108       0.32112153       29       0.00569392       0.00235375       0.00095285
O       -0.69904574      -4.32631238       7.59780961       29       0.00583785       0.00240016       0.00092242
O        8.21304067      -4.32631238       7.59780961       29       0.00583068       0.00240200       0.00091349
O       -3.66974121       4.07608326       7.59780961       29       0.00529605       0.00245811       0.00139841
O        5.24234520       4.07608326       7.59780961       29       0.00529123       0.00250401       0.00032029
O       -3.40673784       0.92774306       5.56537320       30      -0.00277343      -0.00546422       0.00381647
O        5.50534856       0.92774306       5.56537320       30      -0.00288686      -0.00447425       0.00295516
O       -6.37743331       9.33013870       5.56537320       30      -0.00239249      -0.00482139       0.00337239
O        2.53465310       9.33013870       5.56537320       30      -0.00241085      -0.00464335       0.00318755
O       -6.37743331      -3.27345476      12.84206128       30      -0.00219088      -0.00492916       0.00293104
O        2.53465310      -3.27345476      12.84206128       30      -0.00233362      -0.00486211       0.00335266
O       -9.34812878       5.12894088      12.84206128       30      -0.00235963      -0.00488708       0.00337785
O       -0.43604237       5.12894088      12.84206128       30      -0.00233750      -0.00490273       0.00339648
O        5.06621522       0.77248598       1.98022803       31       0.00001311      -0.00324642      -0.00477544
O       13.97830162       0.77248598       1.98022803       31       0.00000089      -0.00369876      -0.00508285