320
Lattice="17.8241728087827 1.3970087638928546e-09 -1.171352526606148e-15 -5.941390937578009 16.80479128237581 -2.4196927991350975e-09 -5.941390935602339 -8.402395639790903 14.553376157445857" Properties=species:S:1:pos:R:3:spacegroup_kinds:I:1:forces:R:3 spacegroup="P 1" unit_cell=conventional occupancy="_JSON {\"0\": {\"In\": 1}, \"1\": {\"In\": 1}, \"2\": {\"In\": 1}, \"3\": {\"In\": 1}, \"4\": {\"In\": 1}, \"5\": {\"In\": 1}, \"6\": {\"In\": 1}, \"7\": {\"In\": 1}, \"8\": {\"In\": 1}, \"9\": {\"In\": 1}, \"10\": {\"In\": 1}, \"11\": {\"In\": 1}, \"12\": {\"In\": 1}, \"13\": {\"In\": 1}, \"14\": {\"In\": 1}, \"15\": {\"In\": 1}, \"16\": {\"O\": 1}, \"17\": {\"O\": 1}, \"18\": {\"O\": 1}, \"19\": {\"O\": 1}, \"20\": {\"O\": 1}, \"21\": {\"O\": 1}, \"22\": {\"O\": 1}, \"23\": {\"O\": 1}, \"24\": {\"O\": 1}, \"25\": {\"O\": 1}, \"26\": {\"O\": 1}, \"27\": {\"O\": 1}, \"28\": {\"O\": 1}, \"29\": {\"O\": 1}, \"30\": {\"O\": 1}, \"31\": {\"O\": 1}, \"32\": {\"O\": 1}, \"33\": {\"O\": 1}, \"34\": {\"O\": 1}, \"35\": {\"O\": 1}, \"36\": {\"O\": 1}, \"37\": {\"O\": 1}, \"38\": {\"O\": 1}, \"39\": {\"O\": 1}}" n_minim_iter=7 energy=-361215.2454518782 stress="0.00013928436731822235 -2.477139359004558e-06 5.8926221039683505e-06 -2.477139359004558e-06 0.00015145751011930587 -1.5466654770827856e-06 5.8926221039683505e-06 -1.5466654770827856e-06 0.00015550278339568626" free_energy=-45151.90573962641 pbc="T T T"
In      -4.24539980       3.00902206       5.70325303        0      -0.09564186       0.00561640      -0.01461363
In       4.65668660       3.00902206       5.70325303        0       0.00246969      -0.00144825       0.00251777
In      -7.22609527      11.41141770       5.70325303        0       0.00212264      -0.00161528       0.00243774
In       1.68599114      11.41141770       5.70325303        0       0.00198113      -0.00147061       0.00248300
In      -7.22609527      -1.19217576      12.97994111        0       0.00199439      -0.00138234       0.00236402
In       1.68599114      -1.19217576      12.97994111        0       0.00189956      -0.00135628       0.00234910
In     -10.19679074       7.21021988      12.97994111        0       0.00198044      -0.00139756       0.00252681
In      -1.28470433       7.21021988      12.97994111        0       0.00211059      -0.00124397       0.00264812
In       7.22609527       1.19217577       1.57343504        1      -0.00190691       0.00146185      -0.00237046
In      16.13818167       1.19217577       1.57343504        1      -0.00188128       0.00134353      -0.00273542
In       4.25539980       9.59457141       1.57343504        1      -0.00201965       0.00142803      -0.00247355
In      13.16748621       9.59457141       1.57343504        1      -0.00223831       0.00140543      -0.00253728
In       4.25539980      -3.00902205       8.85012312        1      -0.00201965       0.00142803      -0.00247355
In      13.16748621      -3.00902205       8.85012312        1      -0.00224789       0.00168487      -0.00248649
In       1.28470433       5.39337359       8.85012312        1      -0.00072165       0.00214223      -0.00159833
In      10.19679074       5.39337359       8.85012312        1      -0.00104087       0.00056382      -0.00281904
In       1.28470433      -0.90842314       5.21177908        2      -0.00094006       0.00030496      -0.00271584
In      10.19679073      -0.90842314       5.21177908        2      -0.00085148       0.00222698      -0.00216260
In      -1.68599114       7.49397250       5.21177908        2      -0.00179913       0.00192230      -0.00268388
In       7.22609527       7.49397250       5.21177908        2      -0.00197868       0.00150116      -0.00248128
In      -1.68599114      -5.10962096      12.48846716        2      -0.00201964       0.00142810      -0.00247354
In       7.22609527      -5.10962096      12.48846716        2      -0.00217304       0.00149668      -0.00239954
In      -4.65668661       3.29277468      12.48846716        2      -0.00210318       0.00133898      -0.00283292
In       4.25539980       3.29277468      12.48846716        2      -0.00202021       0.00142790      -0.00247440
In       7.42673866      -2.10059891       3.63834404        3       0.00000062       0.00010867      -0.00013044
In      16.33882507      -2.10059891       3.63834404        3       0.00008780      -0.00033601      -0.00034817
In       4.45604320       6.30179673       3.63834404        3       0.00027702       0.00006701      -0.00018707
In      13.36812960       6.30179673       3.63834404        3      -0.00175431      -0.00181743       0.00147617
In       4.45604320      -6.30179673      10.91503212        3       0.00004146       0.00004807       0.00004063
In      13.36812960      -6.30179673      10.91503212        3      -0.00000196       0.00000433      -0.00000063
In       1.48534773       2.10059891      10.91503212        3      -0.00020519      -0.00027615       0.00002177
In      10.39743413       2.10059891      10.91503212        3       0.00003835      -0.00021742      -0.00019023
In      -1.28470433       4.05932151       3.39260706        4       0.00743764       0.00213140      -0.01124045
In       7.62738207       4.05932151       3.39260706        4       0.00218851      -0.00139367      -0.00269317
In      -4.25539980      12.46171715       3.39260706        4       0.00204717      -0.00151727      -0.00243306
In       4.65668661      12.46171715       3.39260706        4       0.00216207      -0.00131609      -0.00250287
In      -4.25539980      -0.14187631      10.66929514        4       0.00173373      -0.00152154      -0.00227592
In       4.65668661      -0.14187631      10.66929514        4       0.00205121      -0.00141923      -0.00248860
In      -7.22609527       8.26051933      10.66929514        4       0.00212942      -0.00144523      -0.00269489
In       1.68599114       8.26051933      10.66929514        4       0.00214439      -0.00129110      -0.00227380
In       4.65668660      -2.86714574       5.45751606        5       0.00205261       0.00282786      -0.00000087
In      13.56877300      -2.86714574       5.45751606        5       0.00173508       0.00361527       0.00002313
In       1.68599113       5.53524990       5.45751606        5       0.00219684       0.00365639      -0.00014402
In      10.59807754       5.53524990       5.45751606        5       0.00741815      -0.00104276      -0.00006143
In       1.68599113      -7.06834356      12.73420414        5       0.00204717       0.00289684       0.00010992
In      10.59807754      -7.06834356      12.73420414        5       0.00216174       0.00268056      -0.00021468
In      -1.28470434       1.33405208      12.73420414        5       0.00212976       0.00272462       0.00003730
In       7.62738207       1.33405208      12.73420414        5       0.00214411       0.00291865      -0.00013509
In      -1.28470433       1.33405208       5.45751606        6       0.01275595      -0.00840069      -0.00164374
In       7.62738207       1.33405208       5.45751606        6       0.00275045       0.00290663       0.00007996
In      -4.25539980       9.73644772       5.45751606        6       0.00187469       0.00250850       0.00000908
In       4.65668661       9.73644772       5.45751606        6       0.00201953       0.00285596      -0.00000005
In      -4.25539980      -2.86714574      12.73420414        6       0.00203844       0.00295994      -0.00004034
In       4.65668661      -2.86714574      12.73420414        6       0.00218815       0.00275153       0.00005218
In      -7.22609527       5.53524990      12.73420414        6       0.00209017       0.00273817      -0.00005962
In       1.68599114       5.53524990      12.73420414        6       0.00205278       0.00296714       0.00005934
In      -1.68599114       7.06834357       1.81917202        7      -0.00210008      -0.00250827      -0.00041896
In       7.22609526       7.06834357       1.81917202        7      -0.00200538      -0.00288810       0.00010695
In      -4.65668661      15.47073921       1.81917202        7      -0.00224189      -0.00281962      -0.00000960
In       4.25539980      15.47073921       1.81917202        7      -0.00200272      -0.00284771       0.00000069
In      -4.65668661       2.86714575       9.09586010        7      -0.00620152      -0.00469809      -0.00244359
In       4.25539980       2.86714575       9.09586010        7      -0.00173042      -0.00279623       0.00016485
In      -7.62738208      11.26954139       9.09586010        7      -0.00207552      -0.00281597       0.00001946
In       1.28470433      11.26954139       9.09586010        7      -0.00201929      -0.00285584      -0.00000054
In       4.25539980       0.14187631       3.88408101        8      -0.00173020       0.00132264       0.00252336
In      13.16748620       0.14187631       3.88408101        8      -0.00619361       0.00364665       0.00239777
In       1.28470433       8.54427195       3.88408101        8      -0.00224241       0.00143405       0.00258083
In      10.19679074       8.54427195       3.88408101        8      -0.00200270       0.00136992       0.00222970
In       1.28470433      -4.05932151      11.16076909        8      -0.00201931       0.00142741       0.00247374
In      10.19679074      -4.05932151      11.16076909        8      -0.00207583       0.00151982       0.00246116
In      -1.68599114       4.34307413      11.16076909        8      -0.00209941       0.00130977       0.00283327
In       7.22609527       4.34307413      11.16076909        8      -0.00200403       0.00131606       0.00248905
In       7.42673866       4.20119782      -0.00000000        9       0.00000604      -0.00010175       0.00003587
In      16.33882507       4.20119782      -0.00000000        9      -0.00000877       0.00003592      -0.00018955
In       4.45604320      12.60359346      -0.00000000        9      -0.00001651      -0.00007223       0.00007884
In      13.36812960      12.60359346      -0.00000000        9      -0.00000003       0.00000079      -0.00000039
In       4.45604320       0.00000000       7.27668808        9       0.00029765      -0.00008093      -0.00000780
In      13.36812960       0.00000000       7.27668808        9      -0.00578788       0.00074466       0.00121949
In       1.48534773       8.40239564       7.27668808        9      -0.00007173       0.00011458      -0.00013563
In      10.39743413       8.40239564       7.27668808        9      -0.00006799       0.00024172       0.00004510
In       4.25539980       6.44367304       0.24573697       10      -0.00198664       0.00144320       0.00244903
In      13.16748620       6.44367304       0.24573697       10      -0.00222446       0.00112636       0.00306011
In       1.28470433      14.84606868       0.24573697       10      -0.00195601       0.00146949       0.00255932
In      10.19679074      14.84606868       0.24573697       10      -0.00186970       0.00145675       0.00235372
In       1.28470433       2.24247522       7.52242505       10       0.00071452       0.00047109       0.00404177
In      10.19679074       2.24247522       7.52242505       10       0.00554450       0.00146305      -0.00113979
In      -1.68599114      10.64487086       7.52242505       10      -0.00182430       0.00165456       0.00242260
In       7.22609527      10.64487086       7.52242505       10      -0.00200829       0.00143331       0.00250267
In      -1.28470433      -2.24247522       7.03095110       11       0.00213578      -0.00175403      -0.00218640
In       7.62738207      -2.24247522       7.03095110       11       0.00194257      -0.00136929      -0.00233855
In      -4.25539980       6.15992042       7.03095110       11      -0.00262226       0.00016327      -0.00385640
In       4.65668661       6.15992042       7.03095110       11       0.00228393      -0.00145159      -0.00230980
In      -4.25539980      -6.44367304      14.30763918       11       0.00198153      -0.00149384      -0.00256985
In       4.65668661      -6.44367304      14.30763918       11       0.00207436      -0.00119051      -0.00231091
In      -7.22609527       1.95872260      14.30763918       11       0.00200206      -0.00145772      -0.00254695
In       1.68599114       1.95872260      14.30763918       11       0.00201993      -0.00142788      -0.00247304
In       4.25539980       2.86714575       1.81917202       12      -0.00170669      -0.00279202      -0.00016628
In      13.16748620       2.86714575       1.81917202       12      -0.00327600      -0.00325938       0.00379869
In       1.28470433      11.26954139       1.81917202       12      -0.00202040      -0.00285671      -0.00000357
In      10.19679074      11.26954139       1.81917202       12      -0.00201990      -0.00287482      -0.00001161
In       1.28470433      -1.33405207       9.09586010       12      -0.00233802      -0.00277189       0.00010874
In      10.19679074      -1.33405207       9.09586010       12      -0.00201878      -0.00274272       0.00019725
In      -1.68599114       7.06834357       9.09586010       12      -0.00193090      -0.00095714       0.00110717
In       7.22609527       7.06834357       9.09586010       12      -0.00209314      -0.00287956      -0.00013732
In       1.68599113       5.10962097       2.06490899       13       0.00228791      -0.00137666       0.00208983
In      10.59807753       5.10962097       2.06490899       13       0.00301888      -0.00219788       0.00359399
In      -1.28470434      13.51201661       2.06490899       13       0.00201970      -0.00142814       0.00247359
In       7.62738207      13.51201661       2.06490899       13       0.00192385      -0.00163530       0.00238812
In      -1.28470434       0.90842315       9.34159707       13       0.00262826      -0.00236917       0.00389161
In       7.62738207       0.90842315       9.34159707       13       0.00229138      -0.00150752       0.00237532
In      -4.25539981       9.31081879       9.34159707       13       0.00197465      -0.00148803       0.00249213
In       4.65668660       9.31081879       9.34159707       13       0.00201970      -0.00142814       0.00247359
In       1.48534773       8.40239564      -0.00000000       14       0.00002697       0.00002361      -0.00008279
In      10.39743414       8.40239564      -0.00000000       14       0.00020369      -0.00002087       0.00016936
In      -1.48534774      16.80479128      -0.00000000       14       0.00000753       0.00000332       0.00000612
In       7.42673867      16.80479128      -0.00000000       14      -0.00012519       0.00014836       0.00012333
In      -1.48534774       4.20119782       7.27668808       14       0.00915991       0.00663278       0.00946376
In       7.42673867       4.20119782       7.27668808       14      -0.00004271       0.00003295       0.00005710
In      -4.45604321      12.60359346       7.27668808       14       0.00003660      -0.00008575      -0.00004417
In       4.45604320      12.60359346       7.27668808       14       0.00009926       0.00013331       0.00004291
In       1.48534773       2.10059891       3.63834404       15       0.00120850      -0.00017289      -0.00113177
In      10.39743413       2.10059891       3.63834404       15       0.00636613       0.00161237       0.00351754
In      -1.48534774      10.50299455       3.63834404       15       0.00023193       0.00022916      -0.00002222
In       7.42673867      10.50299455       3.63834404       15       0.00006019      -0.00008905      -0.00002393
In      -1.48534774      -2.10059891      10.91503212       15       0.00010051       0.00005616       0.00013192
In       7.42673867      -2.10059891      10.91503212       15       0.00009468       0.00002364      -0.00007774
In      -4.45604321       6.30179673      10.91503212       15      -0.00014817       0.00009621       0.00001806
In       4.45604320       6.30179673      10.91503212       15       0.00006521       0.00002495       0.00004261
O        0.87517571       4.20176968       3.95946557       16      -0.00371847      -0.00718957       0.00244336
O        9.78726211       4.20176968       3.95946557       16      -0.00151081      -0.00635488       0.00043155
O       -2.09551976      12.60416532       3.95946557       16      -0.00034884      -0.00631926       0.00091544
O        6.81656665      12.60416532       3.95946557       16      -0.00025729      -0.00625185       0.00099135
O       -2.09551976       0.00057186      11.23615365       16      -0.00040806      -0.00632444       0.00095487
O        6.81656665       0.00057186      11.23615365       16      -0.00037240      -0.00633214       0.00097401
O       -5.06621523       8.40296750      11.23615365       16      -0.00027254      -0.00636660       0.00094330
O        3.84587118       8.40296750      11.23615365       16      -0.00034958      -0.00629483       0.00092565
O       -2.09551975       3.42871185       5.29646004       17       0.02611584       0.00695424       0.00243855
O        6.81656665       3.42871185       5.29646004       17      -0.00034550       0.00393045       0.00511001
O       -5.06621522      11.83110749       5.29646004       17      -0.00036988       0.00390781       0.00502508
O        3.84587119      11.83110749       5.29646004       17      -0.00034266       0.00395096       0.00497810
O       -5.06621522      -0.77248597      12.57314812       17      -0.00036039       0.00394132       0.00504403
O        3.84587119      -0.77248597      12.57314812       17      -0.00036236       0.00393977       0.00501278
O       -8.03691069       7.62990967      12.57314812       17      -0.00032832       0.00392454       0.00495610
O        0.87517572       7.62990967      12.57314812       17      -0.00036112       0.00395704       0.00499350
O       -0.43604237       2.25528413       0.05220838       18      -0.00239837       0.00537633       0.00251282
O        8.47604403       2.25528413       0.05220838       18      -0.00241634       0.00529379       0.00258826
O       -3.40673784      10.65767977       0.05220838       18      -0.00234784       0.00536978       0.00256740
O        5.50534857      10.65767977       0.05220838       18      -0.00234013       0.00535608       0.00254599
O       -3.40673784      -1.94591369       7.32889646       18      -0.00209948       0.00549441       0.00222270
O        5.50534857      -1.94591369       7.32889646       18      -0.00237383       0.00539586       0.00253257
O       -6.37743331       6.45648195       7.32889646       18      -0.00267668       0.00627168       0.00377914
O        2.53465310       6.45648195       7.32889646       18      -0.00250510       0.00526254       0.00243151
O       -0.87517572      -0.77191412       1.97923754       19       0.00021795      -0.00263461       0.00570665
O        8.03691068      -0.77191412       1.97923754       19       0.00023646      -0.00231917       0.00585741
O       -3.84587119       7.63048152       1.97923754       19       0.00053437      -0.00232947       0.00578537
O        5.06621522       7.63048152       1.97923754       19       0.00030901      -0.00238440       0.00592969
O       -3.84587119      -4.97311194       9.25592562       19       0.00032234      -0.00229818       0.00588451
O        5.06621522      -4.97311194       9.25592562       19       0.00033849      -0.00237034       0.00592127
O       -6.81656666       3.42928370       9.25592562       19      -0.00063634      -0.00139992       0.00796801
O        2.09551975       3.42928370       9.25592562       19       0.00014829      -0.00226798       0.00569304
O        3.93112711       5.00325446       1.92702916       20       0.00383699       0.00385479       0.00335315
O       12.84321351       5.00325446       1.92702916       20       0.00429605       0.00442429       0.00274681
O        0.96043164      13.40565010       1.92702916       20       0.00383673       0.00383495       0.00336887
O        9.87251805      13.40565010       1.92702916       20       0.00375192       0.00391364       0.00343982
O        0.96043164       0.80205664       9.20371724       20       0.00403025       0.00377837       0.00348530
O        9.87251805       0.80205664       9.20371724       20       0.00198465       0.00292467       0.00484103
O       -2.01026383       9.20445228       9.20371724       20       0.00373807       0.00368935       0.00333522
O        6.90182258       9.20445228       9.20371724       20       0.00383546       0.00383554       0.00337194
O        2.01026382       2.93336993       1.65811600       21      -0.00384632      -0.00098408       0.00518415
O       10.92235022       2.93336993       1.65811600       21      -0.00523461      -0.00041497       0.00271142
O       -0.96043165      11.33576557       1.65811600       21      -0.00383401      -0.00097396       0.00500593
O        7.95165476      11.33576557       1.65811600       21      -0.00382911      -0.00099965       0.00500022
O       -0.96043165      -1.26782789       8.93480408       21      -0.00407171      -0.00101456       0.00506428
O        7.95165476      -1.26782789       8.93480408       21      -0.00380124      -0.00094670       0.00499227
O       -3.93112712       7.13456775       8.93480408       21      -0.00390156      -0.00155684       0.00502798
O        4.98095929       7.13456775       8.93480408       21      -0.00379125      -0.00105687       0.00495999
O        2.01026382       6.27108235       0.26891315       22      -0.00376500       0.00482483      -0.00163381
O       10.92235022       6.27108235       0.26891315       22      -0.00397452       0.00488063      -0.00173526
O       -0.96043165      14.67347799       0.26891315       22      -0.00382899       0.00482900      -0.00164258
O        7.95165476      14.67347799       0.26891315       22      -0.00374893       0.00482156      -0.00160877
O       -0.96043165       2.06988453       7.54560123       22      -0.00735418       0.00651238      -0.00454345
O        7.95165476       2.06988453       7.54560123       22      -0.00456974       0.00465474      -0.00133550
O       -3.93112712      10.47228017       7.54560123       22      -0.00380130       0.00473083      -0.00163340
O        4.98095929      10.47228017       7.54560123       22      -0.00381677       0.00486570      -0.00165692
O       -2.27164973       5.96114005       3.69055242       23      -0.00524039      -0.00088425       0.00358270
O        6.64043667       5.96114005       3.69055242       23      -0.00587807       0.00050337       0.00254264
O       -5.24234520      14.36353569       3.69055242       23      -0.00586501       0.00037004       0.00249314
O        3.66974121      14.36353569       3.69055242       23      -0.00594709       0.00048801       0.00261834
O       -5.24234520       1.75994223      10.96724050       23      -0.00569288       0.00046090       0.00332983
O        3.66974121       1.75994223      10.96724050       23      -0.00586929       0.00045666       0.00249224
O       -8.21304067      10.16233787      10.96724050       23      -0.00582252       0.00043936       0.00255194
O        0.69904574      10.16233787      10.96724050       23      -0.00586014       0.00037935       0.00252426
O        3.40673784       1.94591369       7.22447970       24       0.00211432      -0.00523102      -0.00256271
O       12.31882424       1.94591369       7.22447970       24       0.01476435      -0.00063851      -0.01087335
O        0.43604237      10.34830933       7.22447970       24       0.00237545      -0.00535709      -0.00252637
O        9.34812878      10.34830933       7.22447970       24       0.00241350      -0.00543935      -0.00252613
O        0.43604237      -2.25528413      14.50116778       24       0.00236444      -0.00536196      -0.00254413
O        9.34812878      -2.25528413      14.50116778       24       0.00236570      -0.00526065      -0.00265466
O       -2.53465310       6.14711151      14.50116778       24       0.00238332      -0.00536184      -0.00252264
O        6.37743331       6.14711151      14.50116778       24       0.00232652      -0.00535724      -0.00253385
O        5.24234520      -1.75994222       3.58613566       25       0.00580759      -0.00036273      -0.00250321
O       14.15443160      -1.75994222       3.58613566       25       0.00608503      -0.00015009      -0.00209000
O        2.27164973       6.64245342       3.58613566       25       0.00571864      -0.00052590      -0.00246954
O       11.18373614       6.64245342       3.58613566       25       0.00464653       0.00079782      -0.00374874
O        2.27164973      -5.96114004      10.86282374       25       0.00584295      -0.00042497      -0.00255364
O       11.18373614      -5.96114004      10.86282374       25       0.00584049      -0.00043235      -0.00258663
O       -0.69904574       2.44125560      10.86282374       25       0.00567387      -0.00046828      -0.00257605
O        8.21304067       2.44125560      10.86282374       25       0.00579055      -0.00040388      -0.00264462
O        6.37743331       3.27345476       1.71131487       26       0.00250723       0.00490509      -0.00328332
O       15.28951971       3.27345476       1.71131487       26       0.00280450       0.00483123      -0.00294642
O        3.40673784      11.67585040       1.71131487       26       0.00235558       0.00494995      -0.00333941
O       12.31882425      11.67585040       1.71131487       26       0.00232909       0.00489452      -0.00336751
O        3.40673784      -0.92774306       8.98800295       26       0.00229158       0.00494200      -0.00341657
O       12.31882425      -0.92774306       8.98800295       26       0.00250175       0.00398247      -0.00324560
O        0.43604237       7.47465258       8.98800295       26       0.00243537       0.00486606      -0.00336363
O        9.34812878       7.47465258       8.98800295       26       0.00227098       0.00476370      -0.00335648
O        3.66974121       2.31614104       3.90725719       27      -0.00592382       0.00206701      -0.00155616
O       12.58182761       2.31614104       3.90725719       27       0.00924473       0.00925854       0.01841067
O        0.69904574      10.71853668       3.90725719       27      -0.00581317       0.00198262      -0.00164660
O        9.61113215      10.71853668       3.90725719       27      -0.00580572       0.00203731      -0.00163708
O        0.69904574      -1.88505678      11.18394527       27      -0.00583270       0.00196931      -0.00164401
O        9.61113215      -1.88505678      11.18394527       27      -0.00584063       0.00195341      -0.00158100
O       -2.27164973       6.51733886      11.18394527       27      -0.00592466       0.00203287      -0.00154702
O        6.64043668       6.51733886      11.18394527       27      -0.00577949       0.00197424      -0.00166997
O        0.69904574       4.32631238       6.95556654       28      -0.00816519      -0.00270094      -0.00218887
O        9.61113214       4.32631238       6.95556654       28      -0.00705147      -0.00209821      -0.00035287
O       -2.27164973      12.72870802       6.95556654       28      -0.00583067      -0.00241362      -0.00090944
O        6.64043668      12.72870802       6.95556654       28      -0.00573389      -0.00243322      -0.00097087
O       -2.27164973       0.12511456      14.23225462       28      -0.00582465      -0.00241158      -0.00094741
O        6.64043668       0.12511456      14.23225462       28      -0.00579678      -0.00239392      -0.00099741
O       -5.24234520       8.52751020      14.23225462       28      -0.00586000      -0.00246081      -0.00096299
O        3.66974121       8.52751020      14.23225462       28      -0.00589292      -0.00249957      -0.00107337
O        2.27164973      -0.12511456       0.32112153       29       0.00587194       0.00240076       0.00089178
O       11.18373613      -0.12511456       0.32112153       29       0.00573805       0.00239296       0.00077956
O       -0.69904574       8.27728108       0.32112153       29       0.00583072       0.00241824       0.00090993
O        8.21304067       8.27728108       0.32112153       29       0.00583140       0.00238789       0.00091313
O       -0.69904574      -4.32631238       7.59780961       29       0.00582027       0.00238505       0.00091146
O        8.21304067      -4.32631238       7.59780961       29       0.00583459       0.00241366       0.00089271
O       -3.66974121       4.07608326       7.59780961       29       0.01402823       0.00431445       0.00417112
O        5.24234520       4.07608326       7.59780961       29       0.00596043       0.00235335       0.00077321
O       -3.40673784       0.92774306       5.56537320       30       0.00612047      -0.01060886       0.00223013
O        5.50534856       0.92774306       5.56537320       30      -0.00226885      -0.00486591       0.00336749
O       -6.37743331       9.33013870       5.56537320       30      -0.00245550      -0.00484668       0.00341258
O        2.53465310       9.33013870       5.56537320       30      -0.00232608      -0.00493512       0.00336395
O       -6.37743331      -3.27345476      12.84206128       30      -0.00228100      -0.00491695       0.00334327
O        2.53465310      -3.27345476      12.84206128       30      -0.00233473      -0.00488003       0.00339015
O       -9.34812878       5.12894088      12.84206128       30      -0.00231452      -0.00489349       0.00333185
O       -0.43604237       5.12894088      12.84206128       30      -0.00234677      -0.00488114       0.00332266
O        5.06621522       0.77248598       1.98022803       31       0.00020107      -0.00394070      -0.00496576
O       13.97830162       0.77248598       1.98022803       31       0.00195226      -0.00512757      -0.00622323