320
Lattice="17.8241728087827 1.3970087638928546e-09 -1.171352526606148e-15 -5.941390937578009 16.80479128237581 -2.4196927991350975e-09 -5.941390935602339 -8.402395639790903 14.553376157445857" Properties=species:S:1:pos:R:3:spacegroup_kinds:I:1:forces:R:3 spacegroup="P 1" unit_cell=conventional occupancy="_JSON {\"0\": {\"In\": 1}, \"1\": {\"In\": 1}, \"2\": {\"In\": 1}, \"3\": {\"In\": 1}, \"4\": {\"In\": 1}, \"5\": {\"In\": 1}, \"6\": {\"In\": 1}, \"7\": {\"In\": 1}, \"8\": {\"In\": 1}, \"9\": {\"In\": 1}, \"10\": {\"In\": 1}, \"11\": {\"In\": 1}, \"12\": {\"In\": 1}, \"13\": {\"In\": 1}, \"14\": {\"In\": 1}, \"15\": {\"In\": 1}, \"16\": {\"O\": 1}, \"17\": {\"O\": 1}, \"18\": {\"O\": 1}, \"19\": {\"O\": 1}, \"20\": {\"O\": 1}, \"21\": {\"O\": 1}, \"22\": {\"O\": 1}, \"23\": {\"O\": 1}, \"24\": {\"O\": 1}, \"25\": {\"O\": 1}, \"26\": {\"O\": 1}, \"27\": {\"O\": 1}, \"28\": {\"O\": 1}, \"29\": {\"O\": 1}, \"30\": {\"O\": 1}, \"31\": {\"O\": 1}, \"32\": {\"O\": 1}, \"33\": {\"O\": 1}, \"34\": {\"O\": 1}, \"35\": {\"O\": 1}, \"36\": {\"O\": 1}, \"37\": {\"O\": 1}, \"38\": {\"O\": 1}, \"39\": {\"O\": 1}}" n_minim_iter=7 energy=-361215.24553450244 stress="0.00015190964077042377 9.847830261769704e-06 7.70374468133373e-06 9.847830261769704e-06 0.00014446242611369802 -6.107469817842187e-06 7.70374468133373e-06 -6.107469817842187e-06 0.0001585791756178576" free_energy=-45151.90573962641 pbc="T T T"
In      -4.25539980       3.00902206       5.70325303        0       0.00171657      -0.00133911       0.00261369
In       4.65668660       3.00902206       5.70325303        0       0.00166061      -0.00241423       0.00167465
In      -7.22609527      11.41141770       5.70325303        0       0.00203119      -0.00145449       0.00247046
In       1.68599114      11.41141770       5.70325303        0       0.00199793      -0.00122718       0.00243007
In      -7.22609527      -1.19217576      12.97994111        0       0.00201688      -0.00138903       0.00265842
In       1.68599114      -1.19217576      12.97994111        0       0.00203537      -0.00142008       0.00248908
In     -10.19679074       7.21021988      12.97994111        0       0.00210216      -0.00126214       0.00269633
In      -1.28470433       7.21021988      12.97994111        0       0.00200735      -0.00143116       0.00247783
In       7.22609527       1.19217577       1.57343504        1      -0.00227849       0.00131994      -0.00232761
In      16.13818167       1.19217577       1.57343504        1      -0.00024900       0.00191225      -0.00017508
In       4.25539980       9.59457141       1.57343504        1      -0.00209067       0.00141632      -0.00241463
In      13.16748621       9.59457141       1.57343504        1      -0.00198547       0.00144710      -0.00264942
In       4.25539980      -3.00902205       8.85012312        1      -0.00204825       0.00145009      -0.00250706
In      13.16748621      -3.00902205       8.85012312        1      -0.00199647       0.00145031      -0.00249845
In       1.28470433       5.39337359       8.85012312        1      -0.00253004       0.00117689      -0.00198728
In      10.19679074       5.39337359       8.85012312        1      -0.00200646       0.00141753      -0.00247639
In       1.28470433      -0.90842314       5.21177908        2      -0.00156405       0.00407416      -0.00360272
In      10.19679073      -0.90842314       5.21177908        2      -0.00203820       0.00142145      -0.00247992
In      -1.68599114       7.49397250       5.21177908        2      -0.00308078       0.00233562      -0.00232468
In       7.22609527       7.49397250       5.21177908        2      -0.00190300       0.00136629      -0.00251160
In      -1.68599114      -5.10962096      12.48846716        2      -0.00207885       0.00147258      -0.00237070
In       7.22609527      -5.10962096      12.48846716        2      -0.00198319       0.00140568      -0.00247335
In      -4.65668661       3.29277468      12.48846716        2      -0.00207188       0.00143855      -0.00246061
In       4.25539980       3.29277468      12.48846716        2      -0.00202819       0.00141830      -0.00252733
In       7.42673866      -2.10059891       3.63834404        3      -0.00004800      -0.00000334       0.00000046
In      16.33882507      -2.10059891       3.63834404        3      -0.00005973      -0.00014675      -0.00009337
In       4.45604320       6.30179673       3.63834404        3       0.00218571      -0.00121901      -0.00023288
In      13.36812960       6.30179673       3.63834404        3      -0.00107399       0.00043113       0.00009733
In       4.45604320      -6.30179673      10.91503212        3      -0.00002330       0.00001524       0.00003909
In      13.36812960      -6.30179673      10.91503212        3      -0.00004221       0.00003753      -0.00006672
In       1.48534773       2.10059891      10.91503212        3      -0.00002535      -0.00001293      -0.00004337
In      10.39743413       2.10059891      10.91503212        3       0.00002285      -0.00003975       0.00008587
In      -1.28470433       4.05932151       3.39260706        4       0.00981039      -0.00635172      -0.00223816
In       7.62738207       4.05932151       3.39260706        4       0.00209703      -0.00139805      -0.00242176
In      -4.25539980      12.46171715       3.39260706        4       0.00200977      -0.00160803      -0.00249182
In       4.65668661      12.46171715       3.39260706        4       0.00197494      -0.00146301      -0.00243113
In      -4.25539980      -0.14187631      10.66929514        4       0.00201075      -0.00149318      -0.00245361
In       4.65668661      -0.14187631      10.66929514        4       0.00200195      -0.00141646      -0.00248708
In      -7.22609527       8.26051933      10.66929514        4       0.00201845      -0.00143565      -0.00248363
In       1.68599114       8.26051933      10.66929514        4       0.00204452      -0.00137441      -0.00227738
In       4.65668660      -2.86714574       5.45751606        5       0.00195103       0.00292820       0.00003079
In      13.56877300      -2.86714574       5.45751606        5       0.00204926       0.00286956      -0.00002089
In       1.68599113       5.53524990       5.45751606        5      -0.00519757      -0.01567870      -0.01507590
In      10.59807754       5.53524990       5.45751606        5       0.00196668       0.00284803       0.00002864
In       1.68599113      -7.06834356      12.73420414        5       0.00206779       0.00285485      -0.00005055
In      10.59807754      -7.06834356      12.73420414        5       0.00204047       0.00296396       0.00015943
In      -1.28470434       1.33405208      12.73420414        5       0.00206403       0.00284532       0.00002258
In       7.62738207       1.33405208      12.73420414        5       0.00207239       0.00281919       0.00003845
In      -1.28470433       1.33405208       5.45751606        6       0.00438711       0.00330738      -0.00220815
In       7.62738207       1.33405208       5.45751606        6       0.00184398       0.00280411      -0.00005693
In      -4.25539980       9.73644772       5.45751606        6       0.00184021       0.00302943       0.00015353
In       4.65668661       9.73644772       5.45751606        6       0.00209526       0.00287066      -0.00008093
In      -4.25539980      -2.86714574      12.73420414        6       0.00195277       0.00272303      -0.00020503
In       4.65668661      -2.86714574      12.73420414        6       0.00199911       0.00285363      -0.00000793
In      -7.22609527       5.53524990      12.73420414        6       0.00208800       0.00285835      -0.00000702
In       1.68599114       5.53524990      12.73420414        6       0.00203044       0.00288852       0.00005675
In      -1.68599114       7.06834357       1.81917202        7      -0.00356104      -0.00208175      -0.00067070
In       7.22609526       7.06834357       1.81917202        7      -0.00185642      -0.00285056       0.00001870
In      -4.65668661      15.47073921       1.81917202        7      -0.00183139      -0.00134997       0.00069779
In       4.25539980      15.47073921       1.81917202        7      -0.00205186      -0.00284397       0.00000022
In      -4.65668661       2.86714575       9.09586010        7      -0.00198612      -0.00293761       0.00003902
In       4.25539980       2.86714575       9.09586010        7      -0.00201997      -0.00299012      -0.00023173
In      -7.62738208      11.26954139       9.09586010        7      -0.00202813      -0.00286534       0.00004533
In       1.28470433      11.26954139       9.09586010        7      -0.00196998      -0.00298366      -0.00009610
In       4.25539980       0.14187631       3.88408101        8      -0.00476733       0.00410084       0.00209818
In      13.16748620       0.14187631       3.88408101        8      -0.00201026       0.00154471       0.00244813
In       1.28470433       8.54427195       3.88408101        8      -0.00304890       0.00387619       0.00266635
In      10.19679074       8.54427195       3.88408101        8      -0.00203382       0.00147138       0.00247231
In       1.28470433      -4.05932151      11.16076909        8      -0.00203546       0.00141391       0.00248718
In      10.19679074      -4.05932151      11.16076909        8      -0.00204673       0.00135119       0.00248951
In      -1.68599114       4.34307413      11.16076909        8      -0.00201732       0.00132439       0.00249127
In       7.22609527       4.34307413      11.16076909        8      -0.00200903       0.00144772       0.00251586
In       7.42673866       4.20119782      -0.00000000        9       0.00000781       0.00000834       0.00002280
In      16.33882507       4.20119782      -0.00000000        9      -0.00092784      -0.00114868      -0.00191054
In       4.45604320      12.60359346      -0.00000000        9      -0.00004293      -0.00001807       0.00001166
In      13.36812960      12.60359346      -0.00000000        9       0.00000083      -0.00008510      -0.00000836
In       4.45604320       0.00000000       7.27668808        9       0.00002943      -0.00008052       0.00003442
In      13.36812960       0.00000000       7.27668808        9      -0.00002001       0.00005781      -0.00001508
In       1.48534773       8.40239564       7.27668808        9       0.00041028       0.00142953       0.00116279
In      10.39743413       8.40239564       7.27668808        9       0.00001886      -0.00000214      -0.00000617
In       4.25539980       6.44367304       0.24573697       10      -0.00173566       0.00138461       0.00264456
In      13.16748620       6.44367304       0.24573697       10      -0.00187983       0.00160212       0.00259945
In       1.28470433      14.84606868       0.24573697       10      -0.00207253       0.00145031       0.00246400
In      10.19679074      14.84606868       0.24573697       10      -0.00198444       0.00147549       0.00260264
In       1.28470433       2.24247522       7.52242505       10      -0.00195956       0.00082392       0.00109715
In      10.19679074       2.24247522       7.52242505       10      -0.00206531       0.00144318       0.00247637
In      -1.68599114      10.64487086       7.52242505       10      -0.00213910       0.00143588       0.00245762
In       7.22609527      10.64487086       7.52242505       10      -0.00194384       0.00144633       0.00249228
In      -1.28470433      -2.24247522       7.03095110       11       0.00209044      -0.00136337      -0.00258625
In       7.62738207      -2.24247522       7.03095110       11       0.00201756      -0.00140527      -0.00245289
In      -4.25539980       6.15992042       7.03095110       11       0.00198201      -0.00127723      -0.00257472
In       4.65668661       6.15992042       7.03095110       11       0.00269006      -0.00145835      -0.00259106
In      -4.25539980      -6.44367304      14.30763918       11       0.00206739      -0.00016709       0.00032838
In       4.65668661      -6.44367304      14.30763918       11       0.00204027      -0.00143377      -0.00246793
In      -7.22609527       1.95872260      14.30763918       11       0.00195020      -0.00133487      -0.00240108
In       1.68599114       1.95872260      14.30763918       11       0.00200692      -0.00144316      -0.00246422
In       4.25539980       2.86714575       1.81917202       12      -0.00372366      -0.00321204       0.00071907
In      13.16748620       2.86714575       1.81917202       12      -0.00218234      -0.00294230       0.00000015
In       1.28470433      11.26954139       1.81917202       12      -0.00205669      -0.00293029       0.00006752
In      10.19679074      11.26954139       1.81917202       12      -0.00202882      -0.00290459       0.00000839
In       1.28470433      -1.33405207       9.09586010       12      -0.00201918      -0.00271922      -0.00022270
In      10.19679074      -1.33405207       9.09586010       12      -0.00200755      -0.00286095      -0.00000582
In      -1.68599114       7.06834357       9.09586010       12      -0.00192285      -0.00276361      -0.00018086
In       7.22609527       7.06834357       9.09586010       12      -0.00207299      -0.00285652      -0.00003789
In       1.68599113       5.10962097       2.06490899       13       0.00208175      -0.01003797       0.00608574
In      10.59807753       5.10962097       2.06490899       13       0.00195690      -0.00143982       0.00246394
In      -1.28470434      13.51201661       2.06490899       13       0.00207641      -0.00154686       0.00248976
In       7.62738207      13.51201661       2.06490899       13       0.00198958      -0.00144300       0.00251559
In      -1.28470434       0.90842315       9.34159707       13       0.00191493      -0.00136659       0.00255207
In       7.62738207       0.90842315       9.34159707       13       0.00202578      -0.00142721       0.00249189
In      -4.25539981       9.31081879       9.34159707       13       0.00205275      -0.00145876       0.00243956
In       4.65668660       9.31081879       9.34159707       13       0.00201064      -0.00143142       0.00244321
In       1.48534773       8.40239564      -0.00000000       14       0.00008272       0.00052975      -0.00015358
In      10.39743414       8.40239564      -0.00000000       14      -0.00000860       0.00000207       0.00001791
In      -1.48534774      16.80479128      -0.00000000       14       0.00001020      -0.00012730      -0.00005859
In       7.42673867      16.80479128      -0.00000000       14      -0.00005035       0.00008445      -0.00003654
In      -1.48534774       4.20119782       7.27668808       14       0.00013130      -0.00044718       0.00024961
In       7.42673867       4.20119782       7.27668808       14      -0.00003199      -0.00001650      -0.00002183
In      -4.45604321      12.60359346       7.27668808       14       0.00002347       0.00000928      -0.00004087
In       4.45604320      12.60359346       7.27668808       14      -0.00002007       0.00000618      -0.00001580
In       1.48534773       2.10059891       3.63834404       15       0.00998451      -0.03383268      -0.00523771
In      10.39743413       2.10059891       3.63834404       15      -0.00000562       0.00002529      -0.00000507
In      -1.48534774      10.50299455       3.63834404       15       0.00000201      -0.00016315       0.00000397
In       7.42673867      10.50299455       3.63834404       15       0.00003915       0.00003966      -0.00002856
In      -1.48534774      -2.10059891      10.91503212       15      -0.00006291       0.00002272       0.00007906
In       7.42673867      -2.10059891      10.91503212       15      -0.00003073       0.00003174      -0.00003230
In      -4.45604321       6.30179673      10.91503212       15      -0.00000817       0.00002027       0.00001190
In       4.45604320       6.30179673      10.91503212       15      -0.00003351       0.00001238      -0.00005661
O        0.87850904       4.19234159       3.95946557       16      -0.00932481       0.08476225       0.01934099
O        9.78726211       4.20176968       3.95946557       16      -0.00031559      -0.00630025       0.00091176
O       -2.09551976      12.60416532       3.95946557       16      -0.00034912      -0.00633444       0.00085699
O        6.81656665      12.60416532       3.95946557       16      -0.00023636      -0.00617561       0.00089965
O       -2.09551976       0.00057186      11.23615365       16      -0.00031757      -0.00632708       0.00086802
O        6.81656665       0.00057186      11.23615365       16      -0.00035022      -0.00632615       0.00090107
O       -5.06621523       8.40296750      11.23615365       16      -0.00034172      -0.00632000       0.00094355
O        3.84587118       8.40296750      11.23615365       16      -0.00038826      -0.00628093       0.00094617
O       -2.09551975       3.42871185       5.29646004       17       0.00040480       0.00487725       0.00432076
O        6.81656665       3.42871185       5.29646004       17       0.00023087       0.00397213       0.00498028
O       -5.06621522      11.83110749       5.29646004       17      -0.00030590       0.00392471       0.00497925
O        3.84587119      11.83110749       5.29646004       17      -0.00037241       0.00378997       0.00498383
O       -5.06621522      -0.77248597      12.57314812       17      -0.00029702       0.00412704       0.00493994
O        3.84587119      -0.77248597      12.57314812       17      -0.00034270       0.00395470       0.00499306
O       -8.03691069       7.62990967      12.57314812       17      -0.00024013       0.00380713       0.00484898
O        0.87517572       7.62990967      12.57314812       17      -0.00032852       0.00385135       0.00493298
O       -0.43604237       2.25528413       0.05220838       18      -0.00273317       0.00523678       0.00148297
O        8.47604403       2.25528413       0.05220838       18      -0.00222576       0.00536706       0.00250982
O       -3.40673784      10.65767977       0.05220838       18      -0.00225225       0.00520822       0.00256865
O        5.50534857      10.65767977       0.05220838       18      -0.00243807       0.00527649       0.00261249
O       -3.40673784      -1.94591369       7.32889646       18      -0.00245133       0.00526489       0.00264876
O        5.50534857      -1.94591369       7.32889646       18      -0.00226737       0.00528268       0.00274959
O       -6.37743331       6.45648195       7.32889646       18      -0.00228016       0.00538610       0.00250006
O        2.53465310       6.45648195       7.32889646       18      -0.00241396       0.00534948       0.00231876
O       -0.87517572      -0.77191412       1.97923754       19       0.00060296      -0.00240231       0.00569482
O        8.03691068      -0.77191412       1.97923754       19       0.00046023      -0.00237709       0.00583869
O       -3.84587119       7.63048152       1.97923754       19       0.00040221      -0.00258691       0.00597863
O        5.06621522       7.63048152       1.97923754       19      -0.00007324      -0.00248028       0.00605230
O       -3.84587119      -4.97311194       9.25592562       19       0.00035469      -0.00233539       0.00585933
O        5.06621522      -4.97311194       9.25592562       19       0.00038946      -0.00241095       0.00590141
O       -6.81656666       3.42928370       9.25592562       19       0.00035196      -0.00236921       0.00589964
O        2.09551975       3.42928370       9.25592562       19       0.00041011      -0.00241545       0.00590037
O        3.93112711       5.00325446       1.92702916       20       0.00358598       0.00482333       0.00325079
O       12.84321351       5.00325446       1.92702916       20       0.00388815       0.00388502       0.00350251
O        0.96043164      13.40565010       1.92702916       20       0.00383921       0.00361573       0.00327123
O        9.87251805      13.40565010       1.92702916       20       0.00375712       0.00377868       0.00327524
O        0.96043164       0.80205664       9.20371724       20       0.00377024       0.00370442       0.00366139
O        9.87251805       0.80205664       9.20371724       20       0.00381938       0.00384469       0.00333058
O       -2.01026383       9.20445228       9.20371724       20       0.00374917       0.00400029       0.00362052
O        6.90182258       9.20445228       9.20371724       20       0.00381164       0.00372400       0.00322098
O        2.01026382       2.93336993       1.65811600       21       0.00087971      -0.00489140      -0.00837773
O       10.92235022       2.93336993       1.65811600       21      -0.00378504      -0.00097876       0.00501473
O       -0.96043165      11.33576557       1.65811600       21      -0.00385473      -0.00072789       0.00480823
O        7.95165476      11.33576557       1.65811600       21      -0.00382951      -0.00100217       0.00500002
O       -0.96043165      -1.26782789       8.93480408       21      -0.00366883      -0.00078887       0.00482556
O        7.95165476      -1.26782789       8.93480408       21      -0.00384042      -0.00099200       0.00500783
O       -3.93112712       7.13456775       8.93480408       21      -0.00390964      -0.00093436       0.00508382
O        4.98095929       7.13456775       8.93480408       21      -0.00364814      -0.00087354       0.00510329
O        2.01026382       6.27108235       0.26891315       22      -0.00377210       0.00485446      -0.00169833
O       10.92235022       6.27108235       0.26891315       22      -0.00367872       0.00483787      -0.00159736
O       -0.96043165      14.67347799       0.26891315       22      -0.00383094       0.00472943      -0.00173942
O        7.95165476      14.67347799       0.26891315       22      -0.00391928       0.00476753      -0.00168478
O       -0.96043165       2.06988453       7.54560123       22      -0.00438492       0.00465087      -0.00084909
O        7.95165476       2.06988453       7.54560123       22      -0.00368087       0.00483021      -0.00155700
O       -3.93112712      10.47228017       7.54560123       22      -0.00368718       0.00470183      -0.00175382
O        4.98095929      10.47228017       7.54560123       22      -0.00393214       0.00480175      -0.00166517
O       -2.27164973       5.96114005       3.69055242       23      -0.00415466      -0.00196094       0.00189297
O        6.64043667       5.96114005       3.69055242       23      -0.00543768       0.00035481       0.00252847
O       -5.24234520      14.36353569       3.69055242       23      -0.00561759       0.00103859       0.00278251
O        3.66974121      14.36353569       3.69055242       23      -0.00583448       0.00050933       0.00255569
O       -5.24234520       1.75994223      10.96724050       23      -0.00593260       0.00041383       0.00258832
O        3.66974121       1.75994223      10.96724050       23      -0.00579934       0.00037670       0.00250728
O       -8.21304067      10.16233787      10.96724050       23      -0.00579300       0.00041399       0.00244922
O        0.69904574      10.16233787      10.96724050       23      -0.00580185       0.00042472       0.00254893
O        3.40673784       1.94591369       7.22447970       24       0.00257690      -0.00502589      -0.00212589
O       12.31882424       1.94591369       7.22447970       24       0.00238296      -0.00532607      -0.00256721
O        0.43604237      10.34830933       7.22447970       24       0.00236661      -0.00526427      -0.00260304
O        9.34812878      10.34830933       7.22447970       24       0.00231602      -0.00537199      -0.00256450
O        0.43604237      -2.25528413      14.50116778       24       0.00239696      -0.00524732      -0.00260601
O        9.34812878      -2.25528413      14.50116778       24       0.00326042      -0.00526050      -0.00193945
O       -2.53465310       6.14711151      14.50116778       24       0.00235128      -0.00538070      -0.00256108
O        6.37743331       6.14711151      14.50116778       24       0.00220609      -0.00545175      -0.00278362
O        5.24234520      -1.75994222       3.58613566       25       0.00560144      -0.00015200      -0.00251079
O       14.15443160      -1.75994222       3.58613566       25       0.00576975      -0.00035351      -0.00262886
O        2.27164973       6.64245342       3.58613566       25      -0.00474133      -0.01317888      -0.00028780
O       11.18373614       6.64245342       3.58613566       25       0.00589323      -0.00036054      -0.00253876
O        2.27164973      -5.96114004      10.86282374       25       0.00583284      -0.00041370      -0.00254739
O       11.18373614      -5.96114004      10.86282374       25       0.00583445      -0.00045768      -0.00248534
O       -0.69904574       2.44125560      10.86282374       25       0.00577824      -0.00041884      -0.00264787
O        8.21304067       2.44125560      10.86282374       25       0.00583700      -0.00043088      -0.00254392
O        6.37743331       3.27345476       1.71131487       26       0.00252578       0.00494796      -0.00344520
O       15.28951971       3.27345476       1.71131487       26       0.00200705       0.00560139      -0.00252839
O        3.40673784      11.67585040       1.71131487       26       0.00231534       0.00480965      -0.00329140
O       12.31882425      11.67585040       1.71131487       26       0.00239699       0.00479805      -0.00336820
O        3.40673784      -0.92774306       8.98800295       26       0.00225809       0.00506268      -0.00359659
O       12.31882425      -0.92774306       8.98800295       26       0.00233410       0.00485404      -0.00336099
O        0.43604237       7.47465258       8.98800295       26       0.00223866       0.00465782      -0.00372540
O        9.34812878       7.47465258       8.98800295       26       0.00230512       0.00486865      -0.00336961
O        3.66974121       2.31614104       3.90725719       27       0.00073253       0.00036828      -0.00153379
O       12.58182761       2.31614104       3.90725719       27      -0.00561876       0.00196220      -0.00170047
O        0.69904574      10.71853668       3.90725719       27      -0.00546668       0.00227409      -0.00148001
O        9.61113215      10.71853668       3.90725719       27      -0.00580591       0.00204927      -0.00164595
O        0.69904574      -1.88505678      11.18394527       27      -0.00581512       0.00202137      -0.00166578
O        9.61113215      -1.88505678      11.18394527       27      -0.00581509       0.00202588      -0.00152281
O       -2.27164973       6.51733886      11.18394527       27      -0.00580193       0.00198281      -0.00160223
O        6.64043668       6.51733886      11.18394527       27      -0.00589091       0.00195996      -0.00167662
O        0.69904574       4.32631238       6.95556654       28      -0.00543525       0.00045108      -0.00226972
O        9.61113214       4.32631238       6.95556654       28      -0.00577615      -0.00245552      -0.00090494
O       -2.27164973      12.72870802       6.95556654       28      -0.00577533      -0.00247091      -0.00087290
O        6.64043668      12.72870802       6.95556654       28      -0.00580454      -0.00236575      -0.00091319
O       -2.27164973       0.12511456      14.23225462       28      -0.00595332      -0.00236077      -0.00099122
O        6.64043668       0.12511456      14.23225462       28      -0.00568945      -0.00250590      -0.00083366
O       -5.24234520       8.52751020      14.23225462       28      -0.00568934      -0.00248400      -0.00102674
O        3.66974121       8.52751020      14.23225462       28      -0.00595333      -0.00240136      -0.00099095
O        2.27164973      -0.12511456       0.32112153       29       0.00586242       0.00187485       0.00096002
O       11.18373613      -0.12511456       0.32112153       29       0.00578518       0.00241107       0.00090148
O       -0.69904574       8.27728108       0.32112153       29       0.00585780       0.00185225       0.00075076
O        8.21304067       8.27728108       0.32112153       29       0.00580779       0.00241159       0.00092385
O       -0.69904574      -4.32631238       7.59780961       29       0.00578447       0.00233618       0.00100092
O        8.21304067      -4.32631238       7.59780961       29       0.00580820       0.00226772       0.00088087
O       -3.66974121       4.07608326       7.59780961       29       0.00586905       0.00241128       0.00101434
O        5.24234520       4.07608326       7.59780961       29       0.00586101       0.00243570       0.00101777
O       -3.40673784       0.92774306       5.56537320       30      -0.00219422      -0.00483963       0.00356812
O        5.50534856       0.92774306       5.56537320       30      -0.00181134      -0.00522786       0.00382164
O       -6.37743331       9.33013870       5.56537320       30      -0.00226378      -0.00498765       0.00334979
O        2.53465310       9.33013870       5.56537320       30      -0.00300210      -0.00536742       0.00293525
O       -6.37743331      -3.27345476      12.84206128       30      -0.00231710      -0.00492153       0.00380452
O        2.53465310      -3.27345476      12.84206128       30      -0.00236889      -0.00490579       0.00336410
O       -9.34812878       5.12894088      12.84206128       30      -0.00236515      -0.00486495       0.00338919
O       -0.43604237       5.12894088      12.84206128       30      -0.00235249      -0.00488261       0.00337411
O        5.06621522       0.77248598       1.98022803       31       0.00055107      -0.00458159      -0.00507511
O       13.97830162       0.77248598       1.98022803       31       0.00003518      -0.00389384      -0.00507545