320
Lattice="17.8241728087827 1.3970087638928546e-09 -1.171352526606148e-15 -5.941390937578009 16.80479128237581 -2.4196927991350975e-09 -5.941390935602339 -8.402395639790903 14.553376157445857" Properties=species:S:1:pos:R:3:spacegroup_kinds:I:1:forces:R:3 spacegroup="P 1" unit_cell=conventional occupancy="_JSON {\"0\": {\"In\": 1}, \"1\": {\"In\": 1}, \"2\": {\"In\": 1}, \"3\": {\"In\": 1}, \"4\": {\"In\": 1}, \"5\": {\"In\": 1}, \"6\": {\"In\": 1}, \"7\": {\"In\": 1}, \"8\": {\"In\": 1}, \"9\": {\"In\": 1}, \"10\": {\"In\": 1}, \"11\": {\"In\": 1}, \"12\": {\"In\": 1}, \"13\": {\"In\": 1}, \"14\": {\"In\": 1}, \"15\": {\"In\": 1}, \"16\": {\"O\": 1}, \"17\": {\"O\": 1}, \"18\": {\"O\": 1}, \"19\": {\"O\": 1}, \"20\": {\"O\": 1}, \"21\": {\"O\": 1}, \"22\": {\"O\": 1}, \"23\": {\"O\": 1}, \"24\": {\"O\": 1}, \"25\": {\"O\": 1}, \"26\": {\"O\": 1}, \"27\": {\"O\": 1}, \"28\": {\"O\": 1}, \"29\": {\"O\": 1}, \"30\": {\"O\": 1}, \"31\": {\"O\": 1}, \"32\": {\"O\": 1}, \"33\": {\"O\": 1}, \"34\": {\"O\": 1}, \"35\": {\"O\": 1}, \"36\": {\"O\": 1}, \"37\": {\"O\": 1}, \"38\": {\"O\": 1}, \"39\": {\"O\": 1}}" n_minim_iter=7 energy=-361215.2452290598 stress="0.0001555751763491155 9.560143399482366e-06 -4.656929513904694e-06 9.560143399482366e-06 0.00014246667935632955 3.452993148222721e-06 -4.656929513904694e-06 3.452993148222721e-06 0.0001583088569879113" free_energy=-45151.90573962641 pbc="T T T"
In      -4.25873313       3.01845015       5.70325303        0       0.04073277      -0.12967219      -0.00272166
In       4.65668660       3.00902206       5.70325303        0       0.00185330      -0.00143524       0.00249523
In      -7.22609527      11.41141770       5.70325303        0       0.00181161      -0.00083572       0.00241584
In       1.68599114      11.41141770       5.70325303        0       0.00199154      -0.00146614       0.00247156
In      -7.22609527      -1.19217576      12.97994111        0       0.00207125      -0.00132374       0.00234180
In       1.68599114      -1.19217576      12.97994111        0       0.00212744      -0.00151742       0.00259806
In     -10.19679074       7.21021988      12.97994111        0       0.00206207      -0.00147626       0.00240708
In      -1.28470433       7.21021988      12.97994111        0       0.00216262      -0.00144065       0.00262619
In       7.22609527       1.19217577       1.57343504        1      -0.00202439       0.00128443      -0.00239232
In      16.13818167       1.19217577       1.57343504        1      -0.00212238       0.00153364      -0.00199322
In       4.25539980       9.59457141       1.57343504        1      -0.00201965       0.00142803      -0.00247355
In      13.16748621       9.59457141       1.57343504        1      -0.00196881       0.00153119      -0.00255614
In       4.25539980      -3.00902205       8.85012312        1      -0.00201965       0.00142803      -0.00247355
In      13.16748621      -3.00902205       8.85012312        1      -0.00170594       0.00283910      -0.00330314
In       1.28470433       5.39337359       8.85012312        1      -0.00178484       0.00139300      -0.00243960
In      10.19679074       5.39337359       8.85012312        1      -0.00321131       0.00250646      -0.00207384
In       1.28470433      -0.90842314       5.21177908        2      -0.00295603       0.00222023      -0.00227991
In      10.19679073      -0.90842314       5.21177908        2      -0.00165234       0.00177641      -0.00220324
In      -1.68599114       7.49397250       5.21177908        2      -0.00163175       0.00284454      -0.00285524
In       7.22609527       7.49397250       5.21177908        2      -0.00222633       0.00139308      -0.00246608
In      -1.68599114      -5.10962096      12.48846716        2      -0.00201937       0.00142756      -0.00247331
In       7.22609527      -5.10962096      12.48846716        2      -0.00190655       0.00130601      -0.00238360
In      -4.65668661       3.29277468      12.48846716        2      -0.00200341       0.00134518      -0.00239914
In       4.25539980       3.29277468      12.48846716        2      -0.00201937       0.00142812      -0.00247316
In       7.42673866      -2.10059891       3.63834404        3       0.00015859       0.00020122      -0.00004421
In      16.33882507      -2.10059891       3.63834404        3      -0.00055692       0.00055210       0.00065337
In       4.45604320       6.30179673       3.63834404        3      -0.00006103       0.00000069       0.00002398
In      13.36812960       6.30179673       3.63834404        3       0.00156358       0.00711146      -0.00749751
In       4.45604320      -6.30179673      10.91503212        3      -0.00001503       0.00008611       0.00009749
In      13.36812960      -6.30179673      10.91503212        3       0.00000123       0.00006658      -0.00003879
In       1.48534773       2.10059891      10.91503212        3      -0.00006016       0.00014225      -0.00016924
In      10.39743413       2.10059891      10.91503212        3      -0.00000034      -0.00018939      -0.00007564
In      -1.28470433       4.05932151       3.39260706        4       0.00206682      -0.00353795      -0.00130868
In       7.62738207       4.05932151       3.39260706        4       0.00170381      -0.00153866      -0.00241686
In      -4.25539980      12.46171715       3.39260706        4       0.00190038      -0.00124711      -0.00250879
In       4.65668661      12.46171715       3.39260706        4       0.00222836      -0.00142334      -0.00256692
In      -4.25539980      -0.14187631      10.66929514        4       0.00173920      -0.00110620      -0.00466004
In       4.65668661      -0.14187631      10.66929514        4       0.00202269      -0.00142725      -0.00247506
In      -7.22609527       8.26051933      10.66929514        4       0.00201461      -0.00175289      -0.00251437
In       1.68599114       8.26051933      10.66929514        4       0.00205930      -0.00139796      -0.00245458
In       4.65668660      -2.86714574       5.45751606        5       0.00199138       0.00288014       0.00000080
In      13.56877300      -2.86714574       5.45751606        5       0.00231929       0.00586084       0.00040752
In       1.68599113       5.53524990       5.45751606        5       0.00176919       0.00255065       0.00002776
In      10.59807754       5.53524990       5.45751606        5      -0.00867326       0.00703660      -0.00044828
In       1.68599113      -7.06834356      12.73420414        5       0.00208607       0.00294746       0.00001033
In      10.59807754      -7.06834356      12.73420414        5       0.00189564       0.00301955       0.00013811
In      -1.28470434       1.33405208      12.73420414        5       0.00181104       0.00294165      -0.00011219
In       7.62738207       1.33405208      12.73420414        5       0.00207672       0.00288867      -0.00002779
In      -1.28470433       1.33405208       5.45751606        6      -0.01018162       0.00571431       0.00095849
In       7.62738207       1.33405208       5.45751606        6       0.00239357       0.00281498       0.00002119
In      -4.25539980       9.73644772       5.45751606        6       0.00218991       0.00307717       0.00011868
In       4.65668661       9.73644772       5.45751606        6       0.00202102       0.00285656      -0.00000011
In      -4.25539980      -2.86714574      12.73420414        6       0.00204574       0.00295950      -0.00016752
In       4.65668661      -2.86714574      12.73420414        6       0.00180853       0.00299322      -0.00014216
In      -7.22609527       5.53524990      12.73420414        6       0.00190990       0.00296770       0.00011682
In       1.68599114       5.53524990      12.73420414        6       0.00207173       0.00292850       0.00019225
In      -1.68599114       7.06834357       1.81917202        7      -0.00163954      -0.00259810      -0.00049186
In       7.22609526       7.06834357       1.81917202        7      -0.00195714      -0.00287515      -0.00005208
In      -4.65668661      15.47073921       1.81917202        7      -0.00186286      -0.00288309       0.00003731
In       4.25539980      15.47073921       1.81917202        7      -0.00219302      -0.00285681      -0.00009444
In      -4.65668661       2.86714575       9.09586010        7      -0.00174319      -0.00761921      -0.00074074
In       4.25539980       2.86714575       9.09586010        7      -0.00202661      -0.00287741      -0.00008105
In      -7.62738208      11.26954139       9.09586010        7      -0.00205448      -0.00258792       0.00001694
In       1.28470433      11.26954139       9.09586010        7      -0.00201925      -0.00285572      -0.00000060
In       4.25539980       0.14187631       3.88408101        8      -0.00227703       0.00143063       0.00246601
In      13.16748620       0.14187631       3.88408101        8       0.00220109       0.01009825       0.01257388
In       1.28470433       8.54427195       3.88408101        8      -0.00195523       0.00160090       0.00251363
In      10.19679074       8.54427195       3.88408101        8      -0.00202221       0.00158832       0.00272305
In       1.28470433      -4.05932151      11.16076909        8      -0.00201954       0.00142815       0.00247374
In      10.19679074      -4.05932151      11.16076909        8      -0.00203592       0.00147716       0.00233777
In      -1.68599114       4.34307413      11.16076909        8      -0.00181621       0.00132886       0.00268757
In       7.22609527       4.34307413      11.16076909        8      -0.00209602       0.00161358       0.00258759
In       7.42673866       4.20119782      -0.00000000        9      -0.00007983       0.00020430      -0.00014879
In      16.33882507       4.20119782      -0.00000000        9       0.00001221      -0.00002478       0.00003113
In       4.45604320      12.60359346      -0.00000000        9       0.00001746       0.00007133       0.00013802
In      13.36812960      12.60359346      -0.00000000        9      -0.00000082       0.00000860      -0.00000395
In       4.45604320       0.00000000       7.27668808        9      -0.00016981       0.00002177      -0.00000238
In      13.36812960       0.00000000       7.27668808        9       0.00402163       0.01148982      -0.00948414
In       1.48534773       8.40239564       7.27668808        9       0.00016126       0.00018026      -0.00008354
In      10.39743413       8.40239564       7.27668808        9      -0.00016272       0.00013447       0.00013541
In       4.25539980       6.44367304       0.24573697       10      -0.00202086       0.00142691       0.00247454
In      13.16748620       6.44367304       0.24573697       10      -0.00177173       0.00151827       0.00194408
In       1.28470433      14.84606868       0.24573697       10      -0.00207661       0.00140755       0.00251433
In      10.19679074      14.84606868       0.24573697       10      -0.00208302       0.00107049       0.00231050
In       1.28470433       2.24247522       7.52242505       10      -0.00320071       0.00111149       0.00151255
In      10.19679074       2.24247522       7.52242505       10      -0.00079376       0.00051295       0.00235574
In      -1.68599114      10.64487086       7.52242505       10      -0.00194259       0.00137453       0.00230252
In       7.22609527      10.64487086       7.52242505       10      -0.00207588       0.00173716       0.00240507
In      -1.28470433      -2.24247522       7.03095110       11       0.00138482      -0.00087344      -0.00298898
In       7.62738207      -2.24247522       7.03095110       11       0.00200942      -0.00135617      -0.00237636
In      -4.25539980       6.15992042       7.03095110       11       0.00360634       0.01044169       0.00537852
In       4.65668661       6.15992042       7.03095110       11       0.00191752      -0.00142821      -0.00249617
In      -4.25539980      -6.44367304      14.30763918       11       0.00196377      -0.00126855      -0.00228456
In       4.65668661      -6.44367304      14.30763918       11       0.00200180      -0.00158798      -0.00258208
In      -7.22609527       1.95872260      14.30763918       11       0.00196561      -0.00142697      -0.00248489
In       1.68599114       1.95872260      14.30763918       11       0.00201879      -0.00142845      -0.00247497
In       4.25539980       2.86714575       1.81917202       12      -0.00209155      -0.00286582       0.00007124
In      13.16748620       2.86714575       1.81917202       12      -0.00190427      -0.00494037       0.00070825
In       1.28470433      11.26954139       1.81917202       12      -0.00201943      -0.00285650      -0.00000264
In      10.19679074      11.26954139       1.81917202       12      -0.00202398      -0.00263492       0.00001127
In       1.28470433      -1.33405207       9.09586010       12      -0.00169863      -0.00306341      -0.00005406
In      10.19679074      -1.33405207       9.09586010       12      -0.00172262      -0.00275248       0.00014671
In      -1.68599114       7.06834357       9.09586010       12      -0.00067185      -0.00196088       0.00107530
In       7.22609527       7.06834357       9.09586010       12      -0.00188015      -0.00287816       0.00011381
In       1.68599113       5.10962097       2.06490899       13       0.00201907      -0.00147724       0.00242891
In      10.59807753       5.10962097       2.06490899       13       0.00094814      -0.00115936       0.00104897
In      -1.28470434      13.51201661       2.06490899       13       0.00201970      -0.00142814       0.00247359
In       7.62738207      13.51201661       2.06490899       13       0.00216028      -0.00108098       0.00271180
In      -1.28470434       0.90842315       9.34159707       13       0.00097879      -0.00074521       0.00133931
In       7.62738207       0.90842315       9.34159707       13       0.00216254      -0.00147863       0.00237300
In      -4.25539981       9.31081879       9.34159707       13       0.00201918      -0.00115730       0.00249741
In       4.65668660       9.31081879       9.34159707       13       0.00201970      -0.00142814       0.00247359
In       1.48534773       8.40239564      -0.00000000       14      -0.00000344      -0.00000867      -0.00005537
In      10.39743414       8.40239564      -0.00000000       14      -0.00008644      -0.00001395      -0.00004939
In      -1.48534774      16.80479128      -0.00000000       14      -0.00000107      -0.00000047      -0.00000090
In       7.42673867      16.80479128      -0.00000000       14       0.00007256       0.00008511       0.00026577
In      -1.48534774       4.20119782       7.27668808       14       0.00315240      -0.00389090      -0.00075695
In       7.42673867       4.20119782       7.27668808       14       0.00015625      -0.00010130      -0.00005429
In      -4.45604321      12.60359346       7.27668808       14      -0.00021334       0.00020827       0.00004418
In       4.45604320      12.60359346       7.27668808       14       0.00024583      -0.00002029       0.00005357
In       1.48534773       2.10059891       3.63834404       15      -0.00113092      -0.00024215       0.00084353
In      10.39743413       2.10059891       3.63834404       15       0.00097376      -0.00160977      -0.00023074
In      -1.48534774      10.50299455       3.63834404       15       0.00010779      -0.00005413       0.00007443
In       7.42673867      10.50299455       3.63834404       15      -0.00009956       0.00026869       0.00008206
In      -1.48534774      -2.10059891      10.91503212       15      -0.00013232      -0.00035327       0.00000638
In       7.42673867      -2.10059891      10.91503212       15       0.00014058       0.00002780      -0.00005800
In      -4.45604321       6.30179673      10.91503212       15      -0.00015583       0.00000574       0.00050724
In       4.45604320       6.30179673      10.91503212       15       0.00000038      -0.00000069      -0.00000097
O        0.87517571       4.20176968       3.95946557       16       0.00007950      -0.00635010       0.00066013
O        9.78726211       4.20176968       3.95946557       16       0.00082919      -0.00503442       0.00165716
O       -2.09551976      12.60416532       3.95946557       16      -0.00032546      -0.00626775       0.00090301
O        6.81656665      12.60416532       3.95946557       16      -0.00055062      -0.00658741       0.00080961
O       -2.09551976       0.00057186      11.23615365       16      -0.00032619      -0.00633715       0.00068632
O        6.81656665       0.00057186      11.23615365       16      -0.00032877      -0.00630322       0.00088893
O       -5.06621523       8.40296750      11.23615365       16      -0.00033484      -0.00644033       0.00081021
O        3.84587118       8.40296750      11.23615365       16      -0.00034136      -0.00630654       0.00093479
O       -2.09551975       3.42871185       5.29646004       17      -0.00507005       0.00790895       0.00448911
O        6.81656665       3.42871185       5.29646004       17      -0.00020785       0.00394056       0.00495332
O       -5.06621522      11.83110749       5.29646004       17      -0.00030823       0.00412060       0.00495003
O        3.84587119      11.83110749       5.29646004       17      -0.00038690       0.00396198       0.00499848
O       -5.06621522      -0.77248597      12.57314812       17      -0.00033061       0.00391662       0.00516958
O        3.84587119      -0.77248597      12.57314812       17      -0.00032513       0.00395560       0.00498341
O       -8.03691069       7.62990967      12.57314812       17      -0.00031303       0.00397421       0.00505499
O        0.87517572       7.62990967      12.57314812       17      -0.00032706       0.00399093       0.00506198
O       -0.43604237       2.25528413       0.05220838       18      -0.00234066       0.00524203       0.00250841
O        8.47604403       2.25528413       0.05220838       18      -0.00233623       0.00546293       0.00258274
O       -3.40673784      10.65767977       0.05220838       18      -0.00236608       0.00530013       0.00261550
O        5.50534857      10.65767977       0.05220838       18      -0.00234574       0.00536359       0.00254832
O       -3.40673784      -1.94591369       7.32889646       18      -0.00186922       0.00194964       0.00345546
O        5.50534857      -1.94591369       7.32889646       18      -0.00236554       0.00533267       0.00257079
O       -6.37743331       6.45648195       7.32889646       18      -0.00034037       0.00319153      -0.00039566
O        2.53465310       6.45648195       7.32889646       18      -0.00243849       0.00539013       0.00257320
O       -0.87517572      -0.77191412       1.97923754       19       0.00049708      -0.00215617       0.00579629
O        8.03691068      -0.77191412       1.97923754       19       0.00023966      -0.00244880       0.00583079
O       -3.84587119       7.63048152       1.97923754       19       0.00008659      -0.00323543       0.00693800
O        5.06621522       7.63048152       1.97923754       19       0.00034202      -0.00235747       0.00591390
O       -3.84587119      -4.97311194       9.25592562       19       0.00033405      -0.00223763       0.00583541
O        5.06621522      -4.97311194       9.25592562       19       0.00031787      -0.00240592       0.00591858
O       -6.81656666       3.42928370       9.25592562       19       0.00039462      -0.00151365       0.00556935
O        2.09551975       3.42928370       9.25592562       19       0.00039187      -0.00237614       0.00601799
O        3.93112711       5.00325446       1.92702916       20       0.00377185       0.00380505       0.00337791
O       12.84321351       5.00325446       1.92702916       20       0.00373260       0.00417748       0.00471876
O        0.96043164      13.40565010       1.92702916       20       0.00383979       0.00384290       0.00336924
O        9.87251805      13.40565010       1.92702916       20       0.00389442       0.00361286       0.00311747
O        0.96043164       0.80205664       9.20371724       20       0.00373075       0.00371982       0.00325881
O        9.87251805       0.80205664       9.20371724       20       0.00322798       0.00347538       0.00374742
O       -2.01026383       9.20445228       9.20371724       20       0.00378837       0.00375000       0.00336611
O        6.90182258       9.20445228       9.20371724       20       0.00379490       0.00384957       0.00337154
O        2.01026382       2.93336993       1.65811600       21      -0.00372532      -0.00105578       0.00492260
O       10.92235022       2.93336993       1.65811600       21      -0.00402668      -0.00058641       0.00509216
O       -0.96043165      11.33576557       1.65811600       21      -0.00384172      -0.00098269       0.00500851
O        7.95165476      11.33576557       1.65811600       21      -0.00382293      -0.00101910       0.00496772
O       -0.96043165      -1.26782789       8.93480408       21      -0.00370304      -0.00095387       0.00512506
O        7.95165476      -1.26782789       8.93480408       21      -0.00389279      -0.00104873       0.00503405
O       -3.93112712       7.13456775       8.93480408       21      -0.00422961      -0.00210822       0.00334319
O        4.98095929       7.13456775       8.93480408       21      -0.00386811      -0.00097102       0.00501670
O        2.01026382       6.27108235       0.26891315       22      -0.00383780       0.00479901      -0.00162410
O       10.92235022       6.27108235       0.26891315       22      -0.00375905       0.00486893      -0.00162973
O       -0.96043165      14.67347799       0.26891315       22      -0.00382555       0.00482713      -0.00164541
O        7.95165476      14.67347799       0.26891315       22      -0.00389886       0.00479592      -0.00177125
O       -0.96043165       2.06988453       7.54560123       22      -0.00160245       0.00594790      -0.00039156
O        7.95165476       2.06988453       7.54560123       22      -0.00376130       0.00496568      -0.00179471
O       -3.93112712      10.47228017       7.54560123       22      -0.00383730       0.00458986      -0.00164671
O        4.98095929      10.47228017       7.54560123       22      -0.00386261       0.00484039      -0.00166424
O       -2.27164973       5.96114005       3.69055242       23      -0.00722348       0.00011181       0.00344062
O        6.64043667       5.96114005       3.69055242       23      -0.00587881       0.00040198       0.00251086
O       -5.24234520      14.36353569       3.69055242       23      -0.00569061       0.00040933       0.00250893
O        3.66974121      14.36353569       3.69055242       23      -0.00559971       0.00046439       0.00260110
O       -5.24234520       1.75994223      10.96724050       23      -0.00561728       0.00055717       0.00236704
O        3.66974121       1.75994223      10.96724050       23      -0.00584637       0.00042376       0.00255155
O       -8.21304067      10.16233787      10.96724050       23      -0.00578091       0.00035278       0.00252469
O        0.69904574      10.16233787      10.96724050       23      -0.00583628       0.00038745       0.00260254
O        3.40673784       1.94591369       7.22447970       24       0.00237211      -0.00539128      -0.00254347
O       12.31882424       1.94591369       7.22447970       24       0.00178436       0.00210729      -0.00659875
O        0.43604237      10.34830933       7.22447970       24       0.00232047      -0.00538230      -0.00251542
O        9.34812878      10.34830933       7.22447970       24       0.00224673      -0.00521309      -0.00253169
O        0.43604237      -2.25528413      14.50116778       24       0.00231872      -0.00535656      -0.00254571
O        9.34812878      -2.25528413      14.50116778       24       0.00229819      -0.00537403      -0.00255314
O       -2.53465310       6.14711151      14.50116778       24       0.00238384      -0.00527957      -0.00249673
O        6.37743331       6.14711151      14.50116778       24       0.00236304      -0.00533047      -0.00259097
O        5.24234520      -1.75994222       3.58613566       25       0.00585812      -0.00045240      -0.00256815
O       14.15443160      -1.75994222       3.58613566       25       0.00593836      -0.00293148      -0.00358196
O        2.27164973       6.64245342       3.58613566       25       0.00591198      -0.00031888      -0.00261176
O       11.18373614       6.64245342       3.58613566       25       0.00873558      -0.00298702       0.00053163
O        2.27164973      -5.96114004      10.86282374       25       0.00583949      -0.00044913      -0.00257307
O       11.18373614      -5.96114004      10.86282374       25       0.00582696      -0.00044656      -0.00253833
O       -0.69904574       2.44125560      10.86282374       25       0.00580344      -0.00030994      -0.00243410
O        8.21304067       2.44125560      10.86282374       25       0.00579213      -0.00036736      -0.00256147
O        6.37743331       3.27345476       1.71131487       26       0.00237153       0.00482061      -0.00338809
O       15.28951971       3.27345476       1.71131487       26       0.00211265       0.00542592      -0.00320503
O        3.40673784      11.67585040       1.71131487       26       0.00234675       0.00491668      -0.00334948
O       12.31882425      11.67585040       1.71131487       26       0.00237310       0.00483292      -0.00341078
O        3.40673784      -0.92774306       8.98800295       26       0.00240339       0.00485328      -0.00331276
O       12.31882425      -0.92774306       8.98800295       26       0.00179612       0.00361638      -0.00157399
O        0.43604237       7.47465258       8.98800295       26       0.00227735       0.00476964      -0.00340849
O        9.34812878       7.47465258       8.98800295       26       0.00232105       0.00501186      -0.00340502
O        3.66974121       2.31614104       3.90725719       27      -0.00584418       0.00197882      -0.00168586
O       12.58182761       2.31614104       3.90725719       27      -0.00451127       0.00967079       0.00363571
O        0.69904574      10.71853668       3.90725719       27      -0.00577315       0.00201664      -0.00166710
O        9.61113215      10.71853668       3.90725719       27      -0.00584027       0.00198664      -0.00171906
O        0.69904574      -1.88505678      11.18394527       27      -0.00579843       0.00202269      -0.00160007
O        9.61113215      -1.88505678      11.18394527       27      -0.00587576       0.00195488      -0.00158597
O       -2.27164973       6.51733886      11.18394527       27      -0.00590348       0.00192761      -0.00170728
O        6.64043668       6.51733886      11.18394527       27      -0.00586209       0.00201576      -0.00162212
O        0.69904574       4.32631238       6.95556654       28      -0.00627901      -0.00266928      -0.00059670
O        9.61113214       4.32631238       6.95556654       28      -0.00474985      -0.00196640      -0.00140462
O       -2.27164973      12.72870802       6.95556654       28      -0.00581148      -0.00233262      -0.00088685
O        6.64043668      12.72870802       6.95556654       28      -0.00594710      -0.00251414      -0.00096404
O       -2.27164973       0.12511456      14.23225462       28      -0.00582236      -0.00241102      -0.00088527
O        6.64043668       0.12511456      14.23225462       28      -0.00586716      -0.00235655      -0.00101994
O       -5.24234520       8.52751020      14.23225462       28      -0.00577885      -0.00242998      -0.00091456
O        3.66974121       8.52751020      14.23225462       28      -0.00576960      -0.00240062      -0.00068446
O        2.27164973      -0.12511456       0.32112153       29       0.00579679       0.00244779       0.00091988
O       11.18373613      -0.12511456       0.32112153       29       0.00593607       0.00235743       0.00102468
O       -0.69904574       8.27728108       0.32112153       29       0.00583874       0.00244808       0.00089498
O        8.21304067       8.27728108       0.32112153       29       0.00582474       0.00242789       0.00091107
O       -0.69904574      -4.32631238       7.59780961       29       0.00589258       0.00240066       0.00093414
O        8.21304067      -4.32631238       7.59780961       29       0.00586145       0.00243681       0.00086791
O       -3.66974121       4.07608326       7.59780961       29       0.00585769       0.01229501       0.00942802
O        5.24234520       4.07608326       7.59780961       29       0.00577376       0.00243689       0.00096323
O       -3.40673784       0.92774306       5.56537320       30      -0.01127148       0.01752008       0.00463634
O        5.50534856       0.92774306       5.56537320       30      -0.00236706      -0.00490146       0.00336905
O       -6.37743331       9.33013870       5.56537320       30      -0.00224650      -0.00498540       0.00325932
O        2.53465310       9.33013870       5.56537320       30      -0.00228046      -0.00485930       0.00334178
O       -6.37743331      -3.27345476      12.84206128       30      -0.00232028      -0.00490979       0.00329813
O        2.53465310      -3.27345476      12.84206128       30      -0.00235387      -0.00491789       0.00332609
O       -9.34812878       5.12894088      12.84206128       30      -0.00234285      -0.00488513       0.00339541
O       -0.43604237       5.12894088      12.84206128       30      -0.00235298      -0.00489796       0.00332955
O        5.06621522       0.77248598       1.98022803       31       0.00037314      -0.00394747      -0.00503493
O       13.97830162       0.77248598       1.98022803       31       0.00007188      -0.00378166      -0.00578321