10
Lattice="6.404526380763281 0.07831157982971697 0.05407304544029903 3.5797724084548945 5.311244709961431 0.054073045440285704 3.579772408454886 1.9323725488707777 4.947542884675906" Properties=species:S:1:pos:R:3:spacegroup_kinds:I:1:forces:R:3 spacegroup="P 1" unit_cell=conventional occupancy="_JSON {\"0\": {\"In\": 1}, \"1\": {\"In\": 1}, \"2\": {\"In\": 1}, \"3\": {\"In\": 1}, \"4\": {\"O\": 1}, \"5\": {\"O\": 1}, \"6\": {\"O\": 1}, \"7\": {\"O\": 1}, \"8\": {\"O\": 1}, \"9\": {\"O\": 1}}" n_minim_iter=1 energy=-11285.209507113059 stress="0.12114554238915143 -0.0005621267263484102 -0.0003881406054784325 -0.0005621267263484102 0.12188345955542526 -0.0002095195352956653 -0.0003881406054784325 -0.0002095195352956653 0.1220422270581358" free_energy=-11285.209507113059 pbc="T T T"
In      11.52992240       6.22388884       4.29750778        0      -0.02368946      -0.01278764      -0.00882969
In       8.81618441       4.75900443       3.28602568        1       0.02368946       0.01278764       0.00882969
In       4.74788680       2.56292442       1.76966330        2      -0.02368946      -0.01278764      -0.00882969
In       2.03414881       1.09804001       0.75818120        3       0.02368946       0.01278764       0.00882969
O        6.59328100       2.56685552       0.28120974        4       0.00000000       0.05417553      -0.07846000
O        7.80028988       5.60505635       1.31799529        5      -0.04529101       0.08390283      -0.00000000
O        8.96604452       2.45324580       2.75498119        6       0.04529101      -0.02972730      -0.07846000
O        4.59802669       4.86868305       2.30070779        7      -0.04529101       0.02972730       0.07846000
O        6.97079021       4.75507333       4.77447924        8      -0.00000000      -0.05417553       0.07846000
O        5.76378133       1.71687250       3.73769369        9       0.04529101      -0.08390283      -0.00000000
10
Lattice="6.412949422618424 0.08682469631664544 0.059951232748448 3.591511323355006 5.313615081953646 0.05995123274843468 3.591511323354997 1.9387092525262755 4.94767681075092" Properties=species:S:1:pos:R:3:spacegroup_kinds:I:1:forces:R:3 spacegroup="P 1" unit_cell=conventional occupancy="_JSON {\"0\": {\"In\": 1}, \"1\": {\"In\": 1}, \"2\": {\"In\": 1}, \"3\": {\"In\": 1}, \"4\": {\"O\": 1}, \"5\": {\"O\": 1}, \"6\": {\"O\": 1}, \"7\": {\"O\": 1}, \"8\": {\"O\": 1}, \"9\": {\"O\": 1}}" n_minim_iter=2 energy=-11285.210349864019 stress="0.12164507219670005 0.0003983566383142618 0.00027505966085326005 0.0003983566383142618 0.12112213993311989 0.00014847808119567118 0.00027505966085326005 0.00014847808119567118 0.12100962777960682" free_energy=-11285.210349864019 pbc="T T T"
In      11.55670001       6.23834348       4.30748851        0      -0.02095111      -0.01130947      -0.00780903
In       8.83725811       4.77038008       3.29388041        1       0.02095111       0.01130947       0.00780903
In       4.75871397       2.56876896       1.77369887        2      -0.02095111      -0.01130947      -0.00780903
In       2.03927207       1.10080556       0.76009077        3       0.02095111       0.01130947       0.00780903
O        6.60546773       2.57537171       0.28718718        4      -0.00000000       0.04532864      -0.06564745
O        7.81838404       5.61473282       1.32684605        5      -0.03789497       0.07020146      -0.00000000
O        8.98406275       2.46500068       2.76102558        6       0.03789497      -0.02487282      -0.06564745
O        4.61190933       4.87414837       2.30655370        7      -0.03789497       0.02487282       0.06564745
O        6.99050435       4.76377733       4.78039210        8      -0.00000000      -0.04532864       0.06564745
O        5.77758804       1.72441622       3.74073323        9       0.03789497      -0.07020146       0.00000000
10
Lattice="6.4135833716481665 0.08746471192972217 0.06039315453579594 3.592394241280147 5.313793875954552 0.06039315453578261 3.592394241280139 1.9391858544346599 4.94768743062933" Properties=species:S:1:pos:R:3:spacegroup_kinds:I:1:forces:R:3 spacegroup="P 1" unit_cell=conventional occupancy="_JSON {\"0\": {\"In\": 1}, \"1\": {\"In\": 1}, \"2\": {\"In\": 1}, \"3\": {\"In\": 1}, \"4\": {\"O\": 1}, \"5\": {\"O\": 1}, \"6\": {\"O\": 1}, \"7\": {\"O\": 1}, \"8\": {\"O\": 1}, \"9\": {\"O\": 1}}" n_minim_iter=3 energy=-11285.21272950689 stress="0.12022323689738866 0.0007102387813481688 0.0004904098981112181 0.0007102387813481688 0.11929088950310805 0.0002647248251075395 0.0004904098981112181 0.0002647248251075395 0.1190902891182221" free_energy=-11285.21272950689 pbc="T T T"
In      11.55630180       6.23812853       4.30734009        0      -0.00548297      -0.00295972      -0.00204365
In       8.84125599       4.77253815       3.29537053        1       0.00548297       0.00295972       0.00204365
In       4.75711587       2.56790630       1.77310322        2      -0.00548297      -0.00295972      -0.00204365
In       2.04207006       1.10231593       0.76113366        3       0.00548297       0.00295972       0.00204365
O        6.60638465       2.58133362       0.27992987        4       0.00000000      -0.00085018       0.00123128
O        7.81529651       5.62370225       1.32751159        5       0.00071075      -0.00131669       0.00000000
O        8.98986704       2.46296471       2.75377358        6      -0.00071075       0.00046651       0.00123128
O        4.60850482       4.87747974       2.31470016        7       0.00071075      -0.00046651      -0.00123128
O        6.99198721       4.75911084       4.78854388        8      -0.00000000       0.00085018      -0.00123128
O        5.78307535       1.71674221       3.74096215        9      -0.00071075       0.00131669      -0.00000000
