10
Lattice="5.879249427716187 0.005130483892997189 0.0035425270346987124 3.2303617081561655 4.9122666244458335 0.0035425270346980463 3.230361708156165 1.7437595398581667 4.5923500091234235" Properties=species:S:1:pos:R:3:spacegroup_kinds:I:1:forces:R:3 spacegroup="P 1" unit_cell=conventional occupancy="_JSON {\"0\": {\"In\": 1}, \"1\": {\"In\": 1}, \"2\": {\"In\": 1}, \"3\": {\"In\": 1}, \"4\": {\"O\": 1}, \"5\": {\"O\": 1}, \"6\": {\"O\": 1}, \"7\": {\"O\": 1}, \"8\": {\"O\": 1}, \"9\": {\"O\": 1}}" n_minim_iter=1 energy=-11287.680210632143 stress="-0.00010680266759080544 -6.698810696111342e-05 -4.625434663755993e-05 -6.698810696111342e-05 -1.886578169390707e-05 -2.4968243489103753e-05 -4.625434663755993e-05 -2.4968243489103753e-05 5.4390546893293805e-08" free_energy=-11287.680210632143 pbc="T T T"
In      10.57764288       5.70984532       3.94256796        0      -0.00088604      -0.00047828      -0.00033025
In       7.93231640       4.28188966       2.95658464        1       0.00088604       0.00047828       0.00033025
In       4.40765645       2.37926700       1.64285043        2      -0.00088604      -0.00047828      -0.00033025
In       1.76232998       0.95131134       0.65686711        3       0.00088604       0.00047828       0.00033025
O        6.02461793       2.31267077       0.21777125        4       0.00000000       0.00533084      -0.00772042
O        7.10072909       5.12262891       1.15340130        5      -0.00445661       0.00825599      -0.00000000
O        8.17886848       2.18590935       2.51394626        6       0.00445661      -0.00292515      -0.00772042
O        4.16110437       4.47524731       2.08548881        7      -0.00445661       0.00292515       0.00772042
O        6.31535492       4.34848589       4.38166381        8      -0.00000000      -0.00533084       0.00772042
O        5.23924376       1.53852775       3.44603377        9       0.00445661      -0.00825599       0.00000000
