10
Lattice="5.500483697724279 -0.06670478999276065 -0.04605872015614168 2.962470030550714 4.63503416988779 -0.04605872015614679 2.962470030550703 1.5991507589610658 4.350675810933759" Properties=species:S:1:pos:R:3:spacegroup_kinds:I:1:forces:R:3 spacegroup="P 1" unit_cell=conventional occupancy="_JSON {\"0\": {\"In\": 1}, \"1\": {\"In\": 1}, \"2\": {\"In\": 1}, \"3\": {\"In\": 1}, \"4\": {\"O\": 1}, \"5\": {\"O\": 1}, \"6\": {\"O\": 1}, \"7\": {\"O\": 1}, \"8\": {\"O\": 1}, \"9\": {\"O\": 1}}" n_minim_iter=1 energy=-11285.842039959252 stress="-0.21033623017885053 0.0012665122595825848 0.0008745089184326277 0.0012665122595825848 -0.21199881104132826 0.00047206269958360836 0.0008745089184326277 0.00047206269958360836 -0.21235652573232763" free_energy=-11285.842039959252 pbc="T T T"
In       9.84599212       5.31489791       3.66986232        0       0.11950346       0.06450835       0.04454211
In       7.29214353       3.93632231       2.71797524        1      -0.11950346      -0.06450835      -0.04454211
In       4.13328024       2.23115784       1.54058314        2       0.11950346       0.06450835       0.04454211
In       1.57943165       0.85258224       0.58869605        3      -0.11950346      -0.06450835      -0.04454211
O        5.60659779       2.15386728       0.10697914        4      -0.00000000       0.02995427      -0.04338144
O        6.54831730       4.82550181       1.01858087        5      -0.02504192       0.04639084       0.00000000
O        7.62734832       1.95397558       2.28231705        6       0.02504192      -0.01643656      -0.04338144
O        3.79807545       4.21350457       1.97624133        7      -0.02504192       0.01643656       0.04338144
O        5.81882597       4.01361287       4.15157923        8      -0.00000000      -0.02995427       0.04338144
O        4.87710647       1.34197834       3.23997750        9       0.02504192      -0.04639084      -0.00000000
10
Lattice="5.489849034568683 -0.07791346251477166 -0.05379815102863701 2.9472640524441145 4.632293981945281 -0.05379815102864213 2.947264052444104 1.5909425235429362 4.35085550932267" Properties=species:S:1:pos:R:3:spacegroup_kinds:I:1:forces:R:3 spacegroup="P 1" unit_cell=conventional occupancy="_JSON {\"0\": {\"In\": 1}, \"1\": {\"In\": 1}, \"2\": {\"In\": 1}, \"3\": {\"In\": 1}, \"4\": {\"O\": 1}, \"5\": {\"O\": 1}, \"6\": {\"O\": 1}, \"7\": {\"O\": 1}, \"8\": {\"O\": 1}, \"9\": {\"O\": 1}}" n_minim_iter=2 energy=-11285.843594854907 stress="-0.21146401444196844 -0.0011172722939806624 -0.0007714608193838186 -0.0011172722939806624 -0.20999734444254833 -0.0004164370079950143 -0.0007714608193838186 -0.0004164370079950143 -0.20968178120182643" free_energy=-11285.843594854907 pbc="T T T"
In       9.81232078       5.29672201       3.65731212        0       0.15175831       0.08191962       0.05656434
In       7.26424494       3.92126256       2.70757670        1      -0.15175831      -0.08191962      -0.05656434
In       4.12013221       2.22406049       1.53568252        2       0.15175831       0.08191962       0.05656434
In       1.57205637       0.84860104       0.58594709        3      -0.15175831      -0.08191962      -0.05656434
O        5.59101881       2.14431472       0.09698039        4       0.00000000       0.01052687      -0.01524560
O        6.52380519       4.81545220       1.00701665        5      -0.00880052       0.01630320      -0.00000000
O        7.60549647       1.93785481       2.27240814        6       0.00880052      -0.00577632      -0.01524560
O        3.77888067       4.20746825       1.97085107        7      -0.00880052       0.00577632       0.01524560
O        5.79335834       4.00100833       4.14627883        8       0.00000000      -0.01052687       0.01524560
O        4.86057196       1.32987085       3.23624256        9       0.00880052      -0.01630320      -0.00000000
10
Lattice="5.477697760356485 -0.09076744516457712 -0.06267364542452245 2.9298503892494807 4.629188717208548 -0.0626736454245275 2.929850389249469 1.5815425726820618 4.35109632807135" Properties=species:S:1:pos:R:3:spacegroup_kinds:I:1:forces:R:3 spacegroup="P 1" unit_cell=conventional occupancy="_JSON {\"0\": {\"In\": 1}, \"1\": {\"In\": 1}, \"2\": {\"In\": 1}, \"3\": {\"In\": 1}, \"4\": {\"O\": 1}, \"5\": {\"O\": 1}, \"6\": {\"O\": 1}, \"7\": {\"O\": 1}, \"8\": {\"O\": 1}, \"9\": {\"O\": 1}}" n_minim_iter=3 energy=-11285.849382585679 stress="-0.20630079622460576 -0.0005286662145021156 -0.00036503659249036407 -0.0005286662145021156 -0.20560680347114818 -0.00019704791549379844 -0.00036503659249036407 -0.00019704791549379844 -0.2054574865816974" free_energy=-11285.849382585679 pbc="T T T"
In       9.78652224       5.28279588       3.64769632        0      -0.01089055      -0.00587876      -0.00405920
In       7.21957558       3.89714990       2.69092724        1       0.01089055       0.00587876       0.00405920
In       4.11782297       2.22281396       1.53482180        2      -0.01089055      -0.00587876      -0.00405920
In       1.55087631       0.83716797       0.57805272        3       0.01089055       0.00587876       0.00405920
O        5.57319852       2.13523813       0.08282074        4       0.00000000       0.03648971      -0.05284642
O        6.49419305       4.80684787       0.99376362        5      -0.03050558       0.05651242      -0.00000000
O        7.58205438       1.91836315       2.25836891        6       0.03050558      -0.02002270      -0.05284642
O        3.75534417       4.20160071       1.96738013        7      -0.03050558       0.02002270       0.05284642
O        5.76420003       3.98472572       4.14292830        8      -0.00000000      -0.03648971       0.05284642
O        4.84320550       1.31311598       3.23198543        9       0.03050558      -0.05651242       0.00000000
10
Lattice="5.484129944610073 -0.08395702063173552 -0.05797114298449068 2.93907341812917 4.630829026592207 -0.057971142984495676 2.93907341812916 1.5865211930497873 4.350964103615633" Properties=species:S:1:pos:R:3:spacegroup_kinds:I:1:forces:R:3 spacegroup="P 1" unit_cell=conventional occupancy="_JSON {\"0\": {\"In\": 1}, \"1\": {\"In\": 1}, \"2\": {\"In\": 1}, \"3\": {\"In\": 1}, \"4\": {\"O\": 1}, \"5\": {\"O\": 1}, \"6\": {\"O\": 1}, \"7\": {\"O\": 1}, \"8\": {\"O\": 1}, \"9\": {\"O\": 1}}" n_minim_iter=4 energy=-11285.850167456972 stress="-0.2053519102815816 0.0004958214466435457 0.00034235774128438967 0.0004958214466435457 -0.2060027869249317 0.00018480579918525047 0.00034235774128438967 0.00018480579918525047 -0.20614282711383516" free_energy=-11285.850167456972 pbc="T T T"
In       9.80863910       5.29473463       3.65593986        0      -0.01486717      -0.00802534      -0.00554139
In       7.23477608       3.90535518       2.69659287        1       0.01486717       0.00802534       0.00554139
In       4.12750071       2.22803803       1.53842895        2      -0.01486717      -0.00802534      -0.00554139
In       1.55363769       0.83865858       0.57908196        3       0.01486717       0.00802534       0.00554139
O        5.58263417       2.14315489       0.08581860        4      -0.00000000       0.01071641      -0.01552009
O        6.50727529       4.81621813       1.00078431        5      -0.00895897       0.01659673       0.00000000
O        7.59706647       1.92698167       2.26130065        6       0.00895897      -0.00588033      -0.01552009
O        3.76521032       4.20641154       1.97372117        7      -0.00895897       0.00588033       0.01552009
O        5.77964262       3.99023831       4.14920322        8       0.00000000      -0.01071641       0.01552009
O        4.85500150       1.31717508       3.23423751        9       0.00895897      -0.01659673       0.00000000
10
Lattice="5.482849653252378 -0.08531147158607784 -0.05890637233575702 2.93723856654163 4.630501913461927 -0.058906372335761986 2.9372385665416183 1.5855307343182095 4.350989568110769" Properties=species:S:1:pos:R:3:spacegroup_kinds:I:1:forces:R:3 spacegroup="P 1" unit_cell=conventional occupancy="_JSON {\"0\": {\"In\": 1}, \"1\": {\"In\": 1}, \"2\": {\"In\": 1}, \"3\": {\"In\": 1}, \"4\": {\"O\": 1}, \"5\": {\"O\": 1}, \"6\": {\"O\": 1}, \"7\": {\"O\": 1}, \"8\": {\"O\": 1}, \"9\": {\"O\": 1}}" n_minim_iter=5 energy=-11285.850235545058 stress="-0.20562772288130673 0.00010008391266874883 6.910653525841189e-05 0.00010008391266874883 -0.2057591054215119 3.730392762552699e-05 6.910653525841189e-05 3.730392762552699e-05 -0.20578737319782447" free_energy=-11285.850235545058 pbc="T T T"
In       9.80440467       5.29244887       3.65436158        0      -0.00268655      -0.00145021      -0.00100135
In       7.23158552       3.90363290       2.69540366        1       0.00268655       0.00145021       0.00100135
In       4.12574128       2.22708829       1.53777316        2      -0.00268655      -0.00145021      -0.00100135
In       1.55292213       0.83827231       0.57881525        3       0.00268655       0.00145021       0.00100135
O        5.58075653       2.14221284       0.08430583        4      -0.00000000       0.00218686      -0.00316713
O        6.50414316       4.81533375       0.99938784        5      -0.00182823       0.00338684      -0.00000000
O        7.59460846       1.92491998       2.25980062        6       0.00182823      -0.00119998      -0.00316713
O        3.76271833       4.20580121       1.97337621        7      -0.00182823       0.00119998       0.00316713
O        5.77657027       3.98850835       4.14887099        8       0.00000000      -0.00218686       0.00316713
O        4.85318363       1.31538744       3.23378899        9       0.00182823      -0.00338684       0.00000000
