10
Lattice="5.692089193255804 -0.03264242776636482 -0.022539137682185663 3.096084456370907 4.776526557142583 -0.022539137682186818 3.0960844563709005 1.6712762516259825 4.47465637279187" Properties=species:S:1:pos:R:3:spacegroup_kinds:I:1:forces:R:3 spacegroup="P 1" unit_cell=conventional occupancy="_JSON {\"0\": {\"In\": 1}, \"1\": {\"In\": 1}, \"2\": {\"In\": 1}, \"3\": {\"In\": 1}, \"4\": {\"O\": 1}, \"5\": {\"O\": 1}, \"6\": {\"O\": 1}, \"7\": {\"O\": 1}, \"8\": {\"O\": 1}, \"9\": {\"O\": 1}}" n_minim_iter=5 energy=-11287.273030829376 stress="-0.08703283316706203 1.096076851433026e-06 7.568256369219805e-07 1.096076851433026e-06 -0.08703427201309556 4.085367830545535e-07 7.568256369219805e-07 4.085367830545535e-07 -0.08703458158954232" free_energy=-11287.273030829376 pbc="T T T"
In      10.21153621       5.51221977       3.80611030        0       0.00001299       0.00000701       0.00000484
In       7.61485096       4.11052081       2.83825686        1      -0.00001299      -0.00000701      -0.00000484
In       4.26940715       2.30463958       1.59132125        2       0.00001299       0.00000701       0.00000484
In       1.67272191       0.90294062       0.62346781        3      -0.00001299      -0.00000701      -0.00000484
O        5.81710913       2.23544002       0.15769727        4       0.00000000       0.00017240      -0.00024968
O        6.82344426       4.97925922       1.08485539        5      -0.00014413       0.00026700      -0.00000000
O        7.90685845       2.06755110       2.39502545        6       0.00014413      -0.00009460      -0.00024968
O        3.97739966       4.34760930       2.03455265        7      -0.00014413       0.00009460       0.00024968
O        6.06714899       4.17972037       4.27188083        8       0.00000000      -0.00017240       0.00024968
O        5.06081386       1.43590118       3.34472271        9       0.00014413      -0.00026700      -0.00000000
