10
Lattice="6.361541687080882 0.07778598292049405 0.05371012816015389 3.555746366358742 5.275597698245515 0.05371012816014228 3.5557463663587336 1.9194032148161955 4.91433689835706" Properties=species:S:1:pos:R:3:spacegroup_kinds:I:1:forces:R:3 spacegroup="P 1" unit_cell=conventional occupancy="_JSON {\"0\": {\"In\": 1}, \"1\": {\"In\": 1}, \"2\": {\"In\": 1}, \"3\": {\"In\": 1}, \"4\": {\"O\": 1}, \"5\": {\"O\": 1}, \"6\": {\"O\": 1}, \"7\": {\"O\": 1}, \"8\": {\"O\": 1}, \"9\": {\"O\": 1}}" n_minim_iter=3 energy=-11285.599798414492 stress="0.11377847525472533 -9.789659240287402e-05 -6.759622161311125e-05 -9.789659240287402e-05 0.113906986447486 -3.648865571412293e-05 -6.759622161311125e-05 -3.648865571412293e-05 0.11393463643585426" free_energy=-11285.599798414492 pbc="T T T"
In      11.45253804       6.18211652       4.26866458        0      -0.00290690      -0.00156915      -0.00108348
In       8.75701360       4.72706384       3.26397116        1       0.00290690       0.00156915       0.00108348
In       4.71602083       2.54572307       1.75778600        2      -0.00290690      -0.00156915      -0.00108348
In       2.02049639       1.09067039       0.75309258        3       0.00290690       0.00156915       0.00108348
O        6.54902945       2.54962778       0.27932237        4      -0.00000000      -0.00000511       0.00000740
O        7.74793737       5.56743739       1.30914942        5       0.00000427      -0.00000791      -0.00000000
O        8.90586791       2.43678057       2.73649082        6      -0.00000427       0.00000280       0.00000740
O        4.56716652       4.83600634       2.28526634        7       0.00000427      -0.00000280      -0.00000740
O        6.92400498       4.72315913       4.74243479        8      -0.00000000       0.00000511      -0.00000740
O        5.72509706       1.70534952       3.71260774        9      -0.00000427       0.00000791      -0.00000000
