10
Lattice="6.359298477937439 0.0755157992782017 0.05214259825570817 3.5526175836538414 5.274968063576459 0.052142598255696566 3.552617583653833 1.9177142879458589 4.914303494098916" Properties=species:S:1:pos:R:3:spacegroup_kinds:I:1:forces:R:3 spacegroup="P 1" unit_cell=conventional occupancy="_JSON {\"0\": {\"In\": 1}, \"1\": {\"In\": 1}, \"2\": {\"In\": 1}, \"3\": {\"In\": 1}, \"4\": {\"O\": 1}, \"5\": {\"O\": 1}, \"6\": {\"O\": 1}, \"7\": {\"O\": 1}, \"8\": {\"O\": 1}, \"9\": {\"O\": 1}}" n_minim_iter=1 energy=-11285.596724922061 stress="0.1151558939441984 -0.000664969890604442 -0.0004591523657957027 -0.000664969890604442 0.11602881578612043 -0.0002478519093377069 -0.0004591523657957027 -0.0002478519093377069 0.11621663039054662" free_energy=-11285.596724922061 pbc="T T T"
In      11.44853440       6.17995534       4.26717232        0      -0.02799400      -0.01511125      -0.01043411
In       8.74826607       4.72234190       3.26071072        1       0.02799400       0.01511125       0.01043411
In       4.71626758       2.54585627       1.75787798        2      -0.02799400      -0.01511125      -0.01043411
In       2.01599925       1.08824282       0.75141637        3       0.02799400       0.01511125       0.01043411
O        6.54578266       2.54177940       0.28580764        4       0.00000000       0.04956609      -0.07178436
O        7.74777947       5.55621995       1.30678977        5      -0.04143750       0.07676408       0.00000000
O        8.89640342       2.43670807       2.74295938        6       0.04143750      -0.02719800      -0.07178436
O        4.56813023       4.83149009       2.27562931        7      -0.04143750       0.02719800       0.07178436
O        6.91875100       4.72641877       4.73278106        8      -0.00000000      -0.04956609       0.07178436
O        5.71675419       1.71197822       3.71179892        9       0.04143750      -0.07676408       0.00000000
10
Lattice="6.368991727286402 0.08531654640475575 0.058909876426768794 3.5661299547888534 5.27769378430491 0.058909876426757185 3.5661299547888454 1.9250083089260142 4.914454706780518" Properties=species:S:1:pos:R:3:spacegroup_kinds:I:1:forces:R:3 spacegroup="P 1" unit_cell=conventional occupancy="_JSON {\"0\": {\"In\": 1}, \"1\": {\"In\": 1}, \"2\": {\"In\": 1}, \"3\": {\"In\": 1}, \"4\": {\"O\": 1}, \"5\": {\"O\": 1}, \"6\": {\"O\": 1}, \"7\": {\"O\": 1}, \"8\": {\"O\": 1}, \"9\": {\"O\": 1}}" n_minim_iter=2 energy=-11285.597455607241 stress="0.11596161742392735 0.0005307238893043727 0.0003664573879100485 0.0005307238893043727 0.11526492351098265 0.0001978148651990487 0.0003664573879100485 0.0001978148651990487 0.1151150254498955" free_energy=-11285.597455607241 pbc="T T T"
In      11.47935373       6.19659171       4.27865950        0      -0.02236842      -0.01207454      -0.00833730
In       8.77252374       4.73543626       3.26975219        1       0.02236842       0.01207454       0.00833730
In       4.72872791       2.55258239       1.76252227        2      -0.02236842      -0.01207454      -0.00833730
In       2.02189792       1.09142694       0.75361496        3       0.02236842       0.01207454       0.00833730
O        6.55980878       2.55140723       0.29294242        4       0.00000000       0.04090311      -0.05923815
O        7.76875210       5.56708572       1.31697849        5      -0.03419520       0.06334754      -0.00000000
O        8.91699541       2.45033550       2.75016978        6       0.03419520      -0.02244443      -0.05923815
O        4.58425624       4.83768316       2.28210469        7      -0.03419520       0.02244443       0.05923815
O        6.94144287       4.73661142       4.73933204        8      -0.00000000      -0.04090311       0.05923815
O        5.73249955       1.72093293       3.71529597        9       0.03419520      -0.06334754       0.00000000
10
Lattice="6.361541687080882 0.07778598292049405 0.05371012816015389 3.555746366358742 5.275597698245515 0.05371012816014228 3.5557463663587336 1.9194032148161955 4.91433689835706" Properties=species:S:1:pos:R:3:spacegroup_kinds:I:1:forces:R:3 spacegroup="P 1" unit_cell=conventional occupancy="_JSON {\"0\": {\"In\": 1}, \"1\": {\"In\": 1}, \"2\": {\"In\": 1}, \"3\": {\"In\": 1}, \"4\": {\"O\": 1}, \"5\": {\"O\": 1}, \"6\": {\"O\": 1}, \"7\": {\"O\": 1}, \"8\": {\"O\": 1}, \"9\": {\"O\": 1}}" n_minim_iter=3 energy=-11285.599798414492 stress="0.11377847525472533 -9.789659240287402e-05 -6.759622161311125e-05 -9.789659240287402e-05 0.113906986447486 -3.648865571412293e-05 -6.759622161311125e-05 -3.648865571412293e-05 0.11393463643585426" free_energy=-11285.599798414492 pbc="T T T"
In      11.45253804       6.18211652       4.26866458        0      -0.00290690      -0.00156915      -0.00108348
In       8.75701360       4.72706384       3.26397116        1       0.00290690       0.00156915       0.00108348
In       4.71602083       2.54572307       1.75778600        2      -0.00290690      -0.00156915      -0.00108348
In       2.02049639       1.09067039       0.75309258        3       0.00290690       0.00156915       0.00108348
O        6.54902945       2.54962778       0.27932237        4      -0.00000000      -0.00000511       0.00000740
O        7.74793737       5.56743739       1.30914942        5       0.00000427      -0.00000791      -0.00000000
O        8.90586791       2.43678057       2.73649082        6      -0.00000427       0.00000280       0.00000740
O        4.56716652       4.83600634       2.28526634        7       0.00000427      -0.00000280      -0.00000740
O        6.92400498       4.72315913       4.74243479        8      -0.00000000       0.00000511      -0.00000740
O        5.72509706       1.70534952       3.71260774        9      -0.00000427       0.00000791      -0.00000000
