10
Lattice="6.278380058372377 0.08135918876510213 0.05617737658525937 3.51310098185257 5.204113465929713 0.056177376585248254 3.513100981852564 1.8963831004197855 4.846615726499595" Properties=species:S:1:pos:R:3:spacegroup_kinds:I:1:forces:R:3 spacegroup="P 1" unit_cell=conventional occupancy="_JSON {\"0\": {\"In\": 1}, \"1\": {\"In\": 1}, \"2\": {\"In\": 1}, \"3\": {\"In\": 1}, \"4\": {\"O\": 1}, \"5\": {\"O\": 1}, \"6\": {\"O\": 1}, \"7\": {\"O\": 1}, \"8\": {\"O\": 1}, \"9\": {\"O\": 1}}" n_minim_iter=3 energy=-11286.31172263115 stress="0.10067119543172581 2.7274011146688895e-05 1.8832321890596062e-05 2.7274011146688895e-05 0.1006353921865377 1.0165747391960077e-05 1.8832321890596062e-05 1.0165747391960077e-05 0.10062768889386105" free_energy=-11286.31172263115 pbc="T T T"
In      11.31898656       6.11002500       4.21888640        0      -0.00693174      -0.00374178      -0.00258364
In       8.63788649       4.66275864       3.21956932        1       0.00693174       0.00374178       0.00258364
In       4.66669554       2.51909712       1.73940116        2      -0.00693174      -0.00374178      -0.00258364
In       1.98559548       1.07183077       0.74008408        3       0.00693174       0.00374178       0.00258364
O        6.46533554       2.50656447       0.29689058        4       0.00000000      -0.00267614       0.00387574
O        7.66141079       5.47649582       1.29592000        5       0.00223727      -0.00414460      -0.00000000
O        8.78236127       2.41646048       2.72019844        6      -0.00223727       0.00146846       0.00387574
O        4.52222076       4.76539529       2.23877204        7       0.00223727      -0.00146846      -0.00387574
O        6.83924649       4.67529130       4.66207991        8      -0.00000000       0.00267614      -0.00387574
O        5.64317124       1.70535995       3.66305049        9      -0.00223727       0.00414460       0.00000000
