10
Lattice="5.9530806713181095 0.031085344665802282 0.021463993681340516 3.2925729174310776 4.959747913077206 0.02146399368134007 3.2925729174310785 1.7773413487885248 4.630401472246766" Properties=species:S:1:pos:R:3:spacegroup_kinds:I:1:forces:R:3 spacegroup="P 1" unit_cell=conventional occupancy="_JSON {\"0\": {\"In\": 1}, \"1\": {\"In\": 1}, \"2\": {\"In\": 1}, \"3\": {\"In\": 1}, \"4\": {\"O\": 1}, \"5\": {\"O\": 1}, \"6\": {\"O\": 1}, \"7\": {\"O\": 1}, \"8\": {\"O\": 1}, \"9\": {\"O\": 1}}" n_minim_iter=6 energy=-11287.642736335107 stress="0.021287099763513548 6.814440513677453e-05 4.705275414504846e-05 6.814440513677453e-05 0.021197644977159365 2.5399226749972106e-05 4.705275414504846e-05 2.5399226749972106e-05 0.021178398219287936" free_energy=-11287.642736335107 pbc="T T T"
In      10.73088617       5.79256654       3.99968580        0       0.00005870       0.00003168       0.00002188
In       8.07645360       4.35969538       3.01030840        1      -0.00005870      -0.00003168      -0.00002188
In       4.46177291       2.40847923       1.66302107        2       0.00005870       0.00003168       0.00002188
In       1.80734035       0.97560808       0.67364367        3      -0.00005870      -0.00003168      -0.00002188
O        6.11109697       2.35000654       0.24867583        4       0.00000000      -0.00192020       0.00278093
O        7.22031693       5.18239050       1.18979636        5       0.00160529      -0.00297385      -0.00000000
O        8.29444992       2.24374700       2.56387657        6      -0.00160529       0.00105365       0.00278093
O        4.24377659       4.52442762       2.10945290        7       0.00160529      -0.00105365      -0.00278093
O        6.42712955       4.41816808       4.42465363        8       0.00000000       0.00192020      -0.00278093
O        5.31790959       1.58578412       3.48353310        9      -0.00160529       0.00297385       0.00000000
