10
Lattice="6.001091459760644 0.031336043755703535 0.02163709788009981 3.319127071573828 4.999747607509418 0.021637097880100698 3.319127071573829 1.7916753657787485 4.667745032289404" Properties=species:S:1:pos:R:3:spacegroup_kinds:I:1:forces:R:3 spacegroup="P 1" unit_cell=conventional occupancy="_JSON {\"0\": {\"In\": 1}, \"1\": {\"In\": 1}, \"2\": {\"In\": 1}, \"3\": {\"In\": 1}, \"4\": {\"O\": 1}, \"5\": {\"O\": 1}, \"6\": {\"O\": 1}, \"7\": {\"O\": 1}, \"8\": {\"O\": 1}, \"9\": {\"O\": 1}}" n_minim_iter=1 energy=-11287.536485699015 stress="0.042456544208120006 -0.00038848128899416875 -0.0002682408707529914 -0.00038848128899416875 0.04296651286485376 -0.00014479727669973125 -0.0002682408707529914 -0.00014479727669973125 0.04307623581719995" free_energy=-11287.536485699015 pbc="T T T"
In      10.81742931       5.83928280       4.03194272        0      -0.03966980      -0.02141389      -0.01478599
In       8.14158910       4.39485574       3.03458613        1       0.03966980       0.02141389       0.01478599
In       4.49775651       2.42790329       1.67643311        2      -0.03966980      -0.02141389      -0.01478599
In       1.82191630       0.98347623       0.67907651        3       0.03966980       0.02141389       0.01478599
O        6.16038214       2.36895902       0.25068137        4      -0.00000000      -0.02391254       0.03463147
O        7.27854781       5.22418577       1.19939191        5       0.01999101      -0.03703388       0.00000000
O        8.36134354       2.26184252       2.58455388        6      -0.01999101       0.01312133       0.03463147
O        4.27800208       4.56091651       2.12646535        7       0.01999101      -0.01312133      -0.03463147
O        6.47896348       4.45380001       4.46033787        8      -0.00000000       0.02391254      -0.03463147
O        5.36079781       1.59857325       3.51162733        9      -0.01999101       0.03703388      -0.00000000
10
Lattice="6.0115869815981835 0.04205852602551412 0.029040821215382574 3.3338502423247736 5.002638255828944 0.02904082121538347 3.3338502423247736 1.7996229802483914 4.667824977111076" Properties=species:S:1:pos:R:3:spacegroup_kinds:I:1:forces:R:3 spacegroup="P 1" unit_cell=conventional occupancy="_JSON {\"0\": {\"In\": 1}, \"1\": {\"In\": 1}, \"2\": {\"In\": 1}, \"3\": {\"In\": 1}, \"4\": {\"O\": 1}, \"5\": {\"O\": 1}, \"6\": {\"O\": 1}, \"7\": {\"O\": 1}, \"8\": {\"O\": 1}, \"9\": {\"O\": 1}}" n_minim_iter=2 energy=-11287.53703445712 stress="0.042957065186207066 0.0005884447932327871 0.00040631286124565296 0.0005884447932327871 0.042184599665656665 0.00021932897671239808 0.00040631286124565296 0.00021932897671239808 0.04201839886787428" free_energy=-11287.53703445712 pbc="T T T"
In      10.85029837       5.85702563       4.04419389        0      -0.05579471      -0.03011816      -0.02079617
In       8.16863284       4.40945403       3.04466604        1       0.05579471       0.03011816       0.02079617
In       4.51065464       2.43486574       1.68124058        2      -0.05579471      -0.03011816      -0.02079617
In       1.82898910       0.98729415       0.68171273        3       0.05579471       0.03011816       0.02079617
O        6.17561536       2.37790050       0.26072635        4       0.00000000      -0.01800427       0.02607478
O        7.30265575       5.23357941       1.21051748        5       0.01505166      -0.02788360      -0.00000000
O        8.38242522       2.27756091       2.59463884        6      -0.01505166       0.00987933       0.02607478
O        4.29686226       4.56675886       2.13126779        7       0.01505166      -0.00987933      -0.02607478
O        6.50367211       4.46641928       4.46518028        8       0.00000000       0.01800427      -0.02607478
O        5.37663173       1.61074036       3.51538915        9      -0.01505166       0.02788360       0.00000000
10
Lattice="6.014706452279203 0.045239619054567345 0.0312373212513134 3.338221373666742 5.003500613632001 0.03123732125131429 3.338221373666742 1.8019825308703183 4.667853159568427" Properties=species:S:1:pos:R:3:spacegroup_kinds:I:1:forces:R:3 spacegroup="P 1" unit_cell=conventional occupancy="_JSON {\"0\": {\"In\": 1}, \"1\": {\"In\": 1}, \"2\": {\"In\": 1}, \"3\": {\"In\": 1}, \"4\": {\"O\": 1}, \"5\": {\"O\": 1}, \"6\": {\"O\": 1}, \"7\": {\"O\": 1}, \"8\": {\"O\": 1}, \"9\": {\"O\": 1}}" n_minim_iter=3 energy=-11287.538901679276 stress="0.04138646537176424 -6.848395770361644e-05 -4.728721031090739e-05 -6.848395770361644e-05 0.041476365896565545 -2.5525786698113517e-05 -4.728721031090739e-05 -2.5525786698113517e-05 0.041495708558152745" free_energy=-11287.538901679276 pbc="T T T"
In      10.85216302       5.85803217       4.04488890        0      -0.02456447      -0.01325998      -0.00915583
In       8.18456078       4.41805199       3.05060281        1       0.02456447       0.01325998       0.00915583
In       4.50658843       2.43267079       1.67972500        2      -0.02456447      -0.01325998      -0.00915583
In       1.83898618       0.99269060       0.68543891        3       0.02456447       0.01325998       0.00915583
O        6.18014053       2.37689158       0.26901288        4      -0.00000000       0.01642632      -0.02378951
O        7.31287788       5.23069692       1.21381927        5      -0.01373249       0.02543980       0.00000000
O        8.38562455       2.28423673       2.60293946        6       0.01373249      -0.00901348      -0.02378951
O        4.30552466       4.56648604       2.12738835        7      -0.01373249       0.00901348       0.02378951
O        6.51100868       4.47383120       4.46131493        8      -0.00000000      -0.01642632       0.02378951
O        5.37827133       1.62002585       3.51650853        9       0.01373249      -0.02543980      -0.00000000
10
Lattice="6.019124896199589 0.04974080036872536 0.03434532369826539 3.3444088803900445 5.004724558258846 0.03434532369826623 3.344408880390045 1.8053225667088606 4.667896521499901" Properties=species:S:1:pos:R:3:spacegroup_kinds:I:1:forces:R:3 spacegroup="P 1" unit_cell=conventional occupancy="_JSON {\"0\": {\"In\": 1}, \"1\": {\"In\": 1}, \"2\": {\"In\": 1}, \"3\": {\"In\": 1}, \"4\": {\"O\": 1}, \"5\": {\"O\": 1}, \"6\": {\"O\": 1}, \"7\": {\"O\": 1}, \"8\": {\"O\": 1}, \"9\": {\"O\": 1}}" n_minim_iter=4 energy=-11287.539345791487 stress="0.041223972836315376 5.609794429482127e-05 3.873484228065982e-05 5.609794429482127e-05 0.04115033172557421 2.0909191062290063e-05 3.873484228065982e-05 2.0909191062290063e-05 0.0411344873792655" free_energy=-11287.539345791487 pbc="T T T"
In      10.86319802       5.86398890       4.04900193        0      -0.01157299      -0.00624714      -0.00431356
In       8.19871597       4.42569300       3.05587883        1       0.01157299       0.00624714       0.00431356
In       4.50922670       2.43409494       1.68070835        2      -0.01157299      -0.00624714      -0.00431356
In       1.84474464       0.99579904       0.68758524        3       0.01157299       0.00624714       0.00431356
O        6.18654812       2.38142463       0.27210831        4       0.00000000       0.00727118      -0.01053053
O        7.32236571       5.23585081       1.21849212        5      -0.00607874       0.01126104       0.00000000
O        8.39513941       2.29041476       2.60605657        6       0.00607874      -0.00398986      -0.01053053
O        4.31280326       4.56937317       2.13053060        7      -0.00607874       0.00398986       0.01053053
O        6.52139455       4.47836331       4.46447886        8       0.00000000      -0.00727118       0.01053053
O        5.38557696       1.62393712       3.51809506        9       0.00607874      -0.01126104       0.00000000
10
Lattice="6.020725546880929 0.051370113654891074 0.035470341627297994 3.3466493064167357 5.005168670414804 0.035470341627298854 3.346649306416736 1.8065319558145834 4.667913222957106" Properties=species:S:1:pos:R:3:spacegroup_kinds:I:1:forces:R:3 spacegroup="P 1" unit_cell=conventional occupancy="_JSON {\"0\": {\"In\": 1}, \"1\": {\"In\": 1}, \"2\": {\"In\": 1}, \"3\": {\"In\": 1}, \"4\": {\"O\": 1}, \"5\": {\"O\": 1}, \"6\": {\"O\": 1}, \"7\": {\"O\": 1}, \"8\": {\"O\": 1}, \"9\": {\"O\": 1}}" n_minim_iter=5 energy=-11287.539439980059 stress="0.041004542485149606 -1.4197892069070164e-06 -9.803443701545217e-07 -1.4197892069070164e-06 0.04100640627568449 -5.291932347739797e-07 -9.803443701545217e-07 -5.291932347739797e-07 0.04100680728205467" free_energy=-11287.539439980059 pbc="T T T"
In      10.86624581       5.86563411       4.05013792        0      -0.00019488      -0.00010520      -0.00007264
In       8.20479044       4.42897202       3.05814294        1       0.00019488       0.00010520       0.00007264
In       4.50923373       2.43409874       1.68071097        2      -0.00019488      -0.00010520      -0.00007264
In       1.84777836       0.99743665       0.68871599        3       0.00019488       0.00010520       0.00007264
O        6.18886882       2.38332286       0.27285679        4      -0.00000000       0.00006421      -0.00009299
O        7.32558685       5.23811536       1.22018382        5      -0.00005368       0.00009944       0.00000000
O        8.39880009       2.29251057       2.60681340        6       0.00005368      -0.00003523      -0.00009299
O        4.31522408       4.57056018       2.13204051        7      -0.00005368       0.00003523       0.00009299
O        6.52515535       4.47974789       4.46599712        8      -0.00000000      -0.00006421       0.00009299
O        5.38843732       1.62495540       3.51867009        9       0.00005368      -0.00009944      -0.00000000
