10
Lattice="6.194316431502872 0.08653511549800683 0.059751281262349284 3.471300533903695 5.130995710690145 0.05975128126234956 3.471300533903693 1.8738190854683932 4.77697490402321" Properties=species:S:1:pos:R:3:spacegroup_kinds:I:1:forces:R:3 spacegroup="P 1" unit_cell=conventional occupancy="_JSON {\"0\": {\"In\": 1}, \"1\": {\"In\": 1}, \"2\": {\"In\": 1}, \"3\": {\"In\": 1}, \"4\": {\"O\": 1}, \"5\": {\"O\": 1}, \"6\": {\"O\": 1}, \"7\": {\"O\": 1}, \"8\": {\"O\": 1}, \"9\": {\"O\": 1}}" n_minim_iter=1 energy=-11286.916370067624 stress="0.08290827544855957 0.0003114367730228681 0.0002150427153718578 0.0003114367730228681 0.08249944496584004 0.00011608074262974496 0.0002150427153718578 0.00011608074262974496 0.08241148252528019" free_energy=-11286.916370067624 pbc="T T T"
In      11.19795510       6.04469183       4.17377477        0      -0.05716136      -0.03085589      -0.02130556
In       8.50742116       4.59233305       3.17094143        1       0.05716136       0.03085589       0.02130556
In       4.62949635       2.49901688       1.72553604        2      -0.05716136      -0.03085589      -0.02130556
In       1.93896241       1.04665809       0.72270270        3       0.05716136       0.03085589       0.02130556
O        6.38138760       2.46759701       0.31046826        4       0.00000000       0.00958638      -0.01388352
O        7.57238733       5.39058274       1.28387065        5      -0.00801426       0.01484663      -0.00000000
O        8.66168839       2.39552671       2.69895571        6       0.00801426      -0.00526025      -0.01388352
O        4.47522912       4.69582321       2.19752176        7      -0.00801426       0.00526025       0.01388352
O        6.75552991       4.62375292       4.58600922        8       0.00000000      -0.00958638       0.01388352
O        5.56453018       1.70076719       3.61260682        9       0.00801426      -0.01484663      -0.00000000
10
Lattice="6.186779829246984 0.07892369413617 0.0544957017674814 3.460801849396749 5.12887162680891 0.0544957017674817 3.4608018493967467 1.8681518621296798 4.776850695365937" Properties=species:S:1:pos:R:3:spacegroup_kinds:I:1:forces:R:3 spacegroup="P 1" unit_cell=conventional occupancy="_JSON {\"0\": {\"In\": 1}, \"1\": {\"In\": 1}, \"2\": {\"In\": 1}, \"3\": {\"In\": 1}, \"4\": {\"O\": 1}, \"5\": {\"O\": 1}, \"6\": {\"O\": 1}, \"7\": {\"O\": 1}, \"8\": {\"O\": 1}, \"9\": {\"O\": 1}}" n_minim_iter=2 energy=-11286.916773948888 stress="0.08181994909342248 -0.0004908164555591722 -0.0003389018656016395 -0.0004908164555591722 0.08246425556507737 -0.00018294030668695622 -0.0003389018656016395 -0.00018294030668695622 0.08260288214048886" free_energy=-11286.916773948888 pbc="T T T"
In      11.17212005       6.03074599       4.16414536        0      -0.04487607      -0.02422424      -0.01672650
In       8.49045525       4.58317479       3.16461779        1       0.04487607       0.02422424       0.01672650
In       4.61792829       2.49277240       1.72122431        2      -0.04487607      -0.02422424      -0.01672650
In       1.93626349       1.04520120       0.72169674        3       0.04487607       0.02422424       0.01672650
O        6.37048580       2.46090380       0.30378668        4      -0.00000000       0.00698053      -0.01010959
O        7.55543096       5.38335601       1.27595623        5      -0.00583576       0.01081090       0.00000000
O        8.64634249       2.38450818       2.69221203        6       0.00583576      -0.00383037      -0.01010959
O        4.46204105       4.69143901       2.19363008        7      -0.00583576       0.00383037       0.01010959
O        6.73789774       4.61504339       4.58205542        8       0.00000000      -0.00698053       0.01010959
O        5.55295257       1.69259118       3.60988587        9       0.00583576      -0.01081090      -0.00000000
10
Lattice="6.192770889543009 0.08497541808670074 0.05867433211666696 3.46914854645483 5.130559469948729 0.05867433211666726 3.469148546454827 1.8726574357886872 4.776948532286625" Properties=species:S:1:pos:R:3:spacegroup_kinds:I:1:forces:R:3 spacegroup="P 1" unit_cell=conventional occupancy="_JSON {\"0\": {\"In\": 1}, \"1\": {\"In\": 1}, \"2\": {\"In\": 1}, \"3\": {\"In\": 1}, \"4\": {\"O\": 1}, \"5\": {\"O\": 1}, \"6\": {\"O\": 1}, \"7\": {\"O\": 1}, \"8\": {\"O\": 1}, \"9\": {\"O\": 1}}" n_minim_iter=3 energy=-11286.917882782182 stress="0.08164126919811451 2.4459730616942015e-05 1.6889100420487112e-05 2.4459730616942015e-05 0.0816091603260454 9.11679026850949e-06 1.6889100420487112e-05 9.11679026850949e-06 0.08160225190094846" free_energy=-11286.917882782182 pbc="T T T"
In      11.18450352       6.03743063       4.16876101        0      -0.00209219      -0.00112937      -0.00077982
In       8.51209846       4.59485787       3.17268479        1       0.00209219       0.00112937       0.00077982
In       4.61896953       2.49333447       1.72161241        2      -0.00209219      -0.00112937      -0.00077982
In       1.94656447       1.05076170       0.72553619        3       0.00209219       0.00112937       0.00077982
O        6.37915245       2.46756196       0.30716281        4      -0.00000000      -0.00703052       0.01018199
O        7.56779359       5.39117141       1.28224863        5       0.00587755      -0.01088833       0.00000000
O        8.65965985       2.39253479       2.69563707        6      -0.00587755       0.00385780       0.01018199
O        4.47140815       4.69565754       2.19866013        7       0.00587755      -0.00385780      -0.01018199
O        6.75191555       4.62063038       4.58713440        8       0.00000000       0.00703052      -0.01018199
O        5.56327440       1.69702092       3.61204857        9      -0.00587755       0.01088833      -0.00000000
10
Lattice="6.191923507553943 0.0841200153724484 0.058083688562570804 3.4679684485118756 5.130320432537461 0.0580836885625711 3.4679684485118716 1.872020415160068 4.776934270074525" Properties=species:S:1:pos:R:3:spacegroup_kinds:I:1:forces:R:3 spacegroup="P 1" unit_cell=conventional occupancy="_JSON {\"0\": {\"In\": 1}, \"1\": {\"In\": 1}, \"2\": {\"In\": 1}, \"3\": {\"In\": 1}, \"4\": {\"O\": 1}, \"5\": {\"O\": 1}, \"6\": {\"O\": 1}, \"7\": {\"O\": 1}, \"8\": {\"O\": 1}, \"9\": {\"O\": 1}}" n_minim_iter=4 energy=-11286.917909766535 stress="0.08163196180760503 -6.170745757154338e-05 -4.260813233111917e-05 -6.170745757154338e-05 0.08171296665932754 -2.3000005646863206e-05 -4.260813233111917e-05 -2.3000005646863206e-05 0.08173039536057715" free_energy=-11286.917909766535 pbc="T T T"
In      11.18227760       6.03622907       4.16793135        0      -0.00588286      -0.00317558      -0.00219270
In       8.50951302       4.59346224       3.17172113        1       0.00588286       0.00317558       0.00219270
In       4.61834739       2.49299864       1.72138053        2      -0.00588286      -0.00317558      -0.00219270
In       1.94558282       1.05023181       0.72517030        3       0.00588286       0.00317558       0.00219270
O        6.37792686       2.46633907       0.30709333        4       0.00000000      -0.00279393       0.00404632
O        7.56628086       5.38963019       1.28135910        5       0.00233574      -0.00432702       0.00000000
O        8.65754131       2.39155453       2.69556046        6      -0.00233574       0.00153309       0.00404632
O        4.47031911       4.69490635       2.19754119        7       0.00233574      -0.00153309      -0.00404632
O        6.74993355       4.62012180       4.58600832        8       0.00000000       0.00279393      -0.00404632
O        5.56157956       1.69683068       3.61174255        9      -0.00233574       0.00432702      -0.00000000
