10
Lattice="5.0679218229546565 -0.29090672848025173 -0.20086700820237555 2.537679941841347 4.396434787533101 -0.20086700820237577 2.5376799418413345 1.3698477159755214 4.1824040492343775" Properties=species:S:1:pos:R:3:spacegroup_kinds:I:1:forces:R:3 spacegroup="P 1" unit_cell=conventional occupancy="_JSON {\"0\": {\"In\": 1}, \"1\": {\"In\": 1}, \"2\": {\"In\": 1}, \"3\": {\"In\": 1}, \"4\": {\"O\": 1}, \"5\": {\"O\": 1}, \"6\": {\"O\": 1}, \"7\": {\"O\": 1}, \"8\": {\"O\": 1}, \"9\": {\"O\": 1}}" n_minim_iter=4 energy=-11281.696407053592 stress="-0.45723351735652495 0.0007213649047056097 0.0004980923302054872 0.0007213649047056097 -0.4581804702782136 0.0002688718264289583 0.0004980923302054872 0.0002688718264289583 -0.4583842131334359" free_energy=-11281.696407053592 pbc="T T T"
In       8.84010896       4.77191898       3.29494300        0       0.00821413       0.00443401       0.00306162
In       6.37481359       3.44114469       2.37606205        1      -0.00821413      -0.00443401      -0.00306162
In       3.76846810       2.03423109       1.40460798        2       0.00821413       0.00443401       0.00306162
In       1.30317274       0.70345680       0.48572703        3      -0.00821413      -0.00443401      -0.00306162
O        5.06978133       1.86761020      -0.08826054        4      -0.00000000      -0.00176420       0.00255501
O        5.80005049       4.41932497       0.74430050        5       0.00147488      -0.00273225      -0.00000000
O        6.87719212       1.55481706       2.00294149        6      -0.00147488       0.00096805       0.00255501
O        3.26608958       3.92055872       1.77772854        7       0.00147488      -0.00096805      -0.00255501
O        5.07350036       3.60776558       3.86893057        8      -0.00000000       0.00176420      -0.00255501
O        4.34323120       1.05605080       3.03636953        9      -0.00147488       0.00273225      -0.00000000
