10
Lattice="5.640340063512336 -0.032345661996837964 -0.022334225088467986 3.067936676041092 4.733101184816809 -0.022334225088474425 3.0679366760410858 1.6560819901437451 4.4339754267751825" Properties=species:S:1:pos:R:3:spacegroup_kinds:I:1:forces:R:3 spacegroup="P 1" unit_cell=conventional occupancy="_JSON {\"0\": {\"In\": 1}, \"1\": {\"In\": 1}, \"2\": {\"In\": 1}, \"3\": {\"In\": 1}, \"4\": {\"O\": 1}, \"5\": {\"O\": 1}, \"6\": {\"O\": 1}, \"7\": {\"O\": 1}, \"8\": {\"O\": 1}, \"9\": {\"O\": 1}}" n_minim_iter=1 energy=-11286.920560222934 stress="-0.1251778403590508 0.0016493923826718664 0.0011388822632334384 0.0016493923826718664 -0.1273430370947292 0.0006147722733090251 0.0011388822632334384 0.0006147722733090251 -0.12780889274093252" free_energy=-11286.920560222934 pbc="T T T"
In      10.11869892       5.46210591       3.77150738        0       0.05028794       0.02714559       0.01874365
In       7.54562121       4.07315037       2.81245309        1      -0.05028794      -0.02714559      -0.01874365
In       4.23059221       2.28368716       1.57685389        2       0.05028794       0.02714559       0.01874365
In       1.65751450       0.89473161       0.61779960        3      -0.05028794      -0.02714559      -0.01874365
O        5.76422339       2.21511671       0.15626358        4       0.00000000       0.05705389      -0.08262861
O        6.76140951       4.93399072       1.07499252        5      -0.04769734       0.08836061      -0.00000000
O        7.83497394       2.04875414       2.37325129        6       0.04769734      -0.03130672      -0.08262861
O        3.94123948       4.30808339       2.01605569        7      -0.04769734       0.03130672       0.08262861
O        6.01199003       4.14172081       4.23304340        8      -0.00000000      -0.05705389       0.08262861
O        5.01480391       1.42284681       3.31431446        9       0.04769734      -0.08836061       0.00000000
10
Lattice="5.630319287659471 -0.04279594552134799 -0.029549999015049913 3.053701568291297 4.730458065109404 -0.029549999015056345 3.0537015682912902 1.6483978336367682 4.434060361594331" Properties=species:S:1:pos:R:3:spacegroup_kinds:I:1:forces:R:3 spacegroup="P 1" unit_cell=conventional occupancy="_JSON {\"0\": {\"In\": 1}, \"1\": {\"In\": 1}, \"2\": {\"In\": 1}, \"3\": {\"In\": 1}, \"4\": {\"O\": 1}, \"5\": {\"O\": 1}, \"6\": {\"O\": 1}, \"7\": {\"O\": 1}, \"8\": {\"O\": 1}, \"9\": {\"O\": 1}}" n_minim_iter=2 energy=-11286.921772472813 stress="-0.12651727036028546 -0.0006207127645022886 -0.00042859344174112047 -0.0006207127645022886 -0.1257024459034444 -0.00023135610516377667 -0.00042859344174112047 -0.00023135610516377667 -0.12552713131562385" free_energy=-11286.921772472813 pbc="T T T"
In      10.08609795       5.44450780       3.75935613        0       0.09313604       0.05027513       0.03471427
In       7.52048570       4.05958214       2.80308442        1      -0.09313604      -0.05027513      -0.03471427
In       4.21723674       2.27647783       1.57187595        2       0.09313604       0.05027513       0.03471427
In       1.65162449       0.89155216       0.61560424        3      -0.09313604      -0.05027513      -0.03471427
O        5.74959025       2.20628766       0.14676562        4       0.00000000       0.03970881      -0.05750849
O        6.73832918       4.92471283       1.06419009        5      -0.03319676       0.06149790      -0.00000000
O        7.81455290       2.03361980       2.36379580        6       0.03319676      -0.02178909      -0.05750849
O        3.92316953       4.30244017       2.01116457        7      -0.03319676       0.02178909       0.05750849
O        5.98813218       4.12977231       4.22819475        8      -0.00000000      -0.03970881       0.05750849
O        4.99939326       1.41134714       3.31077027        9       0.03319676      -0.06149790      -0.00000000
10
Lattice="5.627929068916168 -0.045293309298621534 -0.03127439361037123 3.05030219448194 4.7298301883849385 -0.031274393610377656 3.0503021944819335 1.6465628408263213 4.43408417938397" Properties=species:S:1:pos:R:3:spacegroup_kinds:I:1:forces:R:3 spacegroup="P 1" unit_cell=conventional occupancy="_JSON {\"0\": {\"In\": 1}, \"1\": {\"In\": 1}, \"2\": {\"In\": 1}, \"3\": {\"In\": 1}, \"4\": {\"O\": 1}, \"5\": {\"O\": 1}, \"6\": {\"O\": 1}, \"7\": {\"O\": 1}, \"8\": {\"O\": 1}, \"9\": {\"O\": 1}}" n_minim_iter=3 energy=-11286.926449636185 stress="-0.12365476267123676 -0.0001349161596122994 -9.315771196694886e-05 -0.0001349161596122994 -0.12347765500952461 -5.0286829918808866e-05 -9.315771196694886e-05 -5.0286829918808866e-05 -0.12343954918653177" free_energy=-11286.926449636185 pbc="T T T"
In      10.08628875       5.44461080       3.75942725        0       0.05032388       0.02716499       0.01875704
In       7.50651144       4.05203879       2.79787584        1      -0.05032388      -0.02716499      -0.01875704
In       4.22202202       2.27906094       1.57365955        2       0.05032388       0.02716499       0.01875704
In       1.64224472       0.88648893       0.61210815        3      -0.05032388      -0.02716499      -0.01875704
O        5.74609790       2.20857642       0.13812813        4      -0.00000000      -0.00521638       0.00755465
O        6.72914312       4.92930918       1.06160946        5       0.00436092      -0.00807872       0.00000000
O        7.81335488       2.02759204       2.35517022        6      -0.00436092       0.00286234       0.00755465
O        3.91517859       4.30350769       2.01636517        7       0.00436092      -0.00286234      -0.00755465
O        5.98243556       4.12252331       4.23340726        8      -0.00000000       0.00521638      -0.00755465
O        4.99939035       1.40179055       3.30992594        9      -0.00436092       0.00807872      -0.00000000
10
Lattice="5.6265009343490435 -0.046786330256436665 -0.03230530360185376 3.048270372881872 4.729455513982572 -0.032305303601860194 3.0482703728818645 1.6454660570545654 4.434099068183109" Properties=species:S:1:pos:R:3:spacegroup_kinds:I:1:forces:R:3 spacegroup="P 1" unit_cell=conventional occupancy="_JSON {\"0\": {\"In\": 1}, \"1\": {\"In\": 1}, \"2\": {\"In\": 1}, \"3\": {\"In\": 1}, \"4\": {\"O\": 1}, \"5\": {\"O\": 1}, \"6\": {\"O\": 1}, \"7\": {\"O\": 1}, \"8\": {\"O\": 1}, \"9\": {\"O\": 1}}" n_minim_iter=4 energy=-11286.926933454877 stress="-0.12264322017839842 5.159206872840004e-05 3.5623598889423894e-05 5.159206872840004e-05 -0.12271094631865784 1.9229731882447376e-05 3.5623598889423894e-05 1.9229731882447376e-05 -0.1227255180220983" free_energy=-11286.926933454877 pbc="T T T"
In      10.08493152       5.44387816       3.75892137        0       0.02456286       0.01325911       0.00915523
In       7.49963101       4.04832471       2.79531133        1      -0.02456286      -0.01325911      -0.00915523
In       4.22341068       2.27981054       1.57417714        2       0.02456286       0.01325911       0.00915523
In       1.63811017       0.88425709       0.61056710        3      -0.02456286      -0.01325911      -0.00915523
O        5.74401089       2.20856125       0.13496846        4      -0.00000000      -0.01360754       0.01970720
O        6.72480922       4.92991463       1.06006681        5       0.01137597      -0.02107430       0.00000000
O        7.81148294       2.02474805       2.35201799        6      -0.01137597       0.00746676       0.01970720
O        3.91155875       4.30338720       2.01747048        7       0.01137597      -0.00746676      -0.01970720
O        5.97903080       4.11957401       4.23452001        8      -0.00000000       0.01360754      -0.01970720
O        4.99823247       1.39822062       3.30942165        9      -0.01137597       0.02107430       0.00000000
10
Lattice="5.624693172953879 -0.048677159630456 -0.033610894714732574 3.045697671928744 4.7289817558277285 -0.03361089471473899 3.0456976719287354 1.6440773048851434 4.434118622089025" Properties=species:S:1:pos:R:3:spacegroup_kinds:I:1:forces:R:3 spacegroup="P 1" unit_cell=conventional occupancy="_JSON {\"0\": {\"In\": 1}, \"1\": {\"In\": 1}, \"2\": {\"In\": 1}, \"3\": {\"In\": 1}, \"4\": {\"O\": 1}, \"5\": {\"O\": 1}, \"6\": {\"O\": 1}, \"7\": {\"O\": 1}, \"8\": {\"O\": 1}, \"9\": {\"O\": 1}}" n_minim_iter=5 energy=-11286.927072878403 stress="-0.12227942231070758 8.028558754146251e-05 5.543606996714404e-05 8.028558754146251e-05 -0.12238481511701134 2.992456712654749e-05 5.543606996714404e-05 2.992456712654749e-05 -0.12240749104012752" free_energy=-11286.927072878403 pbc="T T T"
In      10.08103636       5.44177554       3.75746954        0      -0.00041703      -0.00022511      -0.00015544
In       7.49309642       4.04479732       2.79287571        1       0.00041703       0.00022511       0.00015544
In       4.22299211       2.27958459       1.57402113        2      -0.00041703      -0.00022511      -0.00015544
In       1.63505216       0.88260637       0.60942729        3       0.00041703       0.00022511       0.00015544
O        5.74136872       2.20696397       0.13325287        4       0.00000000      -0.00578063       0.00837183
O        6.72064121       4.92823767       1.05811332        5       0.00483264      -0.00895259       0.00000000
O        7.80779391       2.02201273       2.35031218        6      -0.00483264       0.00317196       0.00837183
O        3.90829462       4.30236918       2.01658466        7       0.00483264      -0.00317196      -0.00837183
O        5.97471981       4.11741794       4.23364397        8      -0.00000000       0.00578063      -0.00837183
O        4.99544732       1.39614424       3.30878352        9      -0.00483264       0.00895259       0.00000000
10
Lattice="5.624506450721992 -0.04887252140035955 -0.033745789271632826 3.0454318899473765 4.7289328543819416 -0.03374578927163924 3.045431889947368 1.6439338349249957 4.434120686893323" Properties=species:S:1:pos:R:3:spacegroup_kinds:I:1:forces:R:3 spacegroup="P 1" unit_cell=conventional occupancy="_JSON {\"0\": {\"In\": 1}, \"1\": {\"In\": 1}, \"2\": {\"In\": 1}, \"3\": {\"In\": 1}, \"4\": {\"O\": 1}, \"5\": {\"O\": 1}, \"6\": {\"O\": 1}, \"7\": {\"O\": 1}, \"8\": {\"O\": 1}, \"9\": {\"O\": 1}}" n_minim_iter=6 energy=-11286.927096136023 stress="-0.12245469655910654 2.3300527424127837e-05 1.608868688638448e-05 2.3300527424127837e-05 -0.12248528371769905 8.684724613835689e-06 1.608868688638448e-05 8.684724613835689e-06 -0.12249186473659245" free_energy=-11286.927096136023 pbc="T T T"
In      10.08009858       5.44126933       3.75712001        0      -0.00013207      -0.00007129      -0.00004923
In       7.49295677       4.04472194       2.79282366        1       0.00013207       0.00007129       0.00004923
In       4.22241347       2.27927224       1.57380545        2      -0.00013207      -0.00007129      -0.00004923
In       1.63527166       0.88272485       0.60950911        3       0.00013207       0.00007129       0.00004923
O        5.74109579       2.20647087       0.13355077        4       0.00000000      -0.00157134       0.00227570
O        6.72048491       4.92755634       1.05791149        5       0.00131365      -0.00243357       0.00000000
O        7.80713855       2.02191016       2.35061111        6      -0.00131365       0.00086223       0.00227570
O        3.90823169       4.30208401       2.01601800        7       0.00131365      -0.00086223      -0.00227570
O        5.97427445       4.11752331       4.23307835        8      -0.00000000       0.00157134      -0.00227570
O        4.99488533       1.39643784       3.30871762        9      -0.00131365       0.00243357       0.00000000
