10
Lattice="5.702110179156712 -0.022223286836634496 -0.015344867279689358 3.1102936440141504 4.779186941073308 -0.015344867279690918 3.1102936440141473 1.67894641637688 4.474595201089448" Properties=species:S:1:pos:R:3:spacegroup_kinds:I:1:forces:R:3 spacegroup="P 1" unit_cell=conventional occupancy="_JSON {\"0\": {\"In\": 1}, \"1\": {\"In\": 1}, \"2\": {\"In\": 1}, \"3\": {\"In\": 1}, \"4\": {\"O\": 1}, \"5\": {\"O\": 1}, \"6\": {\"O\": 1}, \"7\": {\"O\": 1}, \"8\": {\"O\": 1}, \"9\": {\"O\": 1}}" n_minim_iter=5 energy=-11287.50642758317 stress="-0.05456291386741572 6.284962296717554e-06 4.339678492334196e-06 6.284962296717554e-06 -0.054571164287374005 2.3425721599335804e-06 4.339678492334196e-06 2.3425721599335804e-06 -0.05457293941686738" free_energy=-11287.50642758317 pbc="T T T"
In      10.23611095       5.52548530       3.81526995        0      -0.00002032      -0.00001097      -0.00000758
In       7.64793526       4.12837982       2.85058825        1       0.00002032       0.00001097       0.00000758
In       4.27476222       2.30753026       1.59331722        2      -0.00002032      -0.00001097      -0.00000758
In       1.68658653       0.91042478       0.62863552        3       0.00002032       0.00001097       0.00000758
O        5.83172946       2.23956616       0.17395804        4      -0.00000000       0.00010787      -0.00015622
O        6.85041165       4.98127459       1.09563150        5      -0.00009018       0.00016706       0.00000000
O        7.92334092       2.08522413       2.41125564        6       0.00009018      -0.00005919      -0.00015622
O        3.99935656       4.35068596       2.03264983        7      -0.00009018       0.00005919       0.00015622
O        6.09096802       4.19634392       4.26994743        8      -0.00000000      -0.00010787       0.00015622
O        5.07228583       1.45463549       3.34827397        9       0.00009018      -0.00016706      -0.00000000
