10
Lattice="6.001091459760642 0.03133604375570435 0.021637097880101274 3.3191270715738255 4.999747607509419 0.021637097880100823 3.3191270715738264 1.7916753657787492 4.667745032289403" Properties=species:S:1:pos:R:3:spacegroup_kinds:I:1:forces:R:3 spacegroup="P 1" unit_cell=conventional occupancy="_JSON {\"0\": {\"In\": 1}, \"1\": {\"In\": 1}, \"2\": {\"In\": 1}, \"3\": {\"In\": 1}, \"4\": {\"O\": 1}, \"5\": {\"O\": 1}, \"6\": {\"O\": 1}, \"7\": {\"O\": 1}, \"8\": {\"O\": 1}, \"9\": {\"O\": 1}}" n_minim_iter=6 energy=-11287.642736335107 stress="0.021287099763513548 6.814440513677453e-05 4.705275414504846e-05 6.814440513677453e-05 0.021197644977159365 2.5399226749972106e-05 4.705275414504846e-05 2.5399226749972106e-05 0.021178398219287936" free_energy=-11287.642736335107 pbc="T T T"
In      10.81742931       5.83928280       4.03194272        0       0.00005870       0.00003168       0.00002188
In       8.14158910       4.39485574       3.03458613        1      -0.00005870      -0.00003168      -0.00002188
In       4.49775651       2.42790329       1.67643311        2       0.00005870       0.00003168       0.00002188
In       1.82191630       0.98347623       0.67907651        3      -0.00005870      -0.00003168      -0.00002188
O        6.16038214       2.36895902       0.25068137        4       0.00000000      -0.00192020       0.00278093
O        7.27854781       5.22418577       1.19939191        5       0.00160529      -0.00297385      -0.00000000
O        8.36134354       2.26184252       2.58455388        6      -0.00160529       0.00105365       0.00278093
O        4.27800208       4.56091651       2.12646535        7       0.00160529      -0.00105365      -0.00278093
O        6.47896348       4.45380001       4.46033787        8       0.00000000       0.00192020      -0.00278093
O        5.36079781       1.59857325       3.51162733        9      -0.00160529       0.00297385       0.00000000
