10
Lattice="5.763615633059898 -0.011443216646695146 -0.007901380294781109 3.1530552226319073 4.824690547163967 -0.007901380294782675 3.153055222631907 1.7020292527248497 4.514509688833642" Properties=species:S:1:pos:R:3:spacegroup_kinds:I:1:forces:R:3 spacegroup="P 1" unit_cell=conventional occupancy="_JSON {\"0\": {\"In\": 1}, \"1\": {\"In\": 1}, \"2\": {\"In\": 1}, \"3\": {\"In\": 1}, \"4\": {\"O\": 1}, \"5\": {\"O\": 1}, \"6\": {\"O\": 1}, \"7\": {\"O\": 1}, \"8\": {\"O\": 1}, \"9\": {\"O\": 1}}" n_minim_iter=5 energy=-11287.63856244132 stress="-0.025625544733772897 -3.8079456014976864e-05 -2.629332941904503e-05 -3.8079456014976864e-05 -0.025575556923820887 -1.4193222756685887e-05 -2.629332941904503e-05 -1.4193222756685887e-05 -0.0255648017327227" free_energy=-11287.63856244132 pbc="T T T"
In      10.35532576       5.58983783       3.85970447        0      -0.00048416      -0.00026135      -0.00018046
In       7.74926337       4.18307705       2.88835592        1       0.00048416       0.00026135       0.00018046
In       4.32046272       2.33219954       1.61035101        2      -0.00048416      -0.00026135      -0.00018046
In       1.71440033       0.92543876       0.63900246        3       0.00048416       0.00026135       0.00018046
O        5.89923934       2.26435549       0.19202076        4       0.00000000      -0.00027755       0.00040196
O        6.93967211       5.02857301       1.11677535        5       0.00023203      -0.00042984      -0.00000000
O        8.01186180       2.12223992       2.44927560        6      -0.00023203       0.00015230       0.00040196
O        4.05786429       4.39303667       2.04943133        7       0.00023203      -0.00015230      -0.00040196
O        6.17048675       4.25092110       4.30668618        8       0.00000000       0.00027755      -0.00040196
O        5.13005398       1.48670358       3.38193158        9      -0.00023203       0.00042984      -0.00000000
