40
Lattice="9.47982951502496 7.430068773707615e-10 2.590408274113224e-14 -3.1599431723755043 8.937668979174374 -1.286936298237118e-09 -3.159943171324753 -4.468834488844178 7.740248387439082" Properties=species:S:1:pos:R:3:spacegroup_kinds:I:1:forces:R:3 spacegroup="P 1" unit_cell=conventional occupancy="_JSON {\"0\": {\"In\": 1}, \"1\": {\"In\": 1}, \"2\": {\"In\": 1}, \"3\": {\"In\": 1}, \"4\": {\"In\": 1}, \"5\": {\"In\": 1}, \"6\": {\"In\": 1}, \"7\": {\"In\": 1}, \"8\": {\"In\": 1}, \"9\": {\"In\": 1}, \"10\": {\"In\": 1}, \"11\": {\"In\": 1}, \"12\": {\"In\": 1}, \"13\": {\"In\": 1}, \"14\": {\"In\": 1}, \"15\": {\"In\": 1}, \"16\": {\"O\": 1}, \"17\": {\"O\": 1}, \"18\": {\"O\": 1}, \"19\": {\"O\": 1}, \"20\": {\"O\": 1}, \"21\": {\"O\": 1}, \"22\": {\"O\": 1}, \"23\": {\"O\": 1}, \"24\": {\"O\": 1}, \"25\": {\"O\": 1}, \"26\": {\"O\": 1}, \"27\": {\"O\": 1}, \"28\": {\"O\": 1}, \"29\": {\"O\": 1}, \"30\": {\"O\": 1}, \"31\": {\"O\": 1}, \"32\": {\"O\": 1}, \"33\": {\"O\": 1}, \"34\": {\"O\": 1}, \"35\": {\"O\": 1}, \"36\": {\"O\": 1}, \"37\": {\"O\": 1}, \"38\": {\"O\": 1}, \"39\": {\"O\": 1}}" n_minim_iter=9 energy=-45151.33644493089 stress="-0.06042783068682746 9.419146948364038e-13 -7.559494498128621e-13 9.419146948364038e-13 -0.06042783068729514 4.0008946184437097e-13 -7.559494498128621e-13 4.0008946184437097e-13 -0.060427830686468745" free_energy=-45151.33644493089 pbc="T T T"
In      -4.73311274       3.34681612       5.81351702        0      -0.00014146       0.00010003      -0.00017325
In       7.89305591       1.12201838       1.92673136        1       0.00014146      -0.00010003       0.00017325
In       1.57316957      -1.11239887       5.79685555        2       0.00014146      -0.00010003       0.00017325
In      -1.57997159      -2.23441724       3.87012419        3      -0.00000000       0.00000000      -0.00000000
In      -1.57316957       4.46402474       3.86179345        4      -0.00014146       0.00010003       0.00017325
In       4.74671677      -3.34200636       5.80518629        5      -0.00014146      -0.00020006      -0.00000000
In      -1.57316957       1.12682813       5.80518629        6      -0.00014146      -0.00020006       0.00000000
In      -1.58677361       7.81084085       1.93506209        7       0.00014146       0.00020006       0.00000000
In       4.73311274       0.00480976       3.87845493        8       0.00014146      -0.00010003      -0.00017325
In      -1.57997159       4.46883449      -0.00000000        9       0.00000000      -0.00000000      -0.00000000
In       4.73311274       6.70806149       0.00833073       10       0.00014146      -0.00010003      -0.00017325
In      -1.57316957      -2.23922700       7.73191765       11      -0.00014146       0.00010003       0.00017325
In       4.73311274       3.34200636       1.93506209       12       0.00014146       0.00020006       0.00000000
In       1.58677360       5.58123336       1.94339283       13      -0.00014146       0.00010003      -0.00017325
In       4.73991476       0.00000000      -0.00000000       14      -0.00000000       0.00000000      -0.00000000
In       1.57997158       2.23441725       3.87012419       15       0.00000000      -0.00000000       0.00000000
O        0.65905244       4.48392883       4.21036691       16      -0.00007630      -0.00001168       0.00015299
O       -2.50089073       3.63873754       5.62199285       17      -0.00007630       0.00013833      -0.00006638
O       -0.54870769       2.25833567       0.27267063       18       0.00009398       0.00001793       0.00014216
O       -0.65905244      -0.81500262       2.09211137       19       0.00007630       0.00012666       0.00008661
O        4.26426489       5.44126357       1.81944074       20       0.00015585      -0.00004458      -0.00005555
O        2.05562145       3.37936713       1.75186866       21      -0.00015585       0.00002582      -0.00006638
O        2.05562145       6.53073093       0.06757208       22      -0.00015585      -0.00007040       0.00001083
O       -2.31208185       6.46779975       4.14279482       23       0.00001442      -0.00009458       0.00014216
O        3.70865086       2.21049883       7.46757775       24      -0.00009398      -0.00001793      -0.00014216
O        5.47202502      -1.99896526       3.59745356       25      -0.00001442       0.00009458      -0.00014216
O        6.86859403       3.59972478       2.05068345       26      -0.00009398       0.00013208       0.00005555
O        4.00780449       2.58828294       3.93769627       27       0.00001442       0.00017041       0.00001083
O        0.84786132       4.35042079       7.40000567       28       0.00001442      -0.00007583      -0.00015299
O        2.31208185       0.11841371       0.34024271       29      -0.00001442       0.00007583       0.00015299
O       -3.70865086       0.86910972       5.68956493       30       0.00009398      -0.00013208      -0.00005555
O        5.66083390       0.83009696       2.11825553       31       0.00007630      -0.00013833       0.00006638
O        1.10432172       1.08946736       5.98837973       32       0.00015585      -0.00002582       0.00006638
O        3.70865086      -1.34138910       5.96223557       33      -0.00009398      -0.00011415       0.00008661
O        2.50089073      -0.01509434       3.52988147       34       0.00007630       0.00001168      -0.00015299
O        1.10432172      -2.06189644       7.67267630       35       0.00015585       0.00007040      -0.00001083
O       -0.84786132       1.88055156       3.80255211       36      -0.00001442      -0.00017041      -0.00001083
O       -1.10432172      -0.97242908       5.92080764       37      -0.00015585       0.00004458       0.00005555
O       -0.54870769       5.81022360       1.77801282       38       0.00009398       0.00011415      -0.00008661
O        3.81899561       5.28383711       5.64813701       39      -0.00007630      -0.00012666      -0.00008661
