40
Lattice="8.69201944671444 6.812581457868441e-10 -3.1112707930129844e-15 -2.8973398162137767 8.19491452374241 -1.1799789626530147e-09 -2.8973398152503296 -4.097457261189942 7.0970041601896385" Properties=species:S:1:pos:R:3:spacegroup_kinds:I:1:forces:R:3 spacegroup="P 1" unit_cell=conventional occupancy="_JSON {\"0\": {\"In\": 1}, \"1\": {\"In\": 1}, \"2\": {\"In\": 1}, \"3\": {\"In\": 1}, \"4\": {\"In\": 1}, \"5\": {\"In\": 1}, \"6\": {\"In\": 1}, \"7\": {\"In\": 1}, \"8\": {\"In\": 1}, \"9\": {\"In\": 1}, \"10\": {\"In\": 1}, \"11\": {\"In\": 1}, \"12\": {\"In\": 1}, \"13\": {\"In\": 1}, \"14\": {\"In\": 1}, \"15\": {\"In\": 1}, \"16\": {\"O\": 1}, \"17\": {\"O\": 1}, \"18\": {\"O\": 1}, \"19\": {\"O\": 1}, \"20\": {\"O\": 1}, \"21\": {\"O\": 1}, \"22\": {\"O\": 1}, \"23\": {\"O\": 1}, \"24\": {\"O\": 1}, \"25\": {\"O\": 1}, \"26\": {\"O\": 1}, \"27\": {\"O\": 1}, \"28\": {\"O\": 1}, \"29\": {\"O\": 1}, \"30\": {\"O\": 1}, \"31\": {\"O\": 1}, \"32\": {\"O\": 1}, \"33\": {\"O\": 1}, \"34\": {\"O\": 1}, \"35\": {\"O\": 1}, \"36\": {\"O\": 1}, \"37\": {\"O\": 1}, \"38\": {\"O\": 1}, \"39\": {\"O\": 1}}" n_minim_iter=6 energy=-45150.02364062634 stress="-0.054533337892756224 -3.844651479389028e-15 -1.3381939121893747e-13 -3.844651479389028e-15 -0.054533337893045666 1.311505715021051e-12 -1.3381939121893747e-13 1.311505715021051e-12 -0.05453333789381297" free_energy=-45150.02364062634 pbc="T T T"
In      -4.15720473       2.93958766       5.55399106        0       0.00351813      -0.00248769       0.00430881
In       7.05454455       1.15786961       1.54301309        1      -0.00351813       0.00248769      -0.00430881
In       1.25986492      -0.89085902       5.09151517        2      -0.00351813       0.00248769      -0.00430881
In      -1.44866991      -2.04872863       3.54850208        3       0.00000000      -0.00000000      -0.00000000
In      -1.25986492       3.96395197       3.31726413        4       0.00351813      -0.00248769      -0.00430881
In       4.53481471      -2.80608237       5.32275312        5       0.00351813       0.00497539       0.00000000
In      -1.25986492       1.29137490       5.32275312        6       0.00351813       0.00497539      -0.00000000
In      -1.63747490       6.90353963       1.77425104        7      -0.00351813      -0.00497539       0.00000000
In       4.15720473       0.13350529       3.77974002        8      -0.00351813       0.00248769       0.00430881
In      -1.44866991       4.09745726      -0.00000000        9       0.00000000       0.00000000      -0.00000000
In       4.15720473       6.27969118       0.23123794       10      -0.00351813       0.00248769       0.00430881
In      -1.25986492      -2.18223392       6.86576621       11       0.00351813      -0.00248769      -0.00430881
In       4.15720473       2.80608237       1.77425104       12      -0.00351813      -0.00497539       0.00000000
In       1.63747490       4.98831629       2.00548898       13       0.00351813      -0.00248769       0.00430881
In       4.34600972       0.00000000      -0.00000000       14       0.00000000       0.00000000      -0.00000000
In       1.44866991       2.04872863       3.54850208       15       0.00000000       0.00000000      -0.00000000
O        0.89255989       4.10529379       3.83767306       16       0.00420143       0.00529813       0.00341458
O       -2.00477992       3.31960411       5.17138099       17       0.00420143       0.00030805      -0.00629560
O       -0.42845868       2.20497667       0.00496819       18       0.00668603      -0.00144883      -0.00325260
O       -0.89255990      -0.77001663       1.91204990       19      -0.00420143       0.00560618      -0.00288102
O        3.79801274       4.87034228       1.90708171       20      -0.00111004      -0.00748406       0.00037158
O        1.99666689       2.83231857       1.62287891       21       0.00111004      -0.00406383      -0.00629560
O        1.99666689       6.13548098       0.28420279       22       0.00111004      -0.00342024       0.00666718
O       -2.22169150       5.81514839       3.55347027       23       0.00359464      -0.00582070      -0.00325260
O        3.32579849       1.89248060       7.09203596       24      -0.00668603       0.00144883       0.00325260
O        5.11903131      -1.71769112       3.54353388       25      -0.00359464       0.00582070       0.00325260
O        6.22313831       3.15551955       1.64142037       26      -0.00668603      -0.00354125      -0.00037158
O        3.57298813       2.21854997       3.83270487       27       0.00359465       0.00009352       0.00666718
O        0.67564832       4.25867343       6.80783317       28       0.00359464       0.00572718      -0.00341458
O        2.22169149      -0.16121617       0.28917099       29      -0.00359464      -0.00572718       0.00341458
O       -3.32579849       0.94193772       5.45558379       30       0.00668603       0.00354125       0.00037158
O        4.90211973       0.77785316       1.92562316       31      -0.00420143      -0.00030805       0.00629560
O        0.90067292       1.26513870       5.47412524       32      -0.00111004       0.00406383       0.00629560
O        3.32579849      -0.95054288       5.46055198       33      -0.00668603       0.00209242      -0.00288102
O        2.00477992      -0.00783652       3.25933109       34      -0.00420143      -0.00529812      -0.00341458
O        0.90067292      -2.03802372       6.81280136       35      -0.00111004       0.00342024      -0.00666718
O       -0.67564832       1.87890730       3.26429928       36      -0.00359464      -0.00009352      -0.00666718
O       -0.90067293      -0.77288502       5.18992245       37       0.00111004       0.00748406      -0.00037158
O       -0.42845868       5.04800015       1.63645217       38       0.00668603      -0.00209242       0.00288102
O        3.78989971       4.86747390       5.18495425       39       0.00420143      -0.00560618       0.00288102
