40
Lattice="9.545209715638197 7.481307715838241e-10 3.033133380822818e-14 -3.1817365725847444 8.99931002345127 -1.295813107618118e-09 -3.1817365715267525 -4.499655010977503 7.7936310977045915" Properties=species:S:1:pos:R:3:spacegroup_kinds:I:1:forces:R:3 spacegroup="P 1" unit_cell=conventional occupancy="_JSON {\"0\": {\"In\": 1}, \"1\": {\"In\": 1}, \"2\": {\"In\": 1}, \"3\": {\"In\": 1}, \"4\": {\"In\": 1}, \"5\": {\"In\": 1}, \"6\": {\"In\": 1}, \"7\": {\"In\": 1}, \"8\": {\"In\": 1}, \"9\": {\"In\": 1}, \"10\": {\"In\": 1}, \"11\": {\"In\": 1}, \"12\": {\"In\": 1}, \"13\": {\"In\": 1}, \"14\": {\"In\": 1}, \"15\": {\"In\": 1}, \"16\": {\"O\": 1}, \"17\": {\"O\": 1}, \"18\": {\"O\": 1}, \"19\": {\"O\": 1}, \"20\": {\"O\": 1}, \"21\": {\"O\": 1}, \"22\": {\"O\": 1}, \"23\": {\"O\": 1}, \"24\": {\"O\": 1}, \"25\": {\"O\": 1}, \"26\": {\"O\": 1}, \"27\": {\"O\": 1}, \"28\": {\"O\": 1}, \"29\": {\"O\": 1}, \"30\": {\"O\": 1}, \"31\": {\"O\": 1}, \"32\": {\"O\": 1}, \"33\": {\"O\": 1}, \"34\": {\"O\": 1}, \"35\": {\"O\": 1}, \"36\": {\"O\": 1}, \"37\": {\"O\": 1}, \"38\": {\"O\": 1}, \"39\": {\"O\": 1}}" n_minim_iter=1 energy=-45152.15330679334 stress="-0.059416265145523915 -2.617443768546267e-13 2.6348083314681953e-13 -2.617443768546267e-13 -0.05941626514552716 6.958826617850474e-14 2.6348083314681953e-13 6.958826617850474e-14 -0.05941626514646891" free_energy=-45152.15330679334 pbc="T T T"
In      -4.76575593       3.36989834       5.85361151        0      -0.08238856       0.05825751      -0.10090497
In       7.94749250       1.12975668       1.94001958        1       0.08238856      -0.05825751       0.10090497
In       1.58401935      -1.12007083       5.83683513        2       0.08238856      -0.05825751       0.10090497
In      -1.59086829      -2.24982750       3.89681555        3       0.00000000      -0.00000000      -0.00000000
In      -1.58401936       4.49481209       3.88842735        4      -0.08238856       0.05825751       0.10090497
In       4.77945379      -3.36505541       5.84522332        5      -0.08238856      -0.11651503      -0.00000000
In      -1.58401936       1.13459960       5.84522332        6      -0.08238856      -0.11651503       0.00000000
In      -1.59771722       7.86471042       1.94840777        7       0.08238856       0.11651502      -0.00000000
In       4.76575593       0.00484293       3.90520374        8       0.08238856      -0.05825751      -0.10090497
In      -1.59086829       4.49965501      -0.00000000        9       0.00000000       0.00000000       0.00000000
In       4.76575593       6.75432544       0.00838819       10       0.08238856      -0.05825751      -0.10090497
In      -1.58401936      -2.25467043       7.78524290       11      -0.08238856       0.05825751       0.10090497
In       4.76575593       3.36505541       1.94840777       12       0.08238856       0.11651502       0.00000000
In       1.59771721       5.61972584       1.95679596       13      -0.08238856       0.05825751      -0.10090497
In       4.77260486       0.00000000      -0.00000000       14       0.00000000      -0.00000000      -0.00000000
In       1.59086828       2.24982751       3.89681555       15      -0.00000000      -0.00000000       0.00000000
O        0.66359777       4.51485345       4.23940484       16       0.00844301       0.15097397       0.02558724
O       -2.51813880       3.66383307       5.66076644       17       0.00844301      -0.05332778      -0.14354091
O       -0.55249200       2.27391089       0.27455118       18       0.09487604      -0.11444517      -0.03768249
O       -0.66359777      -0.82062350       2.10654018       19      -0.00844301       0.09764618      -0.11795367
O        4.29367454       5.47879071       1.83198900       20      -0.05309225      -0.11940218      -0.08027118
O        2.06979860       3.40267385       1.76395089       21       0.05309225       0.00981579      -0.14354091
O        2.06979860       6.57577188       0.06803811       22       0.05309225      -0.12921797       0.06326974
O       -2.32802775       6.51240668       4.17136673       23       0.13952529      -0.05130160      -0.03768249
O        3.73422857       2.22574413       7.51907991       24      -0.09487604       0.11444517       0.03768249
O        5.50976432      -2.01275166       3.62226437       25      -0.13952529       0.05130160       0.03768249
O        6.91596514       3.62455125       2.06482654       26      -0.09487604      -0.08985658       0.08027118
O        4.03544540       2.60613373       3.96485366       27       0.13952529      -0.00698320       0.06326974
O        0.85370882       4.38042464       7.45104180       28       0.13952529       0.05828480      -0.02558724
O        2.32802774       0.11923038       0.34258929       29      -0.13952529      -0.05828480       0.02558724
O       -3.73422857       0.87510377       5.72880455       30       0.09487604       0.08985658      -0.08027118
O        5.69987537       0.83582194       2.13286465       31      -0.00844301       0.05332778       0.14354091
O        1.11193797       1.09698117       6.02968020       32      -0.05309225      -0.00981579       0.14354091
O        3.73422857      -1.35064036       6.00335573       33      -0.09487604      -0.02458859      -0.11795367
O        2.51813880      -0.01519844       3.55422625       34      -0.00844300      -0.15097397      -0.02558724
O        1.11193797      -2.07611687       7.72559298       35      -0.05309225       0.12921797      -0.06326974
O       -0.85370883       1.89352129       3.82877743       36      -0.13952529       0.00698320      -0.06326974
O       -1.11193797      -0.97913570       5.96164209       37       0.05309225       0.11940218       0.08027118
O       -0.55249200       5.85029537       1.79027536       38       0.09487604       0.02458859       0.11795367
O        3.84533434       5.32027852       5.68709091       39       0.00844301      -0.09764618       0.11795367
40
Lattice="9.545209715638196 7.481307715838239e-10 3.0331333808228174e-14 -3.1817365725847435 8.999310023451269 -1.2958131076181178e-09 -3.1817365715267516 -4.499655010977502 7.79363109770459" Properties=species:S:1:pos:R:3:spacegroup_kinds:I:1:forces:R:3 spacegroup="P 1" unit_cell=conventional occupancy="_JSON {\"0\": {\"In\": 1}, \"1\": {\"In\": 1}, \"2\": {\"In\": 1}, \"3\": {\"In\": 1}, \"4\": {\"In\": 1}, \"5\": {\"In\": 1}, \"6\": {\"In\": 1}, \"7\": {\"In\": 1}, \"8\": {\"In\": 1}, \"9\": {\"In\": 1}, \"10\": {\"In\": 1}, \"11\": {\"In\": 1}, \"12\": {\"In\": 1}, \"13\": {\"In\": 1}, \"14\": {\"In\": 1}, \"15\": {\"In\": 1}, \"16\": {\"O\": 1}, \"17\": {\"O\": 1}, \"18\": {\"O\": 1}, \"19\": {\"O\": 1}, \"20\": {\"O\": 1}, \"21\": {\"O\": 1}, \"22\": {\"O\": 1}, \"23\": {\"O\": 1}, \"24\": {\"O\": 1}, \"25\": {\"O\": 1}, \"26\": {\"O\": 1}, \"27\": {\"O\": 1}, \"28\": {\"O\": 1}, \"29\": {\"O\": 1}, \"30\": {\"O\": 1}, \"31\": {\"O\": 1}, \"32\": {\"O\": 1}, \"33\": {\"O\": 1}, \"34\": {\"O\": 1}, \"35\": {\"O\": 1}, \"36\": {\"O\": 1}, \"37\": {\"O\": 1}, \"38\": {\"O\": 1}, \"39\": {\"O\": 1}}" n_minim_iter=2 energy=-45152.19324010953 stress="-0.06359430227878043 -1.851505849758647e-13 -7.959033568059217e-13 -1.851505849758647e-13 -0.06359430227748596 1.4978680931535054e-13 -7.959033568059217e-13 1.4978680931535054e-13 -0.0635943022790247" free_energy=-45152.19324010953 pbc="T T T"
In      -4.77164083       3.37405959       5.84640401        0      -0.02704014       0.01912027      -0.03311728
In       7.95337740       1.12559543       1.94722708        1       0.02704014      -0.01912027       0.03311728
In       1.58990425      -1.12423208       5.84404263        2       0.02704014      -0.01912027       0.03311728
In      -1.59086829      -2.24982750       3.89681555        3      -0.00000000       0.00000000       0.00000000
In      -1.58990426       4.49897334       3.89563485        4      -0.02704014       0.01912027       0.03311728
In       4.77356889      -3.37337791       5.84522332        5      -0.02704014      -0.03824054       0.00000000
In      -1.58990426       1.12627710       5.84522332        6      -0.02704014      -0.03824054       0.00000000
In      -1.59183232       7.87303293       1.94840777        7       0.02704014       0.03824054      -0.00000000
In       4.77164082       0.00068168       3.89799624        8       0.02704014      -0.01912027      -0.03311728
In      -1.59086829       4.49965501      -0.00000000        9       0.00000000      -0.00000000      -0.00000000
In       4.77164082       6.75016419       0.00118069       10       0.02704014      -0.01912027      -0.03311728
In      -1.58990426      -2.25050918       7.79245040       11      -0.02704014       0.01912027       0.03311728
In       4.77164082       3.37337791       1.94840777       12       0.02704014       0.03824054      -0.00000000
In       1.59183232       5.62388709       1.94958846       13      -0.02704014       0.01912027      -0.03311728
In       4.77260486       0.00000000      -0.00000000       14      -0.00000000      -0.00000000       0.00000000
In       1.59086828       2.24982751       3.89681555       15       0.00000000       0.00000000       0.00000000
O        0.66420084       4.52563731       4.24123250       16      -0.03556097       0.06787918      -0.02986756
O       -2.51753573       3.66002394       5.65051352       17      -0.03556097      -0.05980566      -0.04385132
O       -0.54571514       2.26573623       0.27185957       18      -0.00424187      -0.08195161      -0.00549340
O       -0.66420085      -0.81364877       2.09811492       19       0.03556097       0.00807353      -0.07371887
O        4.28988224       5.47026199       1.82625535       20      -0.04453165      -0.01124514      -0.06822548
O        2.07359090       3.40337497       1.75369797       21       0.04453165       0.05346243      -0.04385132
O        2.07359090       6.56654203       0.07255738       22       0.04453165      -0.06470757      -0.02437416
O       -2.31806166       6.50874228       4.16867512       23       0.07585076       0.03131647      -0.00549340
O        3.72745171       2.23391878       7.52177152       24       0.00424187       0.08195161       0.00549340
O        5.49979822      -2.00908726       3.62495597       25      -0.07585076      -0.03131647       0.00549340
O        6.90918828       3.61813292       2.07056020       26       0.00424187      -0.04573323       0.06822548
O        4.04541149       2.60563493       3.96937292       27       0.07585076      -0.02041566      -0.02437416
O        0.86367492       4.38458784       7.44921414       28       0.07585076      -0.01090081       0.02986756
O        2.31806165       0.11506718       0.34441695       29      -0.07585076       0.01090081      -0.02986756
O       -3.72745171       0.88152209       5.72307090       30      -0.00424187       0.04573323      -0.06822548
O        5.69927230       0.83963107       2.14311758       31       0.03556097       0.05980566       0.04385131
O        1.10814567       1.09628004       6.03993312       32      -0.04453165      -0.05346243       0.04385132
O        3.72745171      -1.35239668       5.99493047       33       0.00424187      -0.03621838      -0.07371887
O        2.51753573      -0.02598229       3.55239859       34       0.03556097      -0.06787918       0.02986756
O        1.10814567      -2.06688701       7.72107372       35      -0.04453165       0.06470757       0.02437416
O       -0.86367492       1.89402009       3.82425817       36      -0.07585076       0.02041566       0.02437416
O       -1.10814567      -0.97060697       5.96737574       37       0.04453166       0.01124514       0.06822548
O       -0.54571514       5.85205170       1.79870062       38      -0.00424187       0.03621838       0.07371887
O        3.84593741       5.31330379       5.69551617       39      -0.03556097      -0.00807353       0.07371887
40
Lattice="9.545209715638192 7.481307715838236e-10 3.033133380822816e-14 -3.181736572584742 8.999310023451265 -1.2958131076181176e-09 -3.1817365715267503 -4.4996550109775 7.793631097704587" Properties=species:S:1:pos:R:3:spacegroup_kinds:I:1:forces:R:3 spacegroup="P 1" unit_cell=conventional occupancy="_JSON {\"0\": {\"In\": 1}, \"1\": {\"In\": 1}, \"2\": {\"In\": 1}, \"3\": {\"In\": 1}, \"4\": {\"In\": 1}, \"5\": {\"In\": 1}, \"6\": {\"In\": 1}, \"7\": {\"In\": 1}, \"8\": {\"In\": 1}, \"9\": {\"In\": 1}, \"10\": {\"In\": 1}, \"11\": {\"In\": 1}, \"12\": {\"In\": 1}, \"13\": {\"In\": 1}, \"14\": {\"In\": 1}, \"15\": {\"In\": 1}, \"16\": {\"O\": 1}, \"17\": {\"O\": 1}, \"18\": {\"O\": 1}, \"19\": {\"O\": 1}, \"20\": {\"O\": 1}, \"21\": {\"O\": 1}, \"22\": {\"O\": 1}, \"23\": {\"O\": 1}, \"24\": {\"O\": 1}, \"25\": {\"O\": 1}, \"26\": {\"O\": 1}, \"27\": {\"O\": 1}, \"28\": {\"O\": 1}, \"29\": {\"O\": 1}, \"30\": {\"O\": 1}, \"31\": {\"O\": 1}, \"32\": {\"O\": 1}, \"33\": {\"O\": 1}, \"34\": {\"O\": 1}, \"35\": {\"O\": 1}, \"36\": {\"O\": 1}, \"37\": {\"O\": 1}, \"38\": {\"O\": 1}, \"39\": {\"O\": 1}}" n_minim_iter=3 energy=-45152.20182803794 stress="-0.06636300032082179 6.096359573042464e-13 -3.679210258457519e-13 6.096359573042464e-13 -0.06636300032079051 -2.2634594171888913e-13 -3.679210258457519e-13 -2.2634594171888913e-13 -0.06636300032253276" free_energy=-45152.20182803794 pbc="T T T"
In      -4.77532387       3.37666389       5.84189323        0       0.00619629      -0.00438144       0.00758888
In       7.95706044       1.12299113       1.95173786        1      -0.00619629       0.00438144      -0.00758888
In       1.59358729      -1.12683638       5.84855341        2      -0.00619629       0.00438144      -0.00758888
In      -1.59086829      -2.24982750       3.89681555        3       0.00000000       0.00000000       0.00000000
In      -1.59358730       4.50157764       3.90014564        4       0.00619629      -0.00438144      -0.00758888
In       4.76988585      -3.37858652       5.84522332        5       0.00619629       0.00876288       0.00000000
In      -1.59358730       1.12106849       5.84522332        6       0.00619629       0.00876288      -0.00000000
In      -1.58814928       7.87824153       1.94840777        7      -0.00619629      -0.00876288       0.00000000
In       4.77532387      -0.00192263       3.89348545        8      -0.00619629       0.00438144       0.00758888
In      -1.59086829       4.49965501      -0.00000000        9       0.00000000       0.00000000      -0.00000000
In       4.77532387       6.74755989      -0.00333010       10      -0.00619629       0.00438144       0.00758888
In      -1.59358730      -2.24790487       7.79696119       11       0.00619629      -0.00438144      -0.00758888
In       4.77532387       3.37858652       1.94840777       12      -0.00619629      -0.00876288       0.00000000
In       1.58814927       5.62649140       1.94507768       13       0.00619629      -0.00438144       0.00758888
In       4.77260486       0.00000000      -0.00000000       14       0.00000000       0.00000000       0.00000000
In       1.59086828       2.24982751       3.89681555       15      -0.00000000       0.00000000       0.00000000
O        0.66370677       4.53280307       4.24150635       16      -0.06241472       0.01183679      -0.05789186
O       -2.51802980       3.65667823       5.64417086       17      -0.06241472      -0.05605422       0.01869497
O       -0.54227826       2.25961092       0.27033132       18      -0.06249350      -0.05599851       0.01859849
O       -0.66370678      -0.80982873       2.09204612       19       0.06241472      -0.04421743      -0.03919689
O        4.28689255       5.46555961       1.82171479       20      -0.03204351       0.05495527      -0.05779538
O        2.07658059       3.40495603       1.74735531       21       0.03204351       0.07752990       0.01869497
O        2.07658059       6.56025860       0.07435947       22       0.03204351      -0.02257463      -0.07649035
O       -2.31114102       6.50754373       4.16714687       23       0.03196473       0.07758561       0.01859849
O        3.72401483       2.24004410       7.52329977       24       0.06249350       0.05599851      -0.01859849
O        5.49287759      -2.00788871       3.62648422       25      -0.03196473      -0.07758561      -0.01859849
O        6.90575140       3.61374676       2.07510075       26       0.06249350      -0.01189249       0.05779538
O        4.05233212       2.60491070       3.97117502       27       0.03196473      -0.02268604      -0.07649035
O        0.87059555       4.38651061       7.44894029       28       0.03196473      -0.05489957       0.05789186
O        2.31114102       0.11314440       0.34469080       29      -0.03196473       0.05489957      -0.05789186
O       -3.72401483       0.88590825       5.71853034       30      -0.06249350       0.01189249      -0.05779538
O        5.69976637       0.84297679       2.14946023       31       0.06241472       0.05605422      -0.01869497
O        1.10515598       1.09469899       6.04627578       32      -0.03204351      -0.07752990      -0.01869497
O        3.72401483      -1.35413584       5.98886166       33       0.06249350      -0.04410602      -0.03919689
O        2.51802979      -0.03314805       3.55212474       34       0.06241472      -0.01183679       0.05789186
O        1.10515598      -2.06060358       7.71927162       35      -0.03204351       0.02257463       0.07649035
O       -0.87059555       1.89474432       3.82245607       36      -0.03196473       0.02268604       0.07649035
O       -1.10515599      -0.96590460       5.97191630       37       0.03204351      -0.05495527       0.05779538
O       -0.54227826       5.85379086       1.80476943       38      -0.06249350       0.04410602       0.03919689
O        3.84544335       5.30948375       5.70158498       39      -0.06241472       0.04421743       0.03919689
40
Lattice="9.545209715638181 7.481307715838228e-10 3.033133380822812e-14 -3.1817365725847386 8.999310023451255 -1.2958131076181164e-09 -3.1817365715267467 -4.499655010977495 7.793631097704578" Properties=species:S:1:pos:R:3:spacegroup_kinds:I:1:forces:R:3 spacegroup="P 1" unit_cell=conventional occupancy="_JSON {\"0\": {\"In\": 1}, \"1\": {\"In\": 1}, \"2\": {\"In\": 1}, \"3\": {\"In\": 1}, \"4\": {\"In\": 1}, \"5\": {\"In\": 1}, \"6\": {\"In\": 1}, \"7\": {\"In\": 1}, \"8\": {\"In\": 1}, \"9\": {\"In\": 1}, \"10\": {\"In\": 1}, \"11\": {\"In\": 1}, \"12\": {\"In\": 1}, \"13\": {\"In\": 1}, \"14\": {\"In\": 1}, \"15\": {\"In\": 1}, \"16\": {\"O\": 1}, \"17\": {\"O\": 1}, \"18\": {\"O\": 1}, \"19\": {\"O\": 1}, \"20\": {\"O\": 1}, \"21\": {\"O\": 1}, \"22\": {\"O\": 1}, \"23\": {\"O\": 1}, \"24\": {\"O\": 1}, \"25\": {\"O\": 1}, \"26\": {\"O\": 1}, \"27\": {\"O\": 1}, \"28\": {\"O\": 1}, \"29\": {\"O\": 1}, \"30\": {\"O\": 1}, \"31\": {\"O\": 1}, \"32\": {\"O\": 1}, \"33\": {\"O\": 1}, \"34\": {\"O\": 1}, \"35\": {\"O\": 1}, \"36\": {\"O\": 1}, \"37\": {\"O\": 1}, \"38\": {\"O\": 1}, \"39\": {\"O\": 1}}" n_minim_iter=4 energy=-45152.21130384681 stress="-0.06876982915384532 -1.5322774894843008e-12 -6.598119323308571e-14 -1.5322774894843008e-12 -0.06876982915245805 1.6889180856490494e-13 -6.598119323308571e-14 1.6889180856490494e-13 -0.06876982915397602" free_energy=-45152.21130384681 pbc="T T T"
In      -4.77837079       3.37881839       5.83816152        0       0.00702982      -0.00497083       0.00860973
In       7.96010736       1.12083663       1.95546957        1      -0.00702982       0.00497083      -0.00860973
In       1.59663422      -1.12899088       5.85228512        2      -0.00702982       0.00497083      -0.00860973
In      -1.59086829      -2.24982750       3.89681555        3       0.00000000      -0.00000000       0.00000000
In      -1.59663422       4.50373214       3.90387734        4       0.00702982      -0.00497083      -0.00860973
In       4.76683892      -3.38289552       5.84522332        5       0.00702982       0.00994166       0.00000000
In      -1.59663422       1.11675950       5.84522332        6       0.00702982       0.00994166       0.00000000
In      -1.58510236       7.88255053       1.94840777        7      -0.00702982      -0.00994166      -0.00000000
In       4.77837079      -0.00407713       3.88975375        8      -0.00702982       0.00497083       0.00860973
In      -1.59086829       4.49965501      -0.00000000        9      -0.00000000      -0.00000000       0.00000000
In       4.77837079       6.74540539      -0.00706180       10      -0.00702982       0.00497083       0.00860973
In      -1.59663422      -2.24575037       7.80069289       11       0.00702982      -0.00497083      -0.00860973
In       4.77837079       3.38289552       1.94840777       12      -0.00702982      -0.00994166      -0.00000000
In       1.58510235       5.62864590       1.94134597       13       0.00702982      -0.00497083       0.00860973
In       4.77260486       0.00000000      -0.00000000       14       0.00000000      -0.00000000       0.00000000
In       1.59086828       2.24982751       3.89681555       15      -0.00000000      -0.00000000      -0.00000000
O        0.65844412       4.54054730       4.23734101       16      -0.07065356      -0.03571502      -0.02267736
O       -2.52329245       3.64919882       5.63954682       17      -0.07065356      -0.00178166       0.04226880
O       -0.54378280       2.24947412       0.27031002       18      -0.05890340      -0.01009028       0.05665975
O       -0.65844413      -0.80956390       2.08325674       19       0.07065356      -0.03749668       0.01959143
O        4.28159512       5.46528248       1.81294671       20       0.02187142       0.07020920      -0.03706831
O        2.08187802       3.41241084       1.74273128       21      -0.02187142       0.06720670       0.04226880
O        2.08187802       6.55252666       0.07021544       22      -0.02187142       0.00300250      -0.07933711
O       -2.30208547       6.51234115       4.16712557       23      -0.01012126       0.05889808       0.05665975
O        3.72551936       2.25018090       7.52332107       24       0.05890340       0.01009028      -0.05665975
O        5.48382204      -2.01268613       3.62650552       25       0.01012126      -0.05889808      -0.05665975
O        6.90725594       3.60865992       2.08386883       26       0.05890340       0.04402364       0.03706831
O        4.06138767       2.60249354       3.96703098       27      -0.01012126       0.01961974      -0.07933711
O        0.87965110       4.38413035       7.45310563       28      -0.01012126      -0.07851782       0.02267736
O        2.30208547       0.11552467       0.34052546       29       0.01012126       0.07851782      -0.02267736
O       -3.72551937       0.89099510       5.70976226       30      -0.05890340      -0.04402364      -0.03706831
O        5.70502902       0.85045620       2.15408427       31       0.07065356       0.00178166      -0.04226880
O        1.09985855       1.08724418       6.05089982       32       0.02187142      -0.06720670      -0.04226880
O        3.72551936      -1.35918579       5.98007229       33       0.05890340      -0.05411392       0.01959143
O        2.52329245      -0.04089229       3.55629008       34       0.07065356       0.03571502       0.02267736
O        1.09985855      -2.05287165       7.72341566       35       0.02187142      -0.00300250       0.07933711
O       -0.87965111       1.89716147       3.82660011       36       0.01012126      -0.01961974       0.07933711
O       -1.09985855      -0.96562747       5.98068438       37      -0.02187142      -0.07020920       0.03706831
O       -0.54378280       5.85884081       1.81355880       38      -0.05890340       0.05411392      -0.01959143
O        3.84018069       5.30921892       5.71037435       39      -0.07065356       0.03749668      -0.01959143
40
Lattice="9.545209715638183 7.481307715838228e-10 3.0331333808228105e-14 -3.1817365725847386 8.999310023451255 -1.2958131076181168e-09 -3.1817365715267467 -4.499655010977495 7.793631097704579" Properties=species:S:1:pos:R:3:spacegroup_kinds:I:1:forces:R:3 spacegroup="P 1" unit_cell=conventional occupancy="_JSON {\"0\": {\"In\": 1}, \"1\": {\"In\": 1}, \"2\": {\"In\": 1}, \"3\": {\"In\": 1}, \"4\": {\"In\": 1}, \"5\": {\"In\": 1}, \"6\": {\"In\": 1}, \"7\": {\"In\": 1}, \"8\": {\"In\": 1}, \"9\": {\"In\": 1}, \"10\": {\"In\": 1}, \"11\": {\"In\": 1}, \"12\": {\"In\": 1}, \"13\": {\"In\": 1}, \"14\": {\"In\": 1}, \"15\": {\"In\": 1}, \"16\": {\"O\": 1}, \"17\": {\"O\": 1}, \"18\": {\"O\": 1}, \"19\": {\"O\": 1}, \"20\": {\"O\": 1}, \"21\": {\"O\": 1}, \"22\": {\"O\": 1}, \"23\": {\"O\": 1}, \"24\": {\"O\": 1}, \"25\": {\"O\": 1}, \"26\": {\"O\": 1}, \"27\": {\"O\": 1}, \"28\": {\"O\": 1}, \"29\": {\"O\": 1}, \"30\": {\"O\": 1}, \"31\": {\"O\": 1}, \"32\": {\"O\": 1}, \"33\": {\"O\": 1}, \"34\": {\"O\": 1}, \"35\": {\"O\": 1}, \"36\": {\"O\": 1}, \"37\": {\"O\": 1}, \"38\": {\"O\": 1}, \"39\": {\"O\": 1}}" n_minim_iter=5 energy=-45152.21731871838 stress="-0.06896009700662012 3.944497032681796e-13 7.376874614536598e-13 3.944497032681796e-13 -0.06896009700715301 7.715885740927682e-13 7.376874614536598e-13 7.715885740927682e-13 -0.0689600970042641" free_energy=-45152.21731871838 pbc="T T T"
In      -4.77875752       3.37909185       5.83768788        0      -0.01304019       0.00922081      -0.01597090
In       7.96049409       1.12056317       1.95594321        1       0.01304019      -0.00922081       0.01597090
In       1.59702094      -1.12926434       5.85275876        2       0.01304019      -0.00922081       0.01597090
In      -1.59086829      -2.24982750       3.89681555        3      -0.00000000      -0.00000000       0.00000000
In      -1.59702095       4.50400560       3.90435098        4      -0.01304019       0.00922081       0.01597091
In       4.76645220      -3.38344243       5.84522332        5      -0.01304019      -0.01844161       0.00000000
In      -1.59702095       1.11621258       5.84522332        6      -0.01304019      -0.01844161      -0.00000000
In      -1.58471563       7.88309744       1.94840777        7       0.01304019       0.01844161      -0.00000000
In       4.77875751      -0.00435058       3.88928011        8       0.01304019      -0.00922081      -0.01597090
In      -1.59086829       4.49965501      -0.00000000        9      -0.00000000      -0.00000000      -0.00000000
In       4.77875751       6.74513193      -0.00753544       10       0.01304019      -0.00922081      -0.01597090
In      -1.59702094      -2.24547692       7.80116653       11      -0.01304019       0.00922081       0.01597090
In       4.77875751       3.38344243       1.94840777       12       0.01304019       0.01844161       0.00000000
In       1.58471563       5.62891935       1.94087234       13      -0.01304019       0.00922081      -0.01597090
In       4.77260486       0.00000000      -0.00000000       14       0.00000000       0.00000000      -0.00000000
In       1.59086828       2.24982751       3.89681555       15       0.00000000      -0.00000000       0.00000000
O        0.65372654       4.54214485       4.23393369       16      -0.05759369      -0.03448331       0.02089901
O       -2.52801003       3.64544922       5.63986697       17      -0.05759369       0.03534073       0.01941391
O       -0.54738430       2.24493533       0.27199708       18      -0.01838951       0.00761919       0.06742903
O       -0.65372654      -0.81171596       2.08016957       19       0.05759369       0.00085742       0.04031293
O        4.27963249       5.46840857       1.80817248       20       0.05251746       0.03807275      -0.02711611
O        2.08384065       3.41810849       1.74305143       21      -0.05251746       0.04251961       0.01941391
O        2.08384065       6.54995509       0.06512105       22      -0.05251746      -0.00444686      -0.04653002
O       -2.29900676       6.51724961       4.16881263       23      -0.01331328       0.01479807       0.06742903
O        3.72912087       2.25471968       7.52163401       24       0.01838951      -0.00761919      -0.06742903
O        5.48074333      -2.01759459       3.62481846       25       0.01331328      -0.01479807      -0.06742903
O        6.91085744       3.60785156       2.08864306       26       0.01838951       0.06220485       0.02711611
O        4.06446638       2.60150035       3.96193660       27      -0.01331328       0.05099622      -0.04653002
O        0.88272981       4.38021508       7.45651295       28      -0.01331328      -0.06579429      -0.02089901
O        2.29900676       0.11943993       0.33711814       29       0.01331328       0.06579429       0.02089901
O       -3.72912087       0.89180346       5.70498803       30      -0.01838951      -0.06220485      -0.02711611
O        5.70974660       0.85420580       2.15376412       31       0.05759369      -0.03534073      -0.01941391
O        1.09789592       1.08154653       6.05057967       32       0.05251746      -0.04251961      -0.01941391
O        3.72912087      -1.36291622       5.97698512       33       0.01838951      -0.05458566       0.04031293
O        2.52801003      -0.04248983       3.55969740       34       0.05759369       0.03448331      -0.02089901
O        1.09789592      -2.05030008       7.72851004       35       0.05251746       0.00444686       0.04653002
O       -0.88272981       1.89815467       3.83169449       36       0.01331328      -0.05099622       0.04653002
O       -1.09789592      -0.96875355       5.98545861       37      -0.05251746      -0.03807275       0.02711611
O       -0.54738430       5.86257124       1.81664597       38      -0.01838951       0.05458566      -0.04031293
O        3.83546311       5.31137098       5.71346152       39      -0.05759369      -0.00085742      -0.04031293
40