40
Lattice="8.994590589788631 7.049727559289816e-10 -3.307349024188486e-15 -2.998196863927532 8.480181333146678 -1.221049285021576e-09 -2.9981968629305467 -4.240090665868365 7.344052464017646" Properties=species:S:1:pos:R:3:spacegroup_kinds:I:1:forces:R:3 spacegroup="P 1" unit_cell=conventional occupancy="_JSON {\"0\": {\"In\": 1}, \"1\": {\"In\": 1}, \"2\": {\"In\": 1}, \"3\": {\"In\": 1}, \"4\": {\"In\": 1}, \"5\": {\"In\": 1}, \"6\": {\"In\": 1}, \"7\": {\"In\": 1}, \"8\": {\"In\": 1}, \"9\": {\"In\": 1}, \"10\": {\"In\": 1}, \"11\": {\"In\": 1}, \"12\": {\"In\": 1}, \"13\": {\"In\": 1}, \"14\": {\"In\": 1}, \"15\": {\"In\": 1}, \"16\": {\"O\": 1}, \"17\": {\"O\": 1}, \"18\": {\"O\": 1}, \"19\": {\"O\": 1}, \"20\": {\"O\": 1}, \"21\": {\"O\": 1}, \"22\": {\"O\": 1}, \"23\": {\"O\": 1}, \"24\": {\"O\": 1}, \"25\": {\"O\": 1}, \"26\": {\"O\": 1}, \"27\": {\"O\": 1}, \"28\": {\"O\": 1}, \"29\": {\"O\": 1}, \"30\": {\"O\": 1}, \"31\": {\"O\": 1}, \"32\": {\"O\": 1}, \"33\": {\"O\": 1}, \"34\": {\"O\": 1}, \"35\": {\"O\": 1}, \"36\": {\"O\": 1}, \"37\": {\"O\": 1}, \"38\": {\"O\": 1}, \"39\": {\"O\": 1}}" n_minim_iter=6 energy=-45151.09991163584 stress="0.016443998949618798 -3.462967673086505e-13 -1.2684503083150664e-12 -3.462967673086505e-13 0.016443998949296764 -9.2904772784454e-13 -1.2684503083150664e-12 -9.2904772784454e-13 0.01644399894702679" free_energy=-45151.09991163584 pbc="T T T"
In      -4.29315634       3.03571996       5.75805749        0      -0.00133379       0.00094313      -0.00163355
In       7.29135320       1.20437071       1.58599497        1       0.00133379      -0.00094313       0.00163355
In       1.29495947      -0.91567462       5.25802120        2       0.00133379      -0.00094313       0.00163355
In      -1.49909843      -2.12004533       3.67202623        3       0.00000000      -0.00000000      -0.00000000
In      -1.29495947       4.09574263       3.42200809        4      -0.00133379       0.00094313       0.00163355
In       4.70143425      -2.89137191       5.50803935        5      -0.00133379      -0.00188626       0.00000000
In      -1.29495947       1.34871875       5.50803935        6      -0.00133379      -0.00188626       0.00000000
In      -1.70323739       7.13146258       1.83601311        7       0.00133379       0.00188626      -0.00000000
In       4.29315633       0.14434804       3.92204437        8       0.00133379      -0.00094313      -0.00163355
In      -1.49909843       4.24009067      -0.00000000        9      -0.00000000      -0.00000000      -0.00000000
In       4.29315633       6.50448404       0.25001814       10       0.00133379      -0.00094313      -0.00163355
In      -1.29495947      -2.26439337       7.09403432       11      -0.00133379       0.00094313       0.00163355
In       4.29315633       2.89137192       1.83601311       12       0.00133379       0.00188626      -0.00000000
In       1.70323739       5.15576529       2.08603126       13      -0.00133379       0.00094313      -0.00163355
In       4.49729529       0.00000000      -0.00000000       14       0.00000000       0.00000000      -0.00000000
In       1.49909843       2.12004534       3.67202623       15      -0.00000000      -0.00000000      -0.00000000
O        0.87642662       4.24004148       4.00137239       16      -0.00039905       0.00108725      -0.00020764
O       -2.12177024       3.46531474       5.34340887       17      -0.00039905      -0.00072345      -0.00083776
O       -0.43836992       2.27497096       0.06109231       18       0.00020998      -0.00115409      -0.00009186
O       -0.87642663      -0.77482512       2.00072880       19       0.00039905       0.00036380      -0.00104540
O        3.97438681       5.05018745       1.93963649       20      -0.00054905      -0.00041684      -0.00095354
O        2.02200691       2.96536459       1.67138263       21       0.00054905       0.00061737      -0.00083776
O        2.02200691       6.32491353       0.26825385       22       0.00054905      -0.00103421      -0.00011578
O       -2.29098650       6.01511147       3.73311854       23       0.00115808       0.00018673      -0.00009186
O        3.43656678       1.96511971       7.28296015       24      -0.00020998       0.00115409       0.00009186
O        5.28918336      -1.77502080       3.61093392       25      -0.00115808      -0.00018673       0.00009186
O        6.43476365       3.31043831       1.73238974       26      -0.00020998      -0.00065660       0.00095354
O        3.70540723       2.34546509       3.94028008       27       0.00115808      -0.00017292      -0.00011578
O        0.70721036       4.35969544       7.01470630       28       0.00115808      -0.00001381       0.00020764
O        2.29098650      -0.11960477       0.32934616       29      -0.00115808       0.00001381      -0.00020764
O       -3.43656679       0.92965236       5.61166272       30       0.00020998       0.00065660      -0.00095354
O        5.11996710       0.77477593       2.00064359       31       0.00039905       0.00072345       0.00083776
O        0.97618995       1.27472608       5.67266982       32      -0.00054905      -0.00061737       0.00083776
O        3.43656678      -1.03546734       5.67275503       33      -0.00020998      -0.00049749      -0.00104540
O        2.12177024       0.00004920       3.34268007       34       0.00039905      -0.00108725       0.00020764
O        0.97618995      -2.08482286       7.07579861       35      -0.00054905       0.00103421       0.00011578
O       -0.70721037       1.89462558       3.40377238       36      -0.00115808       0.00017292       0.00011578
O       -0.97618995      -0.81009678       5.40441597       37       0.00054905       0.00041684       0.00095354
O       -0.43836992       5.27555801       1.67129743       38       0.00020998       0.00049749       0.00104540
O        3.87462349       5.01491579       5.34332366       39      -0.00039905      -0.00036380       0.00104540
