40
Lattice="8.105140224644254 6.352537535264853e-10 2.1117632369334673e-14 -2.701713408813675 7.641599486873329 -1.1003054257410815e-09 -2.701713407915307 -3.8207997428014053 6.617819281911957" Properties=species:S:1:pos:R:3:spacegroup_kinds:I:1:forces:R:3 spacegroup="P 1" unit_cell=conventional occupancy="_JSON {\"0\": {\"In\": 1}, \"1\": {\"In\": 1}, \"2\": {\"In\": 1}, \"3\": {\"In\": 1}, \"4\": {\"In\": 1}, \"5\": {\"In\": 1}, \"6\": {\"In\": 1}, \"7\": {\"In\": 1}, \"8\": {\"In\": 1}, \"9\": {\"In\": 1}, \"10\": {\"In\": 1}, \"11\": {\"In\": 1}, \"12\": {\"In\": 1}, \"13\": {\"In\": 1}, \"14\": {\"In\": 1}, \"15\": {\"In\": 1}, \"16\": {\"O\": 1}, \"17\": {\"O\": 1}, \"18\": {\"O\": 1}, \"19\": {\"O\": 1}, \"20\": {\"O\": 1}, \"21\": {\"O\": 1}, \"22\": {\"O\": 1}, \"23\": {\"O\": 1}, \"24\": {\"O\": 1}, \"25\": {\"O\": 1}, \"26\": {\"O\": 1}, \"27\": {\"O\": 1}, \"28\": {\"O\": 1}, \"29\": {\"O\": 1}, \"30\": {\"O\": 1}, \"31\": {\"O\": 1}, \"32\": {\"O\": 1}, \"33\": {\"O\": 1}, \"34\": {\"O\": 1}, \"35\": {\"O\": 1}, \"36\": {\"O\": 1}, \"37\": {\"O\": 1}, \"38\": {\"O\": 1}, \"39\": {\"O\": 1}}" n_minim_iter=1 energy=-45151.98987000994 stress="0.12292379150024188 -2.6696037912359246e-13 -4.789137941014254e-14 -2.6696037912359246e-13 0.12292379149728615 -2.0243174957200325e-13 -4.789137941014254e-14 -2.0243174957200325e-13 0.12292379149957232" free_energy=-45151.98987000994 pbc="T T T"
In      -3.99409503       2.82425168       5.03498152        0      -0.12994954       0.09188820      -0.15915504
In       6.69580843       0.99654807       1.58283775        1       0.12994954      -0.09188820       0.15915504
In       1.29238161      -0.91385180       4.89174739        2       0.12994954      -0.09188820       0.15915504
In      -1.35085671      -1.91039987       3.30890964        3       0.00000000      -0.00000000       0.00000000
In      -1.29238162       3.77945161       3.23729257        4      -0.12994954       0.09188820       0.15915504
In       4.11104520      -2.78290354       4.96336446        5      -0.12994954      -0.18377640      -0.00000000
In      -1.29238162       1.03789620       4.96336446        6      -0.12994954      -0.18377640       0.00000000
In      -1.40933179       6.60370329       1.65445482        7       0.12994954       0.18377640       0.00000000
In       3.99409502       0.04134813       3.38052670        8       0.12994954      -0.09188820      -0.15915504
In      -1.35085671       3.82079974      -0.00000000        9       0.00000000       0.00000000      -0.00000000
In       3.99409502       5.77254775       0.07161706       10       0.12994954      -0.09188820      -0.15915504
In      -1.29238162      -1.95174800       6.54620222       11      -0.12994954       0.09188820       0.15915504
In       3.99409502       2.78290355       1.65445482       12       0.12994954       0.18377640      -0.00000000
In       1.40933179       4.73465155       1.72607188       13      -0.12994954       0.09188820      -0.15915504
In       4.05257011       0.00000000      -0.00000000       14       0.00000000      -0.00000000       0.00000000
In       1.35085670       1.91039987       3.30890964       15      -0.00000000       0.00000000       0.00000000
O        0.75301574       3.81909976       3.46774618       16       0.04023946       0.19786407      -0.41453988
O       -1.94869767       3.00400629       4.88541841       17       0.04023946      -0.45793410       0.03591463
O       -0.52067777       1.99424373       0.01655918       18      -0.23178322      -0.26558502      -0.29724376
O       -0.75301574      -0.81849344       1.73534532       19      -0.04023946      -0.26007003      -0.37862525
O        3.48177017       4.64885364       1.71878614       20      -0.44515756       0.08845627      -0.08138149
O        1.92165664       2.74631423       1.57650877       21       0.44515756       0.11470658       0.03591463
O        1.92165664       5.72333915       0.14227736       22       0.44515756      -0.02625031      -0.11729612
O       -2.05375028       5.55735142       3.32546882       23       0.17313488       0.30705566      -0.29724376
O        3.22239118       1.82655601       6.60126010       24       0.23178322       0.26558502       0.29724376
O        4.75546369      -1.73655167       3.29235046       25      -0.17313488      -0.30705566       0.29724376
O        5.92410459       2.92186241       1.59012349       26       0.23178322      -0.39021315       0.08138149
O        3.34967654       2.01166464       3.45118701       27       0.17313488      -0.41094847      -0.11729612
O        0.64796313       3.89338318       6.45898273       28       0.17313488       0.10389282       0.41453988
O        2.05375028      -0.07258343       0.15883654       29      -0.17313488      -0.10389282      -0.41453988
O       -3.22239118       0.89893734       5.02769578       30      -0.23178322       0.39021315      -0.08138149
O        4.65041108       0.81679346       1.73240086       31      -0.04023946       0.45793410      -0.03591463
O        0.78005677       1.07448552       5.04131050       32      -0.44515756      -0.11470658      -0.03591463
O        3.22239118      -0.92761867       5.04425496       33       0.23178322       0.12462814      -0.37862525
O        1.94869767       0.00169999       3.15007309       34      -0.04023946      -0.19786407       0.41453988
O        0.78005677      -1.90253941       6.47554191       35      -0.44515756       0.02625031       0.11729612
O       -0.64796313       1.80913510       3.16663227       36      -0.17313488       0.41094847       0.11729612
O       -0.78005677      -0.82805389       4.89903314       37       0.44515756      -0.08845627       0.08138149
O       -0.52067777       4.74841842       1.57356432       38      -0.23178322      -0.12462814       0.37862525
O        3.45472915       4.63929319       4.88247396       39       0.04023946       0.26007003       0.37862525
40
Lattice="8.105140224644254 6.352537535264854e-10 2.1117632369334676e-14 -2.7017134088136756 7.6415994868733295 -1.1003054257410815e-09 -2.7017134079153076 -3.8207997428014058 6.617819281911957" Properties=species:S:1:pos:R:3:spacegroup_kinds:I:1:forces:R:3 spacegroup="P 1" unit_cell=conventional occupancy="_JSON {\"0\": {\"In\": 1}, \"1\": {\"In\": 1}, \"2\": {\"In\": 1}, \"3\": {\"In\": 1}, \"4\": {\"In\": 1}, \"5\": {\"In\": 1}, \"6\": {\"In\": 1}, \"7\": {\"In\": 1}, \"8\": {\"In\": 1}, \"9\": {\"In\": 1}, \"10\": {\"In\": 1}, \"11\": {\"In\": 1}, \"12\": {\"In\": 1}, \"13\": {\"In\": 1}, \"14\": {\"In\": 1}, \"15\": {\"In\": 1}, \"16\": {\"O\": 1}, \"17\": {\"O\": 1}, \"18\": {\"O\": 1}, \"19\": {\"O\": 1}, \"20\": {\"O\": 1}, \"21\": {\"O\": 1}, \"22\": {\"O\": 1}, \"23\": {\"O\": 1}, \"24\": {\"O\": 1}, \"25\": {\"O\": 1}, \"26\": {\"O\": 1}, \"27\": {\"O\": 1}, \"28\": {\"O\": 1}, \"29\": {\"O\": 1}, \"30\": {\"O\": 1}, \"31\": {\"O\": 1}, \"32\": {\"O\": 1}, \"33\": {\"O\": 1}, \"34\": {\"O\": 1}, \"35\": {\"O\": 1}, \"36\": {\"O\": 1}, \"37\": {\"O\": 1}, \"38\": {\"O\": 1}, \"39\": {\"O\": 1}}" n_minim_iter=2 energy=-45152.07401200373 stress="0.13227753800026687 6.916418787535585e-13 5.520485703528531e-13 6.916418787535585e-13 0.13227753799987302 -1.1816570143239318e-12 5.520485703528531e-13 -1.1816570143239318e-12 0.13227753799804315" free_energy=-45152.07401200373 pbc="T T T"
In      -3.99796287       2.82698666       5.03024440        0      -0.07316425       0.05173493      -0.08960753
In       6.69967628       0.99381309       1.58757488        1       0.07316425      -0.05173493       0.08960753
In       1.29624946      -0.91658678       4.89648452        2       0.07316425      -0.05173493       0.08960753
In      -1.35085671      -1.91039987       3.30890964        3       0.00000000      -0.00000000      -0.00000000
In      -1.29624947       3.78218660       3.24202970        4      -0.07316425       0.05173493       0.08960753
In       4.10717735      -2.78837351       4.96336446        5      -0.07316425      -0.10346987       0.00000000
In      -1.29624947       1.03242624       4.96336446        6      -0.07316425      -0.10346987       0.00000000
In      -1.40546395       6.60917325       1.65445482        7       0.07316425       0.10346987      -0.00000000
In       3.99796287       0.03861315       3.37578958        8       0.07316425      -0.05173493      -0.08960753
In      -1.35085671       3.82079974      -0.00000000        9       0.00000000      -0.00000000       0.00000000
In       3.99796287       5.76981277       0.06687993       10       0.07316425      -0.05173493      -0.08960753
In      -1.29624947      -1.94901302       6.55093934       11      -0.07316425       0.05173493       0.08960753
In       3.99796287       2.78837351       1.65445482       12       0.07316425       0.10346987      -0.00000000
In       1.40546394       4.73738653       1.72133475       13      -0.07316425       0.05173493      -0.08960753
In       4.05257011       0.00000000      -0.00000000       14       0.00000000      -0.00000000       0.00000000
In       1.35085670       1.91039987       3.30890964       15       0.00000000       0.00000000       0.00000000
O        0.75421343       3.82498903       3.45540772       16       0.05213349       0.04999339       0.07807337
O       -1.94749997       2.99037623       4.88648739       17       0.05213349       0.04261683      -0.08233223
O       -0.52757662       1.98633880       0.00771195       18       0.10469158       0.00545264      -0.01796198
O       -0.75421344      -0.82623423       1.72407583       19      -0.05213349       0.09261022      -0.00425886
O        3.46852040       4.65148647       1.71636388       20       0.02280170      -0.10298057       0.01370312
O        1.93490641       2.74972838       1.57757775       21      -0.02280170      -0.06335753      -0.08233223
O        1.93490641       5.72255783       0.13878614       22      -0.02280170      -0.03962304       0.09603535
O       -2.04859705       5.56649069       3.31662159       23       0.02975639      -0.10052172      -0.01796198
O        3.22929003       1.83446095       6.61010733       24      -0.10469158      -0.00545264       0.01796198
O        4.75031046      -1.74569095       3.30119769       25      -0.02975639       0.10052172       0.01796198
O        5.93100344       2.91024802       1.59254575       26      -0.10469158      -0.01282921      -0.01370312
O        3.35482976       1.99943308       3.44769578       27       0.02975639       0.03470533       0.09603535
O        0.65311635       3.89647546       6.47132119       28       0.02975639       0.06581639      -0.07807337
O        2.04859705      -0.07567572       0.14649808       29      -0.02975639      -0.06581639       0.07807337
O       -3.22929003       0.91055173       5.02527352       30       0.10469158       0.01282921       0.01370312
O        4.64921338       0.83042352       1.73133189       31      -0.05213349      -0.04261683       0.08233223
O        0.76680699       1.07107137       5.04024153       32       0.02280170       0.06335753       0.08233223
O        3.22929003      -0.92390921       5.03298547       33      -0.10469158       0.01828185      -0.00425886
O        1.94749997      -0.00418929       3.16241155       34      -0.05213349      -0.04999339      -0.07807337
O        0.76680699      -1.90175809       6.47903314       35       0.02280170       0.03962304      -0.09603535
O       -0.65311636       1.82136667       3.17012350       36      -0.02975639      -0.03470533      -0.09603535
O       -0.76680700      -0.83068672       4.90145539       37      -0.02280170       0.10298057      -0.01370312
O       -0.52757662       4.74470896       1.58483380       38       0.10469158      -0.01828185       0.00425886
O        3.45592684       4.64703397       4.89374344       39       0.05213349      -0.09261022       0.00425886
40
Lattice="8.105140224644254 6.352537535264854e-10 2.1117632369334676e-14 -2.7017134088136756 7.6415994868733295 -1.1003054257410815e-09 -2.7017134079153076 -3.8207997428014058 6.617819281911957" Properties=species:S:1:pos:R:3:spacegroup_kinds:I:1:forces:R:3 spacegroup="P 1" unit_cell=conventional occupancy="_JSON {\"0\": {\"In\": 1}, \"1\": {\"In\": 1}, \"2\": {\"In\": 1}, \"3\": {\"In\": 1}, \"4\": {\"In\": 1}, \"5\": {\"In\": 1}, \"6\": {\"In\": 1}, \"7\": {\"In\": 1}, \"8\": {\"In\": 1}, \"9\": {\"In\": 1}, \"10\": {\"In\": 1}, \"11\": {\"In\": 1}, \"12\": {\"In\": 1}, \"13\": {\"In\": 1}, \"14\": {\"In\": 1}, \"15\": {\"In\": 1}, \"16\": {\"O\": 1}, \"17\": {\"O\": 1}, \"18\": {\"O\": 1}, \"19\": {\"O\": 1}, \"20\": {\"O\": 1}, \"21\": {\"O\": 1}, \"22\": {\"O\": 1}, \"23\": {\"O\": 1}, \"24\": {\"O\": 1}, \"25\": {\"O\": 1}, \"26\": {\"O\": 1}, \"27\": {\"O\": 1}, \"28\": {\"O\": 1}, \"29\": {\"O\": 1}, \"30\": {\"O\": 1}, \"31\": {\"O\": 1}, \"32\": {\"O\": 1}, \"33\": {\"O\": 1}, \"34\": {\"O\": 1}, \"35\": {\"O\": 1}, \"36\": {\"O\": 1}, \"37\": {\"O\": 1}, \"38\": {\"O\": 1}, \"39\": {\"O\": 1}}" n_minim_iter=3 energy=-45152.07858515775 stress="0.13236855829891278 -5.379918369900979e-13 2.958273881686495e-13 -5.379918369900979e-13 0.13236855830034888 3.2091327787161113e-13 2.958273881686495e-13 3.2091327787161113e-13 0.13236855830051933" free_energy=-45152.07858515775 pbc="T T T"
In      -3.99907379       2.82777220       5.02888381        0      -0.03129058       0.02212578      -0.03832298
In       6.70078719       0.99302755       1.58893547        1       0.03129058      -0.02212578       0.03832298
In       1.29736038      -0.91737232       4.89784511        2       0.03129058      -0.02212578       0.03832298
In      -1.35085671      -1.91039987       3.30890964        3      -0.00000000      -0.00000000      -0.00000000
In      -1.29736038       3.78297213       3.24339029        4      -0.03129058       0.02212578       0.03832298
In       4.10606644      -2.78994458       4.96336446        5      -0.03129058      -0.04425157      -0.00000000
In      -1.29736038       1.03085517       4.96336446        6      -0.03129058      -0.04425157       0.00000000
In      -1.40435303       6.61074432       1.65445482        7       0.03129058       0.04425157      -0.00000000
In       3.99907379       0.03782762       3.37442899        8       0.03129058      -0.02212578      -0.03832298
In      -1.35085671       3.82079974      -0.00000000        9       0.00000000      -0.00000000      -0.00000000
In       3.99907379       5.76902723       0.06551935       10       0.03129058      -0.02212578      -0.03832298
In      -1.29736038      -1.94822748       6.55229993       11      -0.03129058       0.02212578       0.03832298
In       3.99907379       2.78994458       1.65445482       12       0.03129058       0.04425157       0.00000000
In       1.40435303       4.73817207       1.71997417       13      -0.03129058       0.02212578      -0.03832298
In       4.05257011       0.00000000      -0.00000000       14       0.00000000       0.00000000       0.00000000
In       1.35085670       1.91039987       3.30890964       15      -0.00000000      -0.00000000      -0.00000000
O        0.75496800       3.82582525       3.45620198       16       0.03196592       0.02375178       0.02461510
O       -1.94674541       2.99064597       4.88536607       17       0.03196592       0.00944141      -0.03287720
O       -0.52628240       1.98622694       0.00725158       18       0.04195015       0.00238149      -0.02064906
O       -0.75496800      -0.82512827       1.72374877       19      -0.03196592       0.03319319      -0.00826210
O        3.46852319       4.65011472       1.71649719       20      -0.00175386      -0.04511493       0.01238697
O        1.93490362       2.74892706       1.57645643       21       0.00175386      -0.03328489      -0.03287720
O        1.93490362       5.72198741       0.14004076       22       0.00175386      -0.01183004       0.04526416
O       -2.04806018       5.56530777       3.31616122       23       0.01173809      -0.04034481      -0.02064906
O        3.22799580       1.83457281       6.61056770       24      -0.04195015      -0.00238149       0.02064906
O        4.74977358      -1.74450802       3.30165806       25      -0.01173809       0.04034481       0.02064906
O        5.92970921       2.90979340       1.59241245       26      -0.04195015      -0.01669187      -0.01238697
O        3.35536664       1.99962585       3.44895040       27       0.01173809       0.00228979       0.04526416
O        0.65365323       3.89746561       6.47052694       28       0.01173809       0.03805502      -0.02461510
O        2.04806018      -0.07666587       0.14729234       29      -0.01173809      -0.03805502       0.02461510
O       -3.22799580       0.91100635       5.02540683       30       0.04195015       0.01669187       0.01238697
O        4.64845882       0.83015378       1.73245321       31      -0.03196592      -0.00944141       0.03287720
O        0.76680978       1.07187269       5.04136285       32      -0.00175386       0.03328489       0.03287720
O        3.22799580      -0.92356646       5.03265841       33      -0.04195015       0.01907336      -0.00826210
O        1.94674541      -0.00502551       3.16161730       34      -0.03196592      -0.02375178      -0.02461510
O        0.76680978      -1.90118766       6.47777852       35      -0.00175386       0.01183004      -0.04526416
O       -0.65365323       1.82117390       3.16886888       36      -0.01173809      -0.00228979      -0.04526416
O       -0.76680978      -0.82931497       4.90132209       37       0.00175386       0.04511493      -0.01238697
O       -0.52628240       4.74436620       1.58516086       38       0.04195015      -0.01907336       0.00826210
O        3.45668141       4.64592802       4.89407050       39       0.03196592      -0.03319319       0.00826210
40
Lattice="8.10514022464425 6.352537535264852e-10 2.111763236933467e-14 -2.7017134088136747 7.641599486873329 -1.1003054257410811e-09 -2.7017134079153067 -3.8207997428014053 6.617819281911956" Properties=species:S:1:pos:R:3:spacegroup_kinds:I:1:forces:R:3 spacegroup="P 1" unit_cell=conventional occupancy="_JSON {\"0\": {\"In\": 1}, \"1\": {\"In\": 1}, \"2\": {\"In\": 1}, \"3\": {\"In\": 1}, \"4\": {\"In\": 1}, \"5\": {\"In\": 1}, \"6\": {\"In\": 1}, \"7\": {\"In\": 1}, \"8\": {\"In\": 1}, \"9\": {\"In\": 1}, \"10\": {\"In\": 1}, \"11\": {\"In\": 1}, \"12\": {\"In\": 1}, \"13\": {\"In\": 1}, \"14\": {\"In\": 1}, \"15\": {\"In\": 1}, \"16\": {\"O\": 1}, \"17\": {\"O\": 1}, \"18\": {\"O\": 1}, \"19\": {\"O\": 1}, \"20\": {\"O\": 1}, \"21\": {\"O\": 1}, \"22\": {\"O\": 1}, \"23\": {\"O\": 1}, \"24\": {\"O\": 1}, \"25\": {\"O\": 1}, \"26\": {\"O\": 1}, \"27\": {\"O\": 1}, \"28\": {\"O\": 1}, \"29\": {\"O\": 1}, \"30\": {\"O\": 1}, \"31\": {\"O\": 1}, \"32\": {\"O\": 1}, \"33\": {\"O\": 1}, \"34\": {\"O\": 1}, \"35\": {\"O\": 1}, \"36\": {\"O\": 1}, \"37\": {\"O\": 1}, \"38\": {\"O\": 1}, \"39\": {\"O\": 1}}" n_minim_iter=4 energy=-45152.07984127284 stress="0.13278777556387986 -8.343354910325999e-14 3.034489459642642e-13 -8.343354910325999e-14 0.13278777556599478 -7.34664215483555e-13 3.034489459642642e-13 -7.34664215483555e-13 0.13278777556320315" free_energy=-45152.07984127284 pbc="T T T"
In      -4.00007319       2.82847888       5.02765980        0       0.00523653      -0.00370278       0.00641341
In       6.70178660       0.99232087       1.59015948        1      -0.00523653       0.00370278      -0.00641341
In       1.29835978      -0.91807900       4.89906912        2      -0.00523653       0.00370278      -0.00641341
In      -1.35085671      -1.91039987       3.30890964        3       0.00000000       0.00000000      -0.00000000
In      -1.29835978       3.78367882       3.24461430        4       0.00523653      -0.00370278      -0.00641341
In       4.10506703      -2.79135795       4.96336446        5       0.00523653       0.00740557       0.00000000
In      -1.29835978       1.02944180       4.96336446        6       0.00523653       0.00740557      -0.00000000
In      -1.40335363       6.61215769       1.65445482        7      -0.00523653      -0.00740557      -0.00000000
In       4.00007319       0.03712093       3.37320498        8      -0.00523653       0.00370278       0.00641341
In      -1.35085671       3.82079974      -0.00000000        9       0.00000000      -0.00000000       0.00000000
In       4.00007319       5.76832055       0.06429533       10      -0.00523653       0.00370278       0.00641341
In      -1.29835978      -1.94752080       6.55352394       11       0.00523653      -0.00370278      -0.00641341
In       4.00007319       2.79135795       1.65445482       12      -0.00523653      -0.00740557       0.00000000
In       1.40335363       4.73887875       1.71875015       13       0.00523653      -0.00370278       0.00641341
In       4.05257011       0.00000000      -0.00000000       14      -0.00000000       0.00000000       0.00000000
In       1.35085670       1.91039987       3.30890964       15      -0.00000000       0.00000000      -0.00000000
O        0.75586673       3.82669009       3.45642798       16       0.01366308      -0.00124085      -0.00246114
O       -1.94584668       2.99040927       4.88450410       17       0.01366308      -0.00151099       0.00230518
O       -0.52539060       1.98599514       0.00638111       18       0.00195990       0.00676441      -0.01202823
O       -0.75586673      -0.82450013       1.72311280       19      -0.01366308      -0.00275184      -0.00015597
O        3.46800045       4.64898401       1.71673169       20      -0.00597893      -0.00419266       0.01187226
O        1.93542636       2.74815863       1.57559446       21       0.00597893      -0.01237801       0.00230518
O        1.93542636       5.72162513       0.14113723       22       0.00597893       0.00818535       0.00956708
O       -2.04754438       5.56454424       3.31529075       23      -0.00572424      -0.00410262      -0.01202823
O        3.22710401       1.83480460       6.61143816       24      -0.00195990      -0.00676441       0.01202823
O        4.74925778      -1.74374450       3.30252852       25       0.00572424       0.00410262       0.01202823
O        5.92881741       2.90892365       1.59217795       26      -0.00195990      -0.00703455      -0.01187226
O        3.35588244       1.99925377       3.45004687       27      -0.00572424      -0.00836544       0.00956708
O        0.65416903       3.89860122       6.47030093       28      -0.00572424       0.01246806       0.00246114
O        2.04754438      -0.07780148       0.14751834       29       0.00572424      -0.01246806      -0.00246114
O       -3.22710401       0.91187609       5.02564133       30       0.00195990       0.00703455       0.01187226
O        4.64756008       0.83039048       1.73331518       31      -0.01366308       0.00151099      -0.00230518
O        0.76628705       1.07264112       5.04222482       32      -0.00597893       0.01237801      -0.00230518
O        3.22710401      -0.92292851       5.03202244       33      -0.00195990       0.01379895      -0.00015597
O        1.94584668      -0.00589034       3.16139129       34      -0.01366308       0.00124085       0.00246114
O        0.76628705      -1.90082538       6.47668205       35      -0.00597893      -0.00818535      -0.00956708
O       -0.65416903       1.82154598       3.16777241       36       0.00572424       0.00836544      -0.00956708
O       -0.76628705      -0.82818427       4.90108759       37       0.00597893       0.00419266      -0.01187226
O       -0.52539060       4.74372825       1.58579683       38       0.00195990      -0.01379895       0.00015597
O        3.45758014       4.64529987       4.89470648       39       0.01366308       0.00275184       0.00015597
40
Lattice="8.105140224644254 6.352537535264855e-10 2.1117632369334676e-14 -2.701713408813676 7.641599486873334 -1.1003054257410815e-09 -2.701713407915308 -3.820799742801408 6.61781928191196" Properties=species:S:1:pos:R:3:spacegroup_kinds:I:1:forces:R:3 spacegroup="P 1" unit_cell=conventional occupancy="_JSON {\"0\": {\"In\": 1}, \"1\": {\"In\": 1}, \"2\": {\"In\": 1}, \"3\": {\"In\": 1}, \"4\": {\"In\": 1}, \"5\": {\"In\": 1}, \"6\": {\"In\": 1}, \"7\": {\"In\": 1}, \"8\": {\"In\": 1}, \"9\": {\"In\": 1}, \"10\": {\"In\": 1}, \"11\": {\"In\": 1}, \"12\": {\"In\": 1}, \"13\": {\"In\": 1}, \"14\": {\"In\": 1}, \"15\": {\"In\": 1}, \"16\": {\"O\": 1}, \"17\": {\"O\": 1}, \"18\": {\"O\": 1}, \"19\": {\"O\": 1}, \"20\": {\"O\": 1}, \"21\": {\"O\": 1}, \"22\": {\"O\": 1}, \"23\": {\"O\": 1}, \"24\": {\"O\": 1}, \"25\": {\"O\": 1}, \"26\": {\"O\": 1}, \"27\": {\"O\": 1}, \"28\": {\"O\": 1}, \"29\": {\"O\": 1}, \"30\": {\"O\": 1}, \"31\": {\"O\": 1}, \"32\": {\"O\": 1}, \"33\": {\"O\": 1}, \"34\": {\"O\": 1}, \"35\": {\"O\": 1}, \"36\": {\"O\": 1}, \"37\": {\"O\": 1}, \"38\": {\"O\": 1}, \"39\": {\"O\": 1}}" n_minim_iter=5 energy=-45152.08008812631 stress="0.13334708509663742 -1.6235386184950615e-12 -1.5307277742434553e-12 -1.6235386184950615e-12 0.13334708509562698 -3.4293678458938454e-13 -1.5307277742434553e-12 -3.4293678458938454e-13 0.1333470850988407" free_energy=-45152.08008812631 pbc="T T T"
In      -3.99993164       2.82837879       5.02783316        0       0.00672527      -0.00475548       0.00823674
In       6.70164504       0.99242096       1.58998612        1      -0.00672527       0.00475548      -0.00823674
In       1.29821823      -0.91797891       4.89889576        2      -0.00672527       0.00475548      -0.00823674
In      -1.35085671      -1.91039987       3.30890964        3       0.00000000       0.00000000       0.00000000
In      -1.29821823       3.78357872       3.24444094        4       0.00672527      -0.00475548      -0.00823674
In       4.10520859      -2.79115776       4.96336446        5       0.00672527       0.00951096      -0.00000000
In      -1.29821823       1.02964198       4.96336446        6       0.00672527       0.00951096       0.00000000
In      -1.40349518       6.61195751       1.65445482        7      -0.00672527      -0.00951096      -0.00000000
In       3.99993164       0.03722102       3.37337834        8      -0.00672527       0.00475548       0.00823674
In      -1.35085671       3.82079974      -0.00000000        9      -0.00000000      -0.00000000      -0.00000000
In       3.99993164       5.76842064       0.06446870       10      -0.00672527       0.00475548       0.00823674
In      -1.29821823      -1.94762089       6.55335058       11       0.00672527      -0.00475548      -0.00823674
In       3.99993164       2.79115776       1.65445482       12      -0.00672527      -0.00951096      -0.00000000
In       1.40349518       4.73877866       1.71892352       13       0.00672527      -0.00475548       0.00823674
In       4.05257011       0.00000000      -0.00000000       14       0.00000000       0.00000000      -0.00000000
In       1.35085670       1.91039987       3.30890964       15       0.00000000       0.00000000       0.00000000
O        0.75706323       3.82680476       3.45631683       16       0.00126091      -0.00184457      -0.00239904
O       -1.94465018       2.99025568       4.88446037       17       0.00126091      -0.00115534       0.00279697
O       -0.52502847       1.98643154       0.00531550       18      -0.00240804       0.00143900      -0.00169657
O       -0.75706323      -0.82453905       1.72295792       19      -0.00126091      -0.00299991       0.00039793
O        3.46745681       4.64840771       1.71764242       20      -0.00150957       0.00202040       0.00209450
O        1.93597000       2.74708175       1.57555073       21       0.00150957      -0.00080369       0.00279697
O        1.93597000       5.72212570       0.14209169       22       0.00150957       0.00282409      -0.00070247
O       -2.04783511       5.56405736       3.31422514       23      -0.00215938       0.00179066      -0.00169657
O        3.22674187       1.83436821       6.61250378       24       0.00240804      -0.00143900       0.00169657
O        4.74954851      -1.74325761       3.30359414       25       0.00215938      -0.00179066       0.00169657
O        5.92845528       2.90821900       1.59126721       26       0.00240804      -0.00074977      -0.00209450
O        3.35559171       1.99857436       3.45100133       27      -0.00215938      -0.00236460      -0.00070247
O        0.65387830       3.89976752       6.47041208       28      -0.00215938       0.00057394       0.00239904
O        2.04783510      -0.07896777       0.14740719       29       0.00215938      -0.00057394      -0.00239904
O       -3.22674188       0.91258075       5.02655206       30      -0.00240804       0.00074977       0.00209450
O        4.64636358       0.83054407       1.73335891       31      -0.00126091       0.00115534      -0.00279697
O        0.76574340       1.07371800       5.04226855       32      -0.00150957       0.00080369      -0.00279697
O        3.22674187      -0.92178746       5.03186756       33       0.00240804       0.00218877       0.00039793
O        1.94465017      -0.00600501       3.16150244       34      -0.00126091       0.00184457       0.00239904
O        0.76574341      -1.90132595       6.47572758       35      -0.00150957      -0.00282409       0.00070247
O       -0.65387830       1.82222539       3.16681794       36       0.00215938       0.00236460       0.00070247
O       -0.76574341      -0.82760796       4.90017685       37       0.00150957      -0.00202040      -0.00209450
O       -0.52502847       4.74258720       1.58595171       38      -0.00240804      -0.00218877      -0.00039793
O        3.45877664       4.64533880       4.89486135       39       0.00126091       0.00299991      -0.00039793
40