40
Lattice="9.346293002068883 7.325416016625896e-10 1.8898677556321483e-14 -3.115431001380276 8.811769547381532 -1.2688002390182328e-09 -3.115431000344322 -4.4058847729582284 7.631216281172365" Properties=species:S:1:pos:R:3:spacegroup_kinds:I:1:forces:R:3 spacegroup="P 1" unit_cell=conventional occupancy="_JSON {\"0\": {\"In\": 1}, \"1\": {\"In\": 1}, \"2\": {\"In\": 1}, \"3\": {\"In\": 1}, \"4\": {\"In\": 1}, \"5\": {\"In\": 1}, \"6\": {\"In\": 1}, \"7\": {\"In\": 1}, \"8\": {\"In\": 1}, \"9\": {\"In\": 1}, \"10\": {\"In\": 1}, \"11\": {\"In\": 1}, \"12\": {\"In\": 1}, \"13\": {\"In\": 1}, \"14\": {\"In\": 1}, \"15\": {\"In\": 1}, \"16\": {\"O\": 1}, \"17\": {\"O\": 1}, \"18\": {\"O\": 1}, \"19\": {\"O\": 1}, \"20\": {\"O\": 1}, \"21\": {\"O\": 1}, \"22\": {\"O\": 1}, \"23\": {\"O\": 1}, \"24\": {\"O\": 1}, \"25\": {\"O\": 1}, \"26\": {\"O\": 1}, \"27\": {\"O\": 1}, \"28\": {\"O\": 1}, \"29\": {\"O\": 1}, \"30\": {\"O\": 1}, \"31\": {\"O\": 1}, \"32\": {\"O\": 1}, \"33\": {\"O\": 1}, \"34\": {\"O\": 1}, \"35\": {\"O\": 1}, \"36\": {\"O\": 1}, \"37\": {\"O\": 1}, \"38\": {\"O\": 1}, \"39\": {\"O\": 1}}" n_minim_iter=11 energy=-45150.14815392457 stress="-0.02616370029454801 1.7264186139914499e-12 -1.2208874737192944e-12 1.7264186139914499e-12 -0.02616370029117404 1.7206039985309916e-13 -1.2208874737192944e-12 1.7206039985309916e-13 -0.026163700295184934" free_energy=-45150.14815392457 pbc="T T T"
In      -4.60522021       3.25638244       5.80660459        0      -0.00006936       0.00004904      -0.00008494
In       7.72065120       1.14950234       1.82461169        1       0.00006936      -0.00004904       0.00008494
In       1.48978920      -1.05344005       5.64021983        2       0.00006936      -0.00004904       0.00008494
In      -1.55771550      -2.20294238       3.81560814        3       0.00000000      -0.00000000      -0.00000000
In      -1.48978921       4.35785363       3.73241576        4      -0.00006936       0.00004904       0.00008494
In       4.74107280      -3.20835129       5.72341221        5      -0.00006936      -0.00009808       0.00000000
In      -1.48978921       1.19753348       5.72341221        6      -0.00006936      -0.00009808       0.00000000
In      -1.62564180       7.61423607       1.90780407        7       0.00006936       0.00009808       0.00000000
In       4.60522020       0.04803115       3.89880052        8       0.00006936      -0.00004904      -0.00008494
In      -1.55771550       4.40588478      -0.00000000        9      -0.00000000      -0.00000000       0.00000000
In       4.60522020       6.65685831       0.08319238       10       0.00006936      -0.00004904      -0.00008494
In      -1.48978921      -2.25097353       7.54802390       11      -0.00006936       0.00004904       0.00008494
In       4.60522020       3.20835129       1.90780407       12       0.00006936       0.00009808      -0.00000000
In       1.62564179       5.45932482       1.99099645       13      -0.00006936       0.00004904      -0.00008494
In       4.67314650       0.00000000      -0.00000000       14      -0.00000000       0.00000000       0.00000000
In       1.55771550       2.20294239       3.81560814       15      -0.00000000      -0.00000000      -0.00000000
O        0.72140251       4.37682437       4.18194782       16      -0.00051308      -0.00091408      -0.00094075
O       -2.39402849       3.63620326       5.56540941       17      -0.00051308      -0.00035768       0.00126199
O       -0.51259360       2.30582789       0.23847086       18      -0.00137005       0.00024829       0.00021242
O       -0.72140251      -0.79874192       2.11614096       19       0.00051308      -0.00127176       0.00032124
O        4.22625480       5.34230792       1.87767009       20      -0.00016620       0.00139440       0.00010881
O        2.00460719       3.24798634       1.74980127       21       0.00016620       0.00060296       0.00126199
O        2.00460719       6.50020635       0.12786882       22       0.00016620       0.00079144      -0.00115318
O       -2.34481992       6.32349575       4.05407900       23      -0.00069077       0.00120893       0.00021242
O        3.62802460       2.10005689       7.39274541       24       0.00137005      -0.00024829      -0.00021242
O        5.46025091      -1.91761097       3.57713727       25       0.00069077      -0.00120893      -0.00021242
O        6.74345560       3.56237816       1.93793804       26       0.00137005       0.00030811      -0.00010881
O        3.88604208       2.55212993       3.94347696       27      -0.00069077      -0.00042050      -0.00115318
O        0.77061108       4.34202865       7.26487659       28      -0.00069077      -0.00078843       0.00094075
O        2.34481991       0.06385612       0.36633968       29       0.00069077       0.00078843      -0.00094075
O       -3.62802460       0.84350662       5.69327823       30      -0.00137005      -0.00030811       0.00010881
O        5.50945949       0.76968152       2.06580686       31       0.00051308       0.00035768      -0.00126199
O        1.11082380       1.15789843       5.88141500       32      -0.00016620      -0.00060296      -0.00126199
O        3.62802460      -1.25655027       5.93174910       33       0.00137005      -0.00005982       0.00032124
O        2.39402849       0.02906041       3.44926845       34       0.00051308       0.00091408       0.00094075
O        1.11082380      -2.09432157       7.50334746       35      -0.00016620      -0.00079144       0.00115318
O       -0.77061109       1.85375485       3.68773932       36       0.00069077       0.00042050       0.00115318
O       -1.11082381      -0.93642314       5.75354618       37       0.00016620      -0.00139440      -0.00010881
O       -0.51259360       5.66243505       1.69946718       38      -0.00137005       0.00005982      -0.00032124
O        3.83683351       5.20462670       5.51507532       39      -0.00051308       0.00127176      -0.00032124
