40
Lattice="8.845892357389026 6.933172858965628e-10 -2.7495059827317463e-15 -2.948630786450009 8.33998729517694 -1.200863323741669e-09 -2.9486307854695055 -4.16999364689515 7.2226408656632755" Properties=species:S:1:pos:R:3:spacegroup_kinds:I:1:forces:R:3 spacegroup="P 1" unit_cell=conventional occupancy="_JSON {\"0\": {\"In\": 1}, \"1\": {\"In\": 1}, \"2\": {\"In\": 1}, \"3\": {\"In\": 1}, \"4\": {\"In\": 1}, \"5\": {\"In\": 1}, \"6\": {\"In\": 1}, \"7\": {\"In\": 1}, \"8\": {\"In\": 1}, \"9\": {\"In\": 1}, \"10\": {\"In\": 1}, \"11\": {\"In\": 1}, \"12\": {\"In\": 1}, \"13\": {\"In\": 1}, \"14\": {\"In\": 1}, \"15\": {\"In\": 1}, \"16\": {\"O\": 1}, \"17\": {\"O\": 1}, \"18\": {\"O\": 1}, \"19\": {\"O\": 1}, \"20\": {\"O\": 1}, \"21\": {\"O\": 1}, \"22\": {\"O\": 1}, \"23\": {\"O\": 1}, \"24\": {\"O\": 1}, \"25\": {\"O\": 1}, \"26\": {\"O\": 1}, \"27\": {\"O\": 1}, \"28\": {\"O\": 1}, \"29\": {\"O\": 1}, \"30\": {\"O\": 1}, \"31\": {\"O\": 1}, \"32\": {\"O\": 1}, \"33\": {\"O\": 1}, \"34\": {\"O\": 1}, \"35\": {\"O\": 1}, \"36\": {\"O\": 1}, \"37\": {\"O\": 1}, \"38\": {\"O\": 1}, \"39\": {\"O\": 1}}" n_minim_iter=4 energy=-45151.07337044887 stress="-0.021288679425513872 1.6590749125333121e-12 -1.4099865253362305e-12 1.6590749125333121e-12 -0.021288679428903723 1.580709511634879e-13 -1.4099865253362305e-12 1.580709511634879e-13 -0.021288679429117302" free_energy=-45151.07337044887 pbc="T T T"
In      -4.22468672       2.98730463       5.65979791        0      -0.00577294       0.00408209      -0.00707038
In       7.17331750       1.18268903       1.56284295        1       0.00577294      -0.00408209       0.00707038
In       1.27605593      -0.90230780       5.17416339        2       0.00577294      -0.00408209       0.00707038
In      -1.47431539      -2.08499682       3.61132043        3       0.00000000       0.00000000       0.00000000
In      -1.27605593       4.02980304       3.36850317        4      -0.00577294       0.00408209       0.00707038
In       4.62120564      -2.84711401       5.41698065        5      -0.00577294      -0.00816417       0.00000000
In      -1.27605593       1.32287964       5.41698065        6      -0.00577294      -0.00816417      -0.00000000
In      -1.67257486       7.01710766       1.80566021        7       0.00577294       0.00816417       0.00000000
In       4.22468671       0.14019061       3.85413769        8       0.00577294      -0.00408209      -0.00707038
In      -1.47431539       4.16999365      -0.00000000        9      -0.00000000       0.00000000       0.00000000
In       4.22468671       6.39518108       0.24281726       10       0.00577294      -0.00408209      -0.00707038
In      -1.27605593      -2.22518743       6.97982360       11      -0.00577294       0.00408209       0.00707038
In       4.22468671       2.84711402       1.80566021       12       0.00577294       0.00816417      -0.00000000
In       1.67257485       5.07230145       2.04847747       13      -0.00577294       0.00408209      -0.00707038
In       4.42294618       0.00000000      -0.00000000       14      -0.00000000       0.00000000      -0.00000000
In       1.47431539       2.08499683       3.61132043       15       0.00000000      -0.00000000       0.00000000
O        0.88127992       4.17151508       3.92309638       16       0.00283743      -0.00224291       0.00611303
O       -2.06735086       3.39674042       5.25977507       17       0.00283743       0.00641549      -0.00111409
O       -0.43383574       2.24167080       0.03777347       18       0.00487976       0.00497135       0.00138723
O       -0.88127993      -0.77173180       1.96023059       19      -0.00283743       0.00417258       0.00499893
O        3.89159453       4.96353397       1.92245712       20       0.00510277      -0.00337166       0.00361170
O        2.00566704       2.90186710       1.64845464       21      -0.00510277      -0.00481366      -0.00111409
O        2.00566704       6.23166052       0.27400248       22      -0.00510277       0.00144200       0.00472580
O       -2.25807942       5.91679113       3.64909390       23      -0.00306045      -0.00625780       0.00138723
O        3.38246653       1.92832285       7.18486739       24      -0.00487976      -0.00497135      -0.00138723
O        5.20671020      -1.74679748       3.57354696       25       0.00306045       0.00625780      -0.00138723
O        6.33109731       3.23854501       1.68886330       26      -0.00487976       0.00368705      -0.00361170
O        3.63918216       2.28680928       3.88532291       27      -0.00306045       0.00433028       0.00472580
O        0.69055137       4.30638053       6.91086491       28      -0.00306045       0.00192752      -0.00611303
O        2.25807941      -0.13638688       0.31177595       29       0.00306045      -0.00192752       0.00611303
O       -3.38246653       0.93144864       5.53377755       30       0.00487976      -0.00368705       0.00361170
O        5.01598165       0.77325323       1.96286579       31      -0.00283743      -0.00641549       0.00111409
O        0.94296374       1.26812655       5.57418622       32       0.00510277       0.00481366       0.00111409
O        3.38246653      -0.99687421       5.57155103       33      -0.00487976       0.00128430       0.00499893
O        2.06735086      -0.00152143       3.29954447       34      -0.00283743       0.00224291      -0.00611303
O        0.94296374      -2.06166687       6.94863838       35       0.00510277      -0.00144200      -0.00472580
O       -0.69055137       1.88318437       3.33731795       36       0.00306045      -0.00433028      -0.00472580
O       -0.94296375      -0.79354032       5.30018374       37      -0.00510277       0.00337166      -0.00361170
O       -0.43383574       5.16686786       1.65108983       38       0.00487976      -0.00128430      -0.00499893
O        3.82991071       4.94172545       5.26241027       39       0.00283743      -0.00417258      -0.00499893
