40
Lattice="8.450448388543046 6.623210593122231e-10 -1.3356067414669831e-15 -2.8168161301387937 7.967159145920197 -1.1471830500064635e-09 -2.816816129202129 -3.983579572297767 6.899762217125211" Properties=species:S:1:pos:R:3:spacegroup_kinds:I:1:forces:R:3 spacegroup="P 1" unit_cell=conventional occupancy="_JSON {\"0\": {\"In\": 1}, \"1\": {\"In\": 1}, \"2\": {\"In\": 1}, \"3\": {\"In\": 1}, \"4\": {\"In\": 1}, \"5\": {\"In\": 1}, \"6\": {\"In\": 1}, \"7\": {\"In\": 1}, \"8\": {\"In\": 1}, \"9\": {\"In\": 1}, \"10\": {\"In\": 1}, \"11\": {\"In\": 1}, \"12\": {\"In\": 1}, \"13\": {\"In\": 1}, \"14\": {\"In\": 1}, \"15\": {\"In\": 1}, \"16\": {\"O\": 1}, \"17\": {\"O\": 1}, \"18\": {\"O\": 1}, \"19\": {\"O\": 1}, \"20\": {\"O\": 1}, \"21\": {\"O\": 1}, \"22\": {\"O\": 1}, \"23\": {\"O\": 1}, \"24\": {\"O\": 1}, \"25\": {\"O\": 1}, \"26\": {\"O\": 1}, \"27\": {\"O\": 1}, \"28\": {\"O\": 1}, \"29\": {\"O\": 1}, \"30\": {\"O\": 1}, \"31\": {\"O\": 1}, \"32\": {\"O\": 1}, \"33\": {\"O\": 1}, \"34\": {\"O\": 1}, \"35\": {\"O\": 1}, \"36\": {\"O\": 1}, \"37\": {\"O\": 1}, \"38\": {\"O\": 1}, \"39\": {\"O\": 1}}" n_minim_iter=8 energy=-45147.53274814203 stress="-0.05021833426518855 1.0290106812427505e-12 4.447273521043515e-13 1.0290106812427505e-12 -0.05021833426652173 1.3623094008108052e-12 4.447273521043515e-13 1.3623094008108052e-12 -0.050218334263201186" free_energy=-45147.53274814203 pbc="T T T"
In      -4.06886515       2.87712214       5.36632160        0       0.00198087      -0.00140069       0.00242606
In       6.88568128       1.10645744       1.53344061        1      -0.00198087       0.00140069      -0.00242606
In       1.25204902      -0.88533235       4.98332172        2      -0.00198087       0.00140069      -0.00242606
In      -1.40840807      -1.99178978       3.44988111        3       0.00000000       0.00000000      -0.00000000
In      -1.25204902       3.87301703       3.25838117        4       0.00198087      -0.00140069      -0.00242606
In       4.38158324      -2.76655960       5.17482166        5       0.00198087       0.00280138      -0.00000000
In      -1.25204902       1.21701998       5.17482166        6       0.00198087       0.00280138      -0.00000000
In      -1.56476711       6.75013917       1.72494055        7      -0.00198087      -0.00280138      -0.00000000
In       4.06886515       0.11056254       3.64138104        8      -0.00198087       0.00140069       0.00242606
In      -1.40840807       3.98357957      -0.00000000        9       0.00000000      -0.00000000      -0.00000000
In       4.06886515       6.08593190       0.19149993       10      -0.00198087       0.00140069       0.00242606
In      -1.25204902      -2.10235232       6.70826228       11       0.00198087      -0.00140069      -0.00242606
In       4.06886515       2.76655960       1.72494055       12      -0.00198087      -0.00280138      -0.00000000
In       1.56476711       4.86891193       1.91644049       13       0.00198087      -0.00140069       0.00242606
In       4.22522419       0.00000000      -0.00000000       14      -0.00000000       0.00000000       0.00000000
In       1.40840806       1.99178979       3.44988111       15       0.00000000       0.00000000       0.00000000
O        0.85937741       4.00030335       3.69979764       16      -0.00326518      -0.00106689      -0.00087862
O       -1.95743872       3.19575687       5.03538018       17      -0.00326518      -0.00022746       0.00136326
O       -0.44053991       2.12314743      -0.00656801       18      -0.00230872      -0.00090378       0.00253469
O       -0.85937741      -0.77109894       1.83541561       19       0.00326518      -0.00129435       0.00048464
O        3.66546804       4.75088647       1.84198361       20       0.00087394       0.00275775      -0.00205004
O        1.96816422       2.77202842       1.58549907       21      -0.00087394       0.00315426       0.00136326
O        1.96816422       5.96243763       0.25648454       22      -0.00087394      -0.00039652      -0.00341330
O       -2.14856924       5.68299856       3.44331310       23       0.00008252       0.00247794       0.00253469
O        3.25735604       1.86043214       6.90633022       24       0.00230872       0.00090378      -0.00253469
O        4.96538536      -1.69941899       3.45644911       25      -0.00008252      -0.00247794      -0.00253469
O        6.07417217       3.04767545       1.60789749       26       0.00230872       0.00174321       0.00205004
O        3.48506302       2.13228713       3.70636565       27       0.00008252       0.00095613      -0.00341330
O        0.66824689       4.13545303       6.64984568       28       0.00008252      -0.00343407       0.00087862
O        2.14856923      -0.15187345       0.24991654       29      -0.00008252       0.00343407      -0.00087862
O       -3.25735604       0.93590413       5.29186472       30      -0.00230872      -0.00174321      -0.00205004
O        4.77425484       0.78782271       1.86438203       31       0.00326518       0.00022746      -0.00136326
O        0.84865191       1.21155116       5.31426314       32       0.00087394      -0.00315426      -0.00136326
O        3.25735604      -0.92452801       5.28529672       33       0.00230872      -0.00264700       0.00048464
O        1.95743872      -0.01672377       3.19996457       34       0.00326518       0.00106689       0.00087862
O        0.84865191      -1.97885805       6.64327767       35       0.00087394       0.00039652       0.00341330
O       -0.66824690       1.85129245       3.19339657       36      -0.00008252      -0.00095613       0.00341330
O       -0.84865191      -0.76730690       5.05777860       37      -0.00087394      -0.00275775       0.00205004
O       -0.44053991       4.90810759       1.61446549       38      -0.00230872       0.00264700      -0.00048464
O        3.67619354       4.75467851       5.06434660       39      -0.00326518       0.00129435      -0.00048464
