40
Lattice="8.769630869816746 6.873423533140259e-10 -3.094919568115927e-15 -2.9232102905869453 8.268087275171284 -1.1905101867202858e-09 -2.923210289614894 -4.1340436368983005 7.160373621798876" Properties=species:S:1:pos:R:3:spacegroup_kinds:I:1:forces:R:3 spacegroup="P 1" unit_cell=conventional occupancy="_JSON {\"0\": {\"In\": 1}, \"1\": {\"In\": 1}, \"2\": {\"In\": 1}, \"3\": {\"In\": 1}, \"4\": {\"In\": 1}, \"5\": {\"In\": 1}, \"6\": {\"In\": 1}, \"7\": {\"In\": 1}, \"8\": {\"In\": 1}, \"9\": {\"In\": 1}, \"10\": {\"In\": 1}, \"11\": {\"In\": 1}, \"12\": {\"In\": 1}, \"13\": {\"In\": 1}, \"14\": {\"In\": 1}, \"15\": {\"In\": 1}, \"16\": {\"O\": 1}, \"17\": {\"O\": 1}, \"18\": {\"O\": 1}, \"19\": {\"O\": 1}, \"20\": {\"O\": 1}, \"21\": {\"O\": 1}, \"22\": {\"O\": 1}, \"23\": {\"O\": 1}, \"24\": {\"O\": 1}, \"25\": {\"O\": 1}, \"26\": {\"O\": 1}, \"27\": {\"O\": 1}, \"28\": {\"O\": 1}, \"29\": {\"O\": 1}, \"30\": {\"O\": 1}, \"31\": {\"O\": 1}, \"32\": {\"O\": 1}, \"33\": {\"O\": 1}, \"34\": {\"O\": 1}, \"35\": {\"O\": 1}, \"36\": {\"O\": 1}, \"37\": {\"O\": 1}, \"38\": {\"O\": 1}, \"39\": {\"O\": 1}}" n_minim_iter=6 energy=-45150.6552523775 stress="-0.03842785662302953 9.746532025402223e-13 1.7829327631879884e-13 9.746532025402223e-13 -0.03842785662446607 -9.357535565281501e-13 1.7829327631879884e-13 -9.357535565281501e-13 -0.03842785662353021" free_energy=-45150.6552523775 pbc="T T T"
In      -4.19100636       2.96348902       5.60764689        0       0.00485853      -0.00343550       0.00595046
In       7.11421664       1.17055463       1.55272673        1      -0.00485853       0.00343550      -0.00595046
In       1.26779606      -0.89646719       5.13291354        2      -0.00485853       0.00343550      -0.00595046
In      -1.46160515      -2.06702182       3.58018681        3       0.00000000      -0.00000000       0.00000000
In      -1.26779607       3.99699992       3.34282013        4       0.00485853      -0.00343550      -0.00595046
In       4.57862451      -2.82644530       5.37028021        5       0.00485853       0.00687100       0.00000000
In      -1.26779607       1.30759834       5.37028021        6       0.00485853       0.00687100      -0.00000000
In      -1.65541423       6.96048894       1.79009340        7      -0.00485853      -0.00687100      -0.00000000
In       4.19100635       0.13704372       3.81755349        8      -0.00485853       0.00343550       0.00595046
In      -1.46160515       4.13404364      -0.00000000        9       0.00000000      -0.00000000      -0.00000000
In       4.19100635       6.33810917       0.23736667       10      -0.00485853       0.00343550       0.00595046
In      -1.26779607      -2.20406553       6.92300694       11       0.00485853      -0.00343550      -0.00595046
In       4.19100635       2.82644530       1.79009340       12      -0.00485853      -0.00687100      -0.00000000
In       1.65541422       5.03051083       2.02746008       13       0.00485853      -0.00343550       0.00595046
In       4.38481543       0.00000000      -0.00000000       14      -0.00000000       0.00000000       0.00000000
In       1.46160514       2.06702182       3.58018681       15      -0.00000000      -0.00000000       0.00000000
O        0.89008682       4.13825020       3.88118098       16      -0.00035199       0.00425716      -0.00135204
O       -2.03312347       3.35909804       5.21614014       17      -0.00035199      -0.00329948      -0.00301079
O       -0.42996412       2.22549320       0.01922771       18       0.00078558      -0.00410386      -0.00161756
O       -0.89008682      -0.77073903       1.93694750       19       0.00035199       0.00095768      -0.00436282
O        3.84469583       4.91588379       1.91771978       20      -0.00299345      -0.00189158      -0.00274527
O        2.00172475       2.86416966       1.63595333       21       0.00299345       0.00143168      -0.00301079
O        2.00172475       6.18575777       0.28176645       22       0.00299345      -0.00332326       0.00026552
O       -2.24153648       5.86460845       3.59941452       23       0.00413101       0.00062730      -0.00161756
O        3.35317441       1.90855045       7.14114591       24      -0.00078558       0.00410386       0.00161756
O        5.16474677      -1.73056481       3.56095910       25      -0.00413101      -0.00062730       0.00161756
O        6.27638470       3.19642010       1.66246702       26      -0.00078558      -0.00345277       0.00274527
O        3.60488410       2.25190201       3.86195327       27       0.00413101      -0.00171450       0.00026552
O        0.68167381       4.28562046       6.85937945       28       0.00413101       0.00108719       0.00135204
O        2.24153648      -0.15157681       0.30099417       29      -0.00413101      -0.00108719      -0.00135204
O       -3.35317441       0.93762354       5.49790659       30       0.00078558       0.00345277      -0.00274527
O        4.95633376       0.77494560       1.94423348       31       0.00035199       0.00329948       0.00301079
O        0.92148554       1.26987398       5.52442029       32      -0.00299345      -0.00143168       0.00301079
O        3.35317441      -0.97092691       5.51713431       33      -0.00078558      -0.00065108      -0.00436282
O        2.03312347      -0.00420656       3.27919264       34       0.00035199      -0.00425716       0.00135204
O        0.92148554      -2.05171413       6.87860716       35      -0.00299345       0.00332326      -0.00026552
O       -0.68167381       1.88214163       3.29842035       36      -0.00413101       0.00171450      -0.00026552
O       -0.92148554      -0.78184015       5.24265383       37       0.00299345       0.00189158       0.00274527
O       -0.42996412       5.10497055       1.64323931       38       0.00078558       0.00065108       0.00436282
O        3.81329711       4.90478267       5.22342612       39      -0.00035199      -0.00095768       0.00436282
