40
Lattice="9.34629300206882 7.325416016625849e-10 1.8898677556321556e-14 -3.1154310013802533 8.811769547381472 -1.2688002390182254e-09 -3.1154310003442993 -4.405884772958198 7.631216281172316" Properties=species:S:1:pos:R:3:spacegroup_kinds:I:1:forces:R:3 spacegroup="P 1" unit_cell=conventional occupancy="_JSON {\"0\": {\"In\": 1}, \"1\": {\"In\": 1}, \"2\": {\"In\": 1}, \"3\": {\"In\": 1}, \"4\": {\"In\": 1}, \"5\": {\"In\": 1}, \"6\": {\"In\": 1}, \"7\": {\"In\": 1}, \"8\": {\"In\": 1}, \"9\": {\"In\": 1}, \"10\": {\"In\": 1}, \"11\": {\"In\": 1}, \"12\": {\"In\": 1}, \"13\": {\"In\": 1}, \"14\": {\"In\": 1}, \"15\": {\"In\": 1}, \"16\": {\"O\": 1}, \"17\": {\"O\": 1}, \"18\": {\"O\": 1}, \"19\": {\"O\": 1}, \"20\": {\"O\": 1}, \"21\": {\"O\": 1}, \"22\": {\"O\": 1}, \"23\": {\"O\": 1}, \"24\": {\"O\": 1}, \"25\": {\"O\": 1}, \"26\": {\"O\": 1}, \"27\": {\"O\": 1}, \"28\": {\"O\": 1}, \"29\": {\"O\": 1}, \"30\": {\"O\": 1}, \"31\": {\"O\": 1}, \"32\": {\"O\": 1}, \"33\": {\"O\": 1}, \"34\": {\"O\": 1}, \"35\": {\"O\": 1}, \"36\": {\"O\": 1}, \"37\": {\"O\": 1}, \"38\": {\"O\": 1}, \"39\": {\"O\": 1}}" n_minim_iter=1 energy=-45149.74491349599 stress="0.011074745037687411 -3.8418972891211304e-13 3.2282103443216757e-13 -3.8418972891211304e-13 0.011074745037391205 3.448727109562795e-13 3.2282103443216757e-13 3.448727109562795e-13 0.011074745038812265" free_energy=-45149.74491349599 pbc="T T T"
In      -4.48830803       3.17371305       5.94979217        0      -0.09028641       0.06384213      -0.11057782
In       7.60373903       1.23217173       1.68142410        1       0.09028641      -0.06384213       0.11057782
In       1.37287703      -0.97077066       5.49703224        2       0.09028641      -0.06384213       0.11057782
In      -1.55771550      -2.20294238       3.81560814        3      -0.00000000       0.00000000       0.00000000
In      -1.37287703       4.27518424       3.58922817        4      -0.09028641       0.06384213       0.11057782
In       4.85798497      -3.04301251       5.72341221        5      -0.09028641      -0.12768427       0.00000000
In      -1.37287703       1.36287226       5.72341221        6      -0.09028641      -0.12768427      -0.00000000
In      -1.74255397       7.44889729       1.90780407        7       0.09028641       0.12768427       0.00000000
In       4.48830803       0.13070054       4.04198810        8       0.09028641      -0.06384213      -0.11057782
In      -1.55771550       4.40588478      -0.00000000        9       0.00000000       0.00000000      -0.00000000
In       4.48830803       6.73952770       0.22637996       10       0.09028641      -0.06384213      -0.11057782
In      -1.37287703      -2.33364292       7.40483631       11      -0.09028641       0.06384213       0.11057782
In       4.48830803       3.04301251       1.90780407       12       0.09028641       0.12768427       0.00000000
In       1.74255397       5.37665543       2.13418403       13      -0.09028641       0.06384213      -0.11057782
In       4.67314650       0.00000000      -0.00000000       14       0.00000000       0.00000000      -0.00000000
In       1.55771550       2.20294239       3.81560814       15      -0.00000000      -0.00000000      -0.00000000
O        0.85506874       4.40034839       4.17425100       16      -0.04301215      -0.01673981      -0.02459986
O       -2.26036226       3.61777560       5.54888543       17      -0.04301215      -0.01293420       0.02679703
O       -0.46323330       2.34701353       0.11869363       18      -0.04231431      -0.01342765       0.02765171
O       -0.85506874      -0.79364556       2.09192015       19       0.04301215      -0.02967401       0.00219717
O        4.16432563       5.26805814       1.97322651       20       0.00214290       0.04563873      -0.02545454
O        2.06653637       3.12810716       1.73327729       21      -0.00214290       0.04486365       0.02679703
O        2.06653637       6.54583575       0.23994922       22      -0.00214290       0.00077508      -0.05225157
O       -2.36719667       6.26322986       3.93430177       23      -0.00144506       0.04437019       0.02765171
O        3.57866429       2.05887125       7.51252264       24       0.04231431       0.01342765      -0.02765171
O        5.48262767      -1.85734508       3.69691450       25       0.00144506      -0.04437019      -0.02765171
O        6.69409530       3.47924085       1.84238162       26       0.04231431       0.01723326       0.02545454
O        3.86366533       2.47853274       4.05555736       27      -0.00144506       0.00176199      -0.05225157
O        0.74823433       4.47589172       7.27257342       28      -0.00144506      -0.04613218       0.02459986
O        2.36719667      -0.07000695       0.35864286       29       0.00144506       0.04613218      -0.02459986
O       -3.57866430       0.92664392       5.78883466       30      -0.04231431      -0.01723326      -0.02545454
O        5.37579326       0.78810917       2.08233085       31       0.04301215       0.01293420      -0.02679703
O        1.04889463       1.27777761       5.89793899       32       0.00214290      -0.04486365      -0.02679703
O        3.57866430      -1.13222732       5.90752829       33       0.04231431      -0.03066091       0.00219717
O        2.26036226       0.00553639       3.45696528       34       0.04301215       0.01673981       0.02459986
O        1.04889463      -2.13995097       7.39126705       35       0.00214290      -0.00077508       0.05225157
O       -0.74823433       1.92735204       3.57565891       36       0.00144506      -0.00176199       0.05225157
O       -1.04889463      -0.86217336       5.65798976       37      -0.00214290      -0.04563873       0.02545454
O       -0.46323330       5.53811210       1.72368799       38      -0.04231431       0.03066091      -0.00219717
O        3.97049974       5.19953034       5.53929613       39      -0.04301215       0.02967401      -0.00219717
40
Lattice="9.34629300206882 7.32541601662585e-10 1.8898677556321556e-14 -3.1154310013802538 8.811769547381472 -1.2688002390182254e-09 -3.1154310003442998 -4.405884772958198 7.631216281172317" Properties=species:S:1:pos:R:3:spacegroup_kinds:I:1:forces:R:3 spacegroup="P 1" unit_cell=conventional occupancy="_JSON {\"0\": {\"In\": 1}, \"1\": {\"In\": 1}, \"2\": {\"In\": 1}, \"3\": {\"In\": 1}, \"4\": {\"In\": 1}, \"5\": {\"In\": 1}, \"6\": {\"In\": 1}, \"7\": {\"In\": 1}, \"8\": {\"In\": 1}, \"9\": {\"In\": 1}, \"10\": {\"In\": 1}, \"11\": {\"In\": 1}, \"12\": {\"In\": 1}, \"13\": {\"In\": 1}, \"14\": {\"In\": 1}, \"15\": {\"In\": 1}, \"16\": {\"O\": 1}, \"17\": {\"O\": 1}, \"18\": {\"O\": 1}, \"19\": {\"O\": 1}, \"20\": {\"O\": 1}, \"21\": {\"O\": 1}, \"22\": {\"O\": 1}, \"23\": {\"O\": 1}, \"24\": {\"O\": 1}, \"25\": {\"O\": 1}, \"26\": {\"O\": 1}, \"27\": {\"O\": 1}, \"28\": {\"O\": 1}, \"29\": {\"O\": 1}, \"30\": {\"O\": 1}, \"31\": {\"O\": 1}, \"32\": {\"O\": 1}, \"33\": {\"O\": 1}, \"34\": {\"O\": 1}, \"35\": {\"O\": 1}, \"36\": {\"O\": 1}, \"37\": {\"O\": 1}, \"38\": {\"O\": 1}, \"39\": {\"O\": 1}}" n_minim_iter=2 energy=-45149.79652350842 stress="0.002035965400119025 -1.5541377547844315e-13 9.592308378994333e-13 -1.5541377547844315e-13 0.0020359653988392696 -6.949927255018526e-13 9.592308378994333e-13 -6.949927255018526e-13 0.0020359654022490494" free_energy=-45149.79652350842 pbc="T T T"
In      -4.51539396       3.19286569       5.91661883        0       0.00638730      -0.00451650       0.00782281
In       7.63082496       1.21301909       1.71459745        1      -0.00638730       0.00451650      -0.00782281
In       1.39996295      -0.98992330       5.53020559        2      -0.00638730       0.00451650      -0.00782281
In      -1.55771550      -2.20294238       3.81560814        3       0.00000000       0.00000000      -0.00000000
In      -1.39996296       4.29433688       3.62240152        4       0.00638730      -0.00451650      -0.00782281
In       4.83089904      -3.08131779       5.72341221        5       0.00638730       0.00903301       0.00000000
In      -1.39996296       1.32456698       5.72341221        6       0.00638730       0.00903301       0.00000000
In      -1.71546805       7.48720257       1.90780407        7      -0.00638730      -0.00903301       0.00000000
In       4.51539395       0.11154790       4.00881476        8      -0.00638730       0.00451650       0.00782281
In      -1.55771550       4.40588478      -0.00000000        9       0.00000000      -0.00000000       0.00000000
In       4.51539395       6.72037506       0.19320662       10      -0.00638730       0.00451650       0.00782281
In      -1.39996296      -2.31449028       7.43800966       11       0.00638730      -0.00451650      -0.00782281
In       4.51539395       3.08131779       1.90780407       12      -0.00638730      -0.00903301       0.00000000
In       1.71546804       5.39580807       2.10101069       13       0.00638730      -0.00451650       0.00782281
In       4.67314650       0.00000000      -0.00000000       14      -0.00000000      -0.00000000      -0.00000000
In       1.55771550       2.20294239       3.81560814       15      -0.00000000       0.00000000      -0.00000000
O        0.84216509       4.39532645       4.16687104       16      -0.08923499      -0.00005024       0.12469372
O       -2.27326591       3.61389534       5.55692454       17      -0.08923499       0.10801305      -0.06230335
O       -0.47592759       2.34298523       0.12698914       18       0.07204331      -0.00602794       0.13522143
O       -0.84216510      -0.80254776       2.09257930       19       0.08923499       0.10796281       0.06239037
O        4.16496850       5.28174976       1.96559015       20       0.13158068      -0.02989268      -0.07283106
O        2.06589349       3.14156626       1.74131640       21      -0.13158068       0.04812721      -0.06230335
O        2.06589349       6.54606827       0.22427375       22      -0.13158068      -0.07801989      -0.01052771
O       -2.36763019       6.27654092       3.94259728       23       0.02969763      -0.06591377       0.13522143
O        3.59135859       2.06289955       7.50422713       24      -0.07204331       0.00602794      -0.13522143
O        5.48306119      -1.87065614       3.68861899       25      -0.02969763       0.06591377      -0.13522143
O        6.70678959       3.48441083       1.85001798       26      -0.07204331       0.11409123       0.07283106
O        3.86323181       2.47906134       4.03988189       27       0.02969763       0.15006208      -0.01052771
O        0.74780081       4.46205207       7.27995338       28       0.02969763      -0.08414831      -0.12469372
O        2.36763019      -0.05616729       0.35126290       29      -0.02969763       0.08414831       0.12469372
O       -3.59135859       0.92147395       5.78119829       30       0.07204331      -0.11409122      -0.07283106
O        5.38869690       0.79198943       2.07429174       31       0.08923499      -0.10801305       0.06230335
O        1.04953750       1.26431852       5.88989988       32       0.13158068      -0.04812721       0.06230335
O        3.59135859      -1.14142560       5.90818744       33      -0.07204331      -0.12011916       0.06239037
O        2.27326590       0.01055833       3.46434524       34       0.08923499       0.00005024      -0.12469372
O        1.04953750      -2.14018350       7.40694252       35       0.13158068       0.07801989       0.01052771
O       -0.74780082       1.92682344       3.59133438       36      -0.02969763      -0.15006208       0.01052771
O       -1.04953751      -0.87586498       5.66562612       37      -0.13158068       0.02989268       0.07283106
O       -0.47592759       5.54731038       1.72302883       38       0.07204331       0.12011916      -0.06239037
O        3.95759609       5.20843254       5.53863697       39      -0.08923499      -0.10796281      -0.06239037
40
Lattice="9.34629300206882 7.325416016625852e-10 1.8898677556321562e-14 -3.1154310013802546 8.811769547381472 -1.2688002390182254e-09 -3.1154310003443006 -4.405884772958198 7.6312162811723185" Properties=species:S:1:pos:R:3:spacegroup_kinds:I:1:forces:R:3 spacegroup="P 1" unit_cell=conventional occupancy="_JSON {\"0\": {\"In\": 1}, \"1\": {\"In\": 1}, \"2\": {\"In\": 1}, \"3\": {\"In\": 1}, \"4\": {\"In\": 1}, \"5\": {\"In\": 1}, \"6\": {\"In\": 1}, \"7\": {\"In\": 1}, \"8\": {\"In\": 1}, \"9\": {\"In\": 1}, \"10\": {\"In\": 1}, \"11\": {\"In\": 1}, \"12\": {\"In\": 1}, \"13\": {\"In\": 1}, \"14\": {\"In\": 1}, \"15\": {\"In\": 1}, \"16\": {\"O\": 1}, \"17\": {\"O\": 1}, \"18\": {\"O\": 1}, \"19\": {\"O\": 1}, \"20\": {\"O\": 1}, \"21\": {\"O\": 1}, \"22\": {\"O\": 1}, \"23\": {\"O\": 1}, \"24\": {\"O\": 1}, \"25\": {\"O\": 1}, \"26\": {\"O\": 1}, \"27\": {\"O\": 1}, \"28\": {\"O\": 1}, \"29\": {\"O\": 1}, \"30\": {\"O\": 1}, \"31\": {\"O\": 1}, \"32\": {\"O\": 1}, \"33\": {\"O\": 1}, \"34\": {\"O\": 1}, \"35\": {\"O\": 1}, \"36\": {\"O\": 1}, \"37\": {\"O\": 1}, \"38\": {\"O\": 1}, \"39\": {\"O\": 1}}" n_minim_iter=3 energy=-45149.99928241653 stress="-0.01765360548857766 -5.940369150274583e-13 3.8725469687743906e-13 -5.940369150274583e-13 -0.017653605489055726 -3.3718092295995497e-15 3.8725469687743906e-13 -3.3718092295995497e-15 -0.01765360548893164" free_energy=-45149.99928241653 pbc="T T T"
In      -4.57036192       3.23173391       5.84929709        0       0.01761075      -0.01245268       0.02156868
In       7.68579292       1.17415087       1.78191918        1      -0.01761075       0.01245268      -0.02156868
In       1.45493092      -1.02879152       5.59752732        2      -0.01761075       0.01245268      -0.02156868
In      -1.55771550      -2.20294238       3.81560814        3      -0.00000000      -0.00000000      -0.00000000
In      -1.45493092       4.33320510       3.68972325        4       0.01761075      -0.01245268      -0.02156868
In       4.77593108      -3.15905423       5.72341221        5       0.01761075       0.02490536       0.00000000
In      -1.45493092       1.24683054       5.72341221        6       0.01761075       0.02490536      -0.00000000
In      -1.66050008       7.56493901       1.90780407        7      -0.01761075      -0.02490536       0.00000000
In       4.57036192       0.07267968       3.94149302        8      -0.01761075       0.01245268       0.02156868
In      -1.55771550       4.40588478      -0.00000000        9      -0.00000000      -0.00000000       0.00000000
In       4.57036192       6.68150684       0.12588488       10      -0.01761075       0.01245268       0.02156868
In      -1.45493092      -2.27562206       7.50533139       11       0.01761075      -0.01245268      -0.02156868
In       4.57036192       3.15905424       1.90780407       12      -0.01761075      -0.02490536       0.00000000
In       1.66050008       5.43467630       2.03368895       13       0.01761075      -0.01245268       0.02156868
In       4.67314650       0.00000000      -0.00000000       14      -0.00000000      -0.00000000      -0.00000000
In       1.55771550       2.20294239       3.81560814       15      -0.00000000      -0.00000000       0.00000000
O        0.77496911       4.38458633       4.20653621       16      -0.12026660      -0.10642517      -0.20217345
O       -2.34046189       3.65361644       5.54639317       17      -0.12026660      -0.12187476       0.19325362
O       -0.47100272       2.33170919       0.20478742       18      -0.25533210      -0.02636903       0.02783284
O       -0.77496912      -0.77356678       2.12171310       19       0.12026660      -0.22829993      -0.00891983
O        4.22481658       5.29768563       1.91692567       20      -0.07481576       0.24436923      -0.03675267
O        2.00604542       3.19167887       1.73078503       21       0.07481576       0.15401336       0.19325362
O        2.00604542       6.51189153       0.18614064       22       0.07481576       0.09035587      -0.23000629
O       -2.35535741       6.27565639       4.02039556       23      -0.06024974       0.24951909       0.02783284
O        3.58643371       2.07417559       7.42642885       24       0.25533210       0.02636903      -0.02783284
O        5.47078840      -1.86977161       3.61082071       25       0.06024974      -0.24951909      -0.02783284
O        6.70186471       3.54614809       1.89868246       26       0.25533210       0.01091943       0.03675267
O        3.87550459       2.54687889       4.00174878       27      -0.06024974      -0.10065560      -0.23000629
O        0.76007359       4.39511905       7.24028821       28      -0.06024974      -0.14886349       0.20217345
O        2.35535740       0.01076572       0.39092807       29       0.06024974       0.14886349      -0.20217345
O       -3.58643372       0.85973669       5.73253381       30      -0.25533210      -0.01091943      -0.03675267
O        5.45589288       0.75226833       2.08482311       31       0.12026660       0.12187476      -0.19325363
O        1.10938558       1.21420591       5.90043125       32      -0.07481576      -0.15401336      -0.19325363
O        3.58643371      -1.21443890       5.93732124       33       0.25533210      -0.03728846      -0.00891983
O        2.34046188       0.02129845       3.42468007       34       0.12026660       0.10642517       0.20217345
O        1.10938558      -2.10600676       7.44507563       35      -0.07481576      -0.09035587       0.23000629
O       -0.76007360       1.85900589       3.62946749       36       0.06024974       0.10065560       0.23000629
O       -1.10938558      -0.89180085       5.71429060       37       0.07481576      -0.24436923       0.03675267
O       -0.47100272       5.62032368       1.69389504       38      -0.25533210       0.03728846       0.00891983
O        3.89040011       5.17945155       5.50950318       39      -0.12026660       0.22829993       0.00891983
40
Lattice="9.346293002068826 7.325416016625855e-10 1.889867755632157e-14 -3.115431001380256 8.811769547381475 -1.268800239018226e-09 -3.115431000344302 -4.4058847729582 7.631216281172322" Properties=species:S:1:pos:R:3:spacegroup_kinds:I:1:forces:R:3 spacegroup="P 1" unit_cell=conventional occupancy="_JSON {\"0\": {\"In\": 1}, \"1\": {\"In\": 1}, \"2\": {\"In\": 1}, \"3\": {\"In\": 1}, \"4\": {\"In\": 1}, \"5\": {\"In\": 1}, \"6\": {\"In\": 1}, \"7\": {\"In\": 1}, \"8\": {\"In\": 1}, \"9\": {\"In\": 1}, \"10\": {\"In\": 1}, \"11\": {\"In\": 1}, \"12\": {\"In\": 1}, \"13\": {\"In\": 1}, \"14\": {\"In\": 1}, \"15\": {\"In\": 1}, \"16\": {\"O\": 1}, \"17\": {\"O\": 1}, \"18\": {\"O\": 1}, \"19\": {\"O\": 1}, \"20\": {\"O\": 1}, \"21\": {\"O\": 1}, \"22\": {\"O\": 1}, \"23\": {\"O\": 1}, \"24\": {\"O\": 1}, \"25\": {\"O\": 1}, \"26\": {\"O\": 1}, \"27\": {\"O\": 1}, \"28\": {\"O\": 1}, \"29\": {\"O\": 1}, \"30\": {\"O\": 1}, \"31\": {\"O\": 1}, \"32\": {\"O\": 1}, \"33\": {\"O\": 1}, \"34\": {\"O\": 1}, \"35\": {\"O\": 1}, \"36\": {\"O\": 1}, \"37\": {\"O\": 1}, \"38\": {\"O\": 1}, \"39\": {\"O\": 1}}" n_minim_iter=4 energy=-45150.02149516244 stress="-0.0232756939326341 5.235821331275216e-13 1.360676369136603e-12 5.235821331275216e-13 -0.023275693931294212 1.6725490705483373e-12 1.360676369136603e-12 1.6725490705483373e-12 -0.02327569393288411" free_energy=-45150.02149516244 pbc="T T T"
In      -4.59345593       3.24806384       5.82101282        0       0.08439021      -0.05967289       0.10335648
In       7.70888693       1.15782094       1.81020345        1      -0.08439021       0.05967289      -0.10335648
In       1.47802493      -1.04512145       5.62581159        2      -0.08439021       0.05967289      -0.10335648
In      -1.55771550      -2.20294238       3.81560814        3       0.00000000      -0.00000000       0.00000000
In      -1.47802493       4.34953503       3.71800752        4       0.08439021      -0.05967289      -0.10335648
In       4.75283707      -3.19171410       5.72341221        5       0.08439021       0.11934578      -0.00000000
In      -1.47802493       1.21417068       5.72341221        6       0.08439021       0.11934578      -0.00000000
In      -1.63740607       7.59759887       1.90780407        7      -0.08439021      -0.11934578       0.00000000
In       4.59345593       0.05634974       3.91320875        8      -0.08439021       0.05967289       0.10335648
In      -1.55771550       4.40588478      -0.00000000        9      -0.00000000      -0.00000000      -0.00000000
In       4.59345593       6.66517690       0.09760061       10      -0.08439021       0.05967289       0.10335648
In      -1.47802493      -2.25929213       7.53361566       11       0.08439021      -0.05967289      -0.10335648
In       4.59345593       3.19171410       1.90780407       12      -0.08439021      -0.11934578       0.00000000
In       1.63740607       5.45100623       2.00540468       13       0.08439021      -0.05967289       0.10335648
In       4.67314650       0.00000000      -0.00000000       14       0.00000000       0.00000000       0.00000000
In       1.55771550       2.20294239       3.81560814       15      -0.00000000       0.00000000      -0.00000000
O        0.75442453       4.37890720       4.20850905       16      -0.11513416      -0.10655750      -0.30066409
O       -2.36100647       3.65816454       5.55032502       17      -0.11513416      -0.20710399       0.24261355
O       -0.47891726       2.32732650       0.22418784       18      -0.33410094      -0.05227110      -0.02556489
O       -0.75442454      -0.77469781       2.12761779       19       0.11513416      -0.31366149      -0.05805054
O        4.23595276       5.31001750       1.90342994       20      -0.15688146       0.29890159      -0.03248565
O        1.99490924       3.20953245       1.73471688       21       0.15688146       0.17758419       0.24261355
O        1.99490924       6.50636983       0.16871306       22       0.15688146       0.12131740      -0.27509920
O       -2.35386355       6.28457918       4.03979598       23      -0.06208532       0.33241709      -0.02556489
O        3.59434826       2.07855828       7.40702843       24       0.33410094       0.05227110       0.02556489
O        5.46929455      -1.87869441       3.59142029       25       0.06208532      -0.33241709       0.02556489
O        6.70977926       3.56075801       1.91217819       26       0.33410094      -0.04827540       0.03248565
O        3.87699845       2.55921875       3.98432120       27      -0.06208532      -0.18834839      -0.27509920
O        0.76156745       4.37385639       7.23831537       28      -0.06208532      -0.14406870       0.30066409
O        2.35386355       0.03202838       0.39290091       29       0.06208532       0.14406870      -0.30066409
O       -3.59434826       0.84512677       5.71903808       30      -0.33410094       0.04827540      -0.03248565
O        5.47643746       0.74772024       2.08089125       31       0.11513416       0.20710399      -0.24261355
O        1.12052176       1.19635233       5.89649939       32      -0.15688146      -0.17758419      -0.24261355
O        3.59434826      -1.23343151       5.94322593       33       0.33410094      -0.00399570      -0.05805054
O        2.36100646       0.02697758       3.42270723       34       0.11513416       0.10655750       0.30066409
O        1.12052176      -2.10048505       7.46250322       35      -0.15688146      -0.12131740       0.27509920
O       -0.76156745       1.84666603       3.64689507       36       0.06208532       0.18834839       0.27509920
O       -1.12052176      -0.90413273       5.72778633       37       0.15688146      -0.29890159       0.03248565
O       -0.47891726       5.63931628       1.68799034       38      -0.33410094       0.00399570       0.05805054
O        3.86985553       5.18058259       5.50359848       39      -0.11513416       0.31366149       0.05805054
40
Lattice="9.346293002068837 7.325416016625863e-10 1.8898677556321594e-14 -3.1154310013802595 8.811769547381488 -1.2688002390182276e-09 -3.1154310003443055 -4.405884772958206 7.63121628117233" Properties=species:S:1:pos:R:3:spacegroup_kinds:I:1:forces:R:3 spacegroup="P 1" unit_cell=conventional occupancy="_JSON {\"0\": {\"In\": 1}, \"1\": {\"In\": 1}, \"2\": {\"In\": 1}, \"3\": {\"In\": 1}, \"4\": {\"In\": 1}, \"5\": {\"In\": 1}, \"6\": {\"In\": 1}, \"7\": {\"In\": 1}, \"8\": {\"In\": 1}, \"9\": {\"In\": 1}, \"10\": {\"In\": 1}, \"11\": {\"In\": 1}, \"12\": {\"In\": 1}, \"13\": {\"In\": 1}, \"14\": {\"In\": 1}, \"15\": {\"In\": 1}, \"16\": {\"O\": 1}, \"17\": {\"O\": 1}, \"18\": {\"O\": 1}, \"19\": {\"O\": 1}, \"20\": {\"O\": 1}, \"21\": {\"O\": 1}, \"22\": {\"O\": 1}, \"23\": {\"O\": 1}, \"24\": {\"O\": 1}, \"25\": {\"O\": 1}, \"26\": {\"O\": 1}, \"27\": {\"O\": 1}, \"28\": {\"O\": 1}, \"29\": {\"O\": 1}, \"30\": {\"O\": 1}, \"31\": {\"O\": 1}, \"32\": {\"O\": 1}, \"33\": {\"O\": 1}, \"34\": {\"O\": 1}, \"35\": {\"O\": 1}, \"36\": {\"O\": 1}, \"37\": {\"O\": 1}, \"38\": {\"O\": 1}, \"39\": {\"O\": 1}}" n_minim_iter=5 energy=-45150.103455005476 stress="-0.026666763943664816 5.3071349860749047e-14 4.3221321317283794e-13 5.3071349860749047e-14 -0.026666763940842334 -4.879897830226944e-13 4.3221321317283794e-13 -4.879897830226944e-13 -0.026666763942644795" free_energy=-45150.103455005476 pbc="T T T"
In      -4.61141613       3.26076362       5.79901617        0       0.08777563      -0.06206674       0.10750275
In       7.72684713       1.14512116       1.83220011        1      -0.08777563       0.06206674      -0.10750275
In       1.49598513      -1.05782123       5.64780825        2      -0.08777563       0.06206674      -0.10750275
In      -1.55771550      -2.20294238       3.81560814        3      -0.00000000      -0.00000000       0.00000000
In      -1.49598513       4.36223481       3.74000418        4       0.08777563      -0.06206674      -0.10750275
In       4.73487687      -3.21711365       5.72341221        5       0.08777563       0.12413348      -0.00000000
In      -1.49598513       1.18877113       5.72341221        6       0.08777563       0.12413348       0.00000000
In      -1.61944588       7.62299843       1.90780407        7      -0.08777563      -0.12413348       0.00000000
In       4.61141613       0.04364997       3.89121210        8      -0.08777563       0.06206674       0.10750275
In      -1.55771550       4.40588478      -0.00000000        9      -0.00000000      -0.00000000      -0.00000000
In       4.61141613       6.65247713       0.07560395       10      -0.08777563       0.06206674       0.10750275
In      -1.49598513      -2.24659235       7.55561232       11       0.08777563      -0.06206674      -0.10750275
In       4.61141613       3.21711365       1.90780407       12      -0.08777563      -0.12413348       0.00000000
In       1.61944587       5.46370600       1.98340802       13       0.08777563      -0.06206674       0.10750275
In       4.67314650       0.00000000      -0.00000000       14       0.00000000       0.00000000      -0.00000000
In       1.55771550       2.20294239       3.81560814       15       0.00000000       0.00000000      -0.00000000
O        0.74841057       4.37144722       4.18439584       16      -0.10210281      -0.02630561      -0.07407193
O       -2.36702043       3.64101188       5.56884216       17      -0.10210281      -0.05099537       0.05981729
O       -0.50412694       2.32374726       0.21919514       18      -0.10691433      -0.04759311       0.05392440
O       -0.74841057      -0.79931045       2.12202172       19       0.10210281      -0.07730098      -0.01425464
O        4.22178573       5.33174760       1.90282658       20      -0.01404462       0.10843425      -0.06817904
O        2.00907627       3.22092003       1.75323402       21       0.01404462       0.11326191       0.05981729
O        2.00907627       6.51671235       0.14959256       22       0.01404462      -0.00482766      -0.12799633
O       -2.35889224       6.30954018       4.03480328       23       0.00923310       0.11666417       0.05392440
O        3.61955793       2.08213752       7.41202114       24       0.10691433       0.04759311      -0.05392440
O        5.47432323      -1.90365540       3.59641300       25      -0.00923310      -0.11666417      -0.05392440
O        6.73498893       3.55464457       1.91278155       26       0.10691433       0.02290335       0.06817904
O        3.87196977       2.54241444       3.96520070       27       0.00923310      -0.01163218      -0.12799633
O        0.75653877       4.36569971       7.26242857       28       0.00923310      -0.10503199       0.07407193
O        2.35889223       0.04018507       0.36878770       29      -0.00923310       0.10503199      -0.07407193
O       -3.61955794       0.85124020       5.71843472       30      -0.10691433      -0.02290335      -0.06817904
O        5.48245143       0.76487290       2.06237412       31       0.10210281       0.05099537      -0.05981729
O        1.10635473       1.18496475       5.87798226       32      -0.01404462      -0.11326191      -0.05981729
O        3.61955793      -1.23089732       5.93762986       33       0.10691433      -0.07049646      -0.01425464
O        2.36702043       0.03443756       3.44682043       34       0.10210281       0.02630561       0.07407193
O        1.10635473      -2.11082757       7.48162371       35      -0.01404462       0.00482766       0.12799633
O       -0.75653877       1.86347034       3.66601557       36      -0.00923310       0.01163218       0.12799633
O       -1.10635473      -0.92586282       5.72838969       37       0.01404462      -0.10843425       0.06817904
O       -0.50412694       5.63678209       1.69358641       38      -0.10691433       0.07049646       0.01425464
O        3.86384157       5.20519523       5.50919455       39      -0.10210281       0.07730098       0.01425464
40