40
Lattice="8.281393873356393 6.490701454404268e-10 1.597734526554895e-14 -2.760464625064081 7.807773020486357 -1.1242336614340898e-09 -2.7604646241461697 -3.9038865095941024 6.761729783473421" Properties=species:S:1:pos:R:3:spacegroup_kinds:I:1:forces:R:3 spacegroup="P 1" unit_cell=conventional occupancy="_JSON {\"0\": {\"In\": 1}, \"1\": {\"In\": 1}, \"2\": {\"In\": 1}, \"3\": {\"In\": 1}, \"4\": {\"In\": 1}, \"5\": {\"In\": 1}, \"6\": {\"In\": 1}, \"7\": {\"In\": 1}, \"8\": {\"In\": 1}, \"9\": {\"In\": 1}, \"10\": {\"In\": 1}, \"11\": {\"In\": 1}, \"12\": {\"In\": 1}, \"13\": {\"In\": 1}, \"14\": {\"In\": 1}, \"15\": {\"In\": 1}, \"16\": {\"O\": 1}, \"17\": {\"O\": 1}, \"18\": {\"O\": 1}, \"19\": {\"O\": 1}, \"20\": {\"O\": 1}, \"21\": {\"O\": 1}, \"22\": {\"O\": 1}, \"23\": {\"O\": 1}, \"24\": {\"O\": 1}, \"25\": {\"O\": 1}, \"26\": {\"O\": 1}, \"27\": {\"O\": 1}, \"28\": {\"O\": 1}, \"29\": {\"O\": 1}, \"30\": {\"O\": 1}, \"31\": {\"O\": 1}, \"32\": {\"O\": 1}, \"33\": {\"O\": 1}, \"34\": {\"O\": 1}, \"35\": {\"O\": 1}, \"36\": {\"O\": 1}, \"37\": {\"O\": 1}, \"38\": {\"O\": 1}, \"39\": {\"O\": 1}}" n_minim_iter=1 energy=-45147.569196830984 stress="0.04011182424887653 9.853150723989339e-13 8.673490143115806e-14 9.853150723989339e-13 0.040111824246930224 4.3051937034312226e-14 8.673490143115806e-14 4.3051937034312226e-14 0.04011182424640889" free_energy=-45147.569196830984 pbc="T T T"
In      -4.01916363       2.84197786       5.22014464        0      -0.32262117       0.22812762      -0.39512863
In       6.77962825       1.06190866       1.54158514        1       0.32262117      -0.22812762       0.39512863
In       1.25869900      -0.89003460       4.92245003        2       0.32262117      -0.22812762       0.39512863
In      -1.38023231      -1.95194325       3.38086489        3      -0.00000000      -0.00000000       0.00000000
In      -1.25869900       3.81794948       3.23201759        4      -0.32262117       0.22812762       0.39512863
In       4.26223025      -2.75604082       5.07129734        5      -0.32262117      -0.45625524       0.00000000
In      -1.25869900       1.14784569       5.07129733        6      -0.32262117      -0.45625524       0.00000000
In      -1.50176563       6.65992734       1.69043244        7       0.32262117       0.45625524      -0.00000000
In       4.01916362       0.08593703       3.52971219        8       0.32262117      -0.22812762      -0.39512863
In      -1.38023231       3.90388651      -0.00000000        9       0.00000000      -0.00000000       0.00000000
In       4.01916362       5.94176680       0.14884730       10       0.32262117      -0.22812762      -0.39512863
In      -1.25869900      -2.03788028       6.61288248       11      -0.32262117       0.22812762       0.39512863
In       4.01916362       2.75604083       1.69043244       12       0.32262117       0.45625524      -0.00000000
In       1.50176562       4.79392111       1.83927974       13      -0.32262117       0.22812762      -0.39512863
In       4.14069694       0.00000000      -0.00000000       14      -0.00000000      -0.00000000       0.00000000
In       1.38023231       1.95194326       3.38086489       15       0.00000000       0.00000000      -0.00000000
O        0.80769787       3.91402432       3.59151351       16      -0.06453717      -0.05590859      -0.36518086
O       -1.95276676       3.10527304       4.95719342       17      -0.06453717      -0.28830161       0.23100869
O       -0.47414937       2.05973265       0.00639271       18      -0.34603688      -0.08925126      -0.11375663
O       -0.80769787      -0.78847566       1.78697715       19       0.06453717      -0.34421020      -0.13417218
O        3.57860174       4.69605301       1.78058444       20      -0.25030098       0.27853277      -0.02041554
O        1.94232750       2.75793840       1.57632853       21       0.25030098       0.15694677       0.23100869
O        1.94232750       5.84200113       0.20425591       22       0.25030098       0.12158601      -0.25142423
O       -2.09998436       5.61628452       3.38725760       23      -0.03119873       0.35599712      -0.11375663
O        3.23461399       1.84415386       6.75533707       24       0.34603688       0.08925126       0.11375663
O        4.86044898      -1.71239801       3.37447218       25       0.03119873      -0.35599712       0.11375663
O        5.99507861       2.98734583       1.60028044       26       0.34603688      -0.14314176       0.02041554
O        3.42094489       2.07725213       3.58512080       27      -0.03119873      -0.27651469      -0.25142423
O        0.66048027       4.01812289       6.55108116       28      -0.03119873      -0.07948242       0.36518086
O        2.09998435      -0.11423637       0.21064862       29       0.03119873       0.07948242      -0.36518086
O       -3.23461399       0.91654068       5.16144934       30      -0.34603688       0.14314176      -0.02041554
O        4.71323138       0.79861348       1.80453635       31       0.06453717       0.28830161      -0.23100869
O        0.81813712       1.14594812       5.18540125       32      -0.25030098      -0.15694677      -0.23100869
O        3.23461399      -0.92761318       5.16784205       33       0.34603688       0.05389050      -0.13417218
O        1.95276675      -0.01013781       3.17021627       34       0.06453717       0.05590859       0.36518086
O        0.81813712      -1.93811461       6.55747387       35      -0.25030098      -0.12158601       0.25142423
O       -0.66048027       1.82663439       3.17660898       36       0.03119873       0.27651469       0.25142423
O       -0.81813712      -0.79216650       4.98114533       37       0.25030098      -0.27853277       0.02041554
O       -0.47414937       4.83149969       1.59388773       38      -0.34603688      -0.05389050       0.13417218
O        3.56816249       4.69236218       4.97475262       39      -0.06453717       0.34421020       0.13417218
40
Lattice="8.281393873356395 6.49070145440427e-10 1.597734526554895e-14 -2.760464625064082 7.807773020486361 -1.1242336614340898e-09 -2.7604646241461706 -3.9038865095941047 6.761729783473423" Properties=species:S:1:pos:R:3:spacegroup_kinds:I:1:forces:R:3 spacegroup="P 1" unit_cell=conventional occupancy="_JSON {\"0\": {\"In\": 1}, \"1\": {\"In\": 1}, \"2\": {\"In\": 1}, \"3\": {\"In\": 1}, \"4\": {\"In\": 1}, \"5\": {\"In\": 1}, \"6\": {\"In\": 1}, \"7\": {\"In\": 1}, \"8\": {\"In\": 1}, \"9\": {\"In\": 1}, \"10\": {\"In\": 1}, \"11\": {\"In\": 1}, \"12\": {\"In\": 1}, \"13\": {\"In\": 1}, \"14\": {\"In\": 1}, \"15\": {\"In\": 1}, \"16\": {\"O\": 1}, \"17\": {\"O\": 1}, \"18\": {\"O\": 1}, \"19\": {\"O\": 1}, \"20\": {\"O\": 1}, \"21\": {\"O\": 1}, \"22\": {\"O\": 1}, \"23\": {\"O\": 1}, \"24\": {\"O\": 1}, \"25\": {\"O\": 1}, \"26\": {\"O\": 1}, \"27\": {\"O\": 1}, \"28\": {\"O\": 1}, \"29\": {\"O\": 1}, \"30\": {\"O\": 1}, \"31\": {\"O\": 1}, \"32\": {\"O\": 1}, \"33\": {\"O\": 1}, \"34\": {\"O\": 1}, \"35\": {\"O\": 1}, \"36\": {\"O\": 1}, \"37\": {\"O\": 1}, \"38\": {\"O\": 1}, \"39\": {\"O\": 1}}" n_minim_iter=2 energy=-45147.92674311394 stress="0.08368831999739154 -7.083301189531124e-14 1.0788460242540304e-12 -7.083301189531124e-14 0.08368831999803046 -1.9118046821439103e-13 1.0788460242540304e-12 -1.9118046821439103e-13 0.08368831999722452" free_energy=-45147.92674311394 pbc="T T T"
In      -4.04220800       2.85827269       5.19192116        0      -0.16245975       0.11487639      -0.19897175
In       6.80267262       1.04561383       1.56980862        1       0.16245975      -0.11487639       0.19897175
In       1.28174337      -0.90632943       4.95067351        2       0.16245975      -0.11487639       0.19897175
In      -1.38023231      -1.95194325       3.38086489        3      -0.00000000       0.00000000       0.00000000
In      -1.28174337       3.83424431       3.26024106        4      -0.16245975       0.11487639       0.19897175
In       4.23918588      -2.78863048       5.07129734        5      -0.16245975      -0.22975278      -0.00000000
In      -1.28174337       1.11525603       5.07129733        6      -0.16245975      -0.22975278       0.00000000
In      -1.47872126       6.69251700       1.69043244        7       0.16245975       0.22975278       0.00000000
In       4.04220799       0.06964220       3.50148872        8       0.16245975      -0.11487639      -0.19897175
In      -1.38023231       3.90388651      -0.00000000        9      -0.00000000       0.00000000      -0.00000000
In       4.04220799       5.92547197       0.12062382       10       0.16245975      -0.11487639      -0.19897175
In      -1.28174337      -2.02158545       6.64110595       11      -0.16245975       0.11487639       0.19897175
In       4.04220799       2.78863049       1.69043244       12       0.16245975       0.22975278      -0.00000000
In       1.47872125       4.81021594       1.81105627       13      -0.16245975       0.11487639      -0.19897175
In       4.14069694       0.00000000      -0.00000000       14       0.00000000       0.00000000       0.00000000
In       1.38023231       1.95194326       3.38086489       15       0.00000000       0.00000000       0.00000000
O        0.80308807       3.91003085       3.56542916       16      -0.10603413      -0.07233684      -0.03220607
O       -1.95737655       3.08468007       4.97369404       17      -0.10603413       0.00827714       0.07874858
O       -0.49886629       2.05335756      -0.00173277       18      -0.09574077       0.00099864       0.09135531
O       -0.80308807      -0.81306211       1.77739343       19       0.10603413      -0.06405970       0.04654251
O        3.56072310       4.71594821       1.77912619       20       0.04314847       0.11680371      -0.04481281
O        1.96020614       2.76914888       1.59282915       21      -0.04314847       0.09721089       0.07874858
O        1.96020614       5.85068584       0.18629703       22      -0.04314847       0.01959283      -0.12356139
O       -2.10221284       5.64171289       3.37913212       23      -0.03285512       0.08993239       0.09135531
O        3.25933091       1.85052895       6.76346254       24       0.09574077      -0.00099864      -0.09135531
O        4.86267746      -1.73782637       3.38259765       25       0.03285512      -0.08993239      -0.09135531
O        6.01979553       2.97712142       1.60173869       26       0.09574077       0.07961534       0.04481281
O        3.41871641       2.05750108       3.56716193       27      -0.03285512       0.03414983      -0.12356139
O        0.65825179       4.01244557       6.57716551       28      -0.03285512      -0.12408221       0.03220607
O        2.10221283      -0.10855906       0.18456427       29       0.03285512       0.12408221      -0.03220607
O       -3.25933091       0.92676509       5.15999108       30      -0.09574077      -0.07961534      -0.04481281
O        4.71784117       0.81920645       1.78803573       31       0.10603413      -0.00827714      -0.07874858
O        0.80025848       1.13473763       5.16890062       32       0.04314847      -0.09721089      -0.07874858
O        3.25933091      -0.92376385       5.15825832       33       0.09574077      -0.07861670       0.04654251
O        1.95737655      -0.00614434       3.19630062       34       0.10603413       0.07233684       0.03220607
O        0.80025848      -1.94679933       6.57543274       35       0.04314847      -0.01959283       0.12356139
O       -0.65825179       1.84638544       3.19456785       36       0.03285512      -0.03414983       0.12356139
O       -0.80025848      -0.81206169       4.98260359       37      -0.04314847      -0.11680371       0.04481281
O       -0.49886629       4.82765037       1.60347146       38      -0.09574077       0.07861670      -0.04654251
O        3.56355270       4.71694862       4.98433635       39      -0.10603413       0.06405970      -0.04654251
40
Lattice="8.281393873356397 6.490701454404273e-10 1.597734526554895e-14 -2.7604646250640834 7.807773020486365 -1.1242336614340902e-09 -2.760464624146172 -3.9038865095941064 6.761729783473426" Properties=species:S:1:pos:R:3:spacegroup_kinds:I:1:forces:R:3 spacegroup="P 1" unit_cell=conventional occupancy="_JSON {\"0\": {\"In\": 1}, \"1\": {\"In\": 1}, \"2\": {\"In\": 1}, \"3\": {\"In\": 1}, \"4\": {\"In\": 1}, \"5\": {\"In\": 1}, \"6\": {\"In\": 1}, \"7\": {\"In\": 1}, \"8\": {\"In\": 1}, \"9\": {\"In\": 1}, \"10\": {\"In\": 1}, \"11\": {\"In\": 1}, \"12\": {\"In\": 1}, \"13\": {\"In\": 1}, \"14\": {\"In\": 1}, \"15\": {\"In\": 1}, \"16\": {\"O\": 1}, \"17\": {\"O\": 1}, \"18\": {\"O\": 1}, \"19\": {\"O\": 1}, \"20\": {\"O\": 1}, \"21\": {\"O\": 1}, \"22\": {\"O\": 1}, \"23\": {\"O\": 1}, \"24\": {\"O\": 1}, \"25\": {\"O\": 1}, \"26\": {\"O\": 1}, \"27\": {\"O\": 1}, \"28\": {\"O\": 1}, \"29\": {\"O\": 1}, \"30\": {\"O\": 1}, \"31\": {\"O\": 1}, \"32\": {\"O\": 1}, \"33\": {\"O\": 1}, \"34\": {\"O\": 1}, \"35\": {\"O\": 1}, \"36\": {\"O\": 1}, \"37\": {\"O\": 1}, \"38\": {\"O\": 1}, \"39\": {\"O\": 1}}" n_minim_iter=3 energy=-45147.97309650174 stress="0.10491624949632179 3.0759955700896534e-13 2.909965541741426e-13 3.0759955700896534e-13 0.10491624949683066 1.3514371481409284e-13 2.909965541741426e-13 1.3514371481409284e-13 0.10491624949613973" free_energy=-45147.97309650174 pbc="T T T"
In      -4.05608701       2.86808663       5.17492292        0      -0.03609369       0.02552209      -0.04420556
In       6.81655163       1.03579989       1.58680686        1       0.03609369      -0.02552209       0.04420556
In       1.29562238      -0.91614337       4.96767175        2       0.03609369      -0.02552209       0.04420556
In      -1.38023231      -1.95194325       3.38086489        3       0.00000000       0.00000000       0.00000000
In      -1.29562238       3.84405825       3.27723931        4      -0.03609369       0.02552209       0.04420556
In       4.22530687      -2.80825837       5.07129734        5      -0.03609369      -0.05104418       0.00000000
In      -1.29562238       1.09562814       5.07129733        6      -0.03609369      -0.05104418       0.00000000
In      -1.46484225       6.71214488       1.69043244        7       0.03609369       0.05104418       0.00000000
In       4.05608700       0.05982826       3.48449047        8       0.03609369      -0.02552209      -0.04420556
In      -1.38023231       3.90388651      -0.00000000        9       0.00000000       0.00000000      -0.00000000
In       4.05608700       5.91565802       0.10362558       10       0.03609369      -0.02552209      -0.04420556
In      -1.29562238      -2.01177151       6.65810420       11      -0.03609369       0.02552209       0.04420556
In       4.05608700       2.80825837       1.69043244       12       0.03609369       0.05104418      -0.00000000
In       1.46484224       4.82002988       1.79405802       13      -0.03609369       0.02552209      -0.04420556
In       4.14069694       0.00000000      -0.00000000       14       0.00000000       0.00000000       0.00000000
In       1.38023231       1.95194326       3.38086489       15       0.00000000      -0.00000000       0.00000000
O        0.79871706       3.90666756       3.55300860       16      -0.12811519      -0.07327011       0.18660154
O       -1.96174756       3.07560519       4.98281702       17      -0.12811519       0.19823673      -0.02984700
O       -0.51205010       2.05051429      -0.00340323       18       0.07511460       0.05453157       0.21905764
O       -0.79871707      -0.82550027       1.77409585       19       0.12811519       0.12496662       0.15675454
O        3.55362423       4.72742193       1.77749908       20       0.22960444       0.00150637      -0.06230310
O        1.96730501       2.77629486       1.60195213       21      -0.22960444       0.05470925      -0.02984700
O        1.96730501       5.85501358       0.17554694       22      -0.22960444      -0.05320288      -0.03245610
O       -2.10392678       5.65509047       3.37746166       23      -0.02637466      -0.08899591       0.21905764
O        3.27251472       1.85337222       6.76513301       24      -0.07511460      -0.05453157      -0.21905764
O        4.86439140      -1.75120396       3.38426812       25       0.02637466       0.08899591      -0.21905764
O        6.03297935       2.97425312       1.60336581       26      -0.07511460       0.21697526       0.06230310
O        3.41700247       2.04936562       3.55641184       27      -0.02637466       0.23420744      -0.03245610
O        0.65653784       4.00720345       6.58958606       28      -0.02637466      -0.14521153      -0.18660154
O        2.10392678      -0.10331693       0.17214371       29       0.02637466       0.14521153       0.18660154
O       -3.27251473       0.92963340       5.15836397       30       0.07511460      -0.21697526      -0.06230310
O        4.72221218       0.82828132       1.77891276       31       0.12811519      -0.19823673       0.02984700
O        0.79315961       1.12759165       5.15977765       32       0.22960444      -0.05470925       0.02984700
O        3.27251472      -0.92373882       5.15496074       33      -0.07511460      -0.16244370       0.15675454
O        1.96174756      -0.00278104       3.20872117       34       0.12811519       0.07327011      -0.18660154
O        0.79315961      -1.95112707       6.58618283       35       0.22960444       0.05320288       0.03245610
O       -0.65653785       1.85452089       3.20531794       36       0.02637466      -0.23420744       0.03245610
O       -0.79315961      -0.82353542       4.98423070       37      -0.22960444      -0.00150637       0.06230310
O       -0.51205010       4.82762534       1.60676904       38       0.07511460       0.16244370      -0.15675454
O        3.55918169       4.72938679       4.98763393       39      -0.12811519      -0.12496662      -0.15675454
40
Lattice="8.281393873356397 6.490701454404273e-10 1.597734526554895e-14 -2.7604646250640834 7.807773020486365 -1.1242336614340902e-09 -2.760464624146172 -3.9038865095941064 6.761729783473426" Properties=species:S:1:pos:R:3:spacegroup_kinds:I:1:forces:R:3 spacegroup="P 1" unit_cell=conventional occupancy="_JSON {\"0\": {\"In\": 1}, \"1\": {\"In\": 1}, \"2\": {\"In\": 1}, \"3\": {\"In\": 1}, \"4\": {\"In\": 1}, \"5\": {\"In\": 1}, \"6\": {\"In\": 1}, \"7\": {\"In\": 1}, \"8\": {\"In\": 1}, \"9\": {\"In\": 1}, \"10\": {\"In\": 1}, \"11\": {\"In\": 1}, \"12\": {\"In\": 1}, \"13\": {\"In\": 1}, \"14\": {\"In\": 1}, \"15\": {\"In\": 1}, \"16\": {\"O\": 1}, \"17\": {\"O\": 1}, \"18\": {\"O\": 1}, \"19\": {\"O\": 1}, \"20\": {\"O\": 1}, \"21\": {\"O\": 1}, \"22\": {\"O\": 1}, \"23\": {\"O\": 1}, \"24\": {\"O\": 1}, \"25\": {\"O\": 1}, \"26\": {\"O\": 1}, \"27\": {\"O\": 1}, \"28\": {\"O\": 1}, \"29\": {\"O\": 1}, \"30\": {\"O\": 1}, \"31\": {\"O\": 1}, \"32\": {\"O\": 1}, \"33\": {\"O\": 1}, \"34\": {\"O\": 1}, \"35\": {\"O\": 1}, \"36\": {\"O\": 1}, \"37\": {\"O\": 1}, \"38\": {\"O\": 1}, \"39\": {\"O\": 1}}" n_minim_iter=4 energy=-45147.99984480853 stress="0.09849086805185685 -5.849783629454461e-13 -5.0780054232568244e-14 -5.849783629454461e-13 0.09849086804945124 -3.158577625852049e-13 -5.0780054232568244e-14 -3.158577625852049e-13 0.09849086805128437" free_energy=-45147.99984480853 pbc="T T T"
In      -4.05558702       2.86773309       5.17553527        0       0.00055469      -0.00039223       0.00067936
In       6.81605165       1.03615343       1.58619451        1      -0.00055469       0.00039223      -0.00067936
In       1.29512240      -0.91578983       4.96705940        2      -0.00055469       0.00039223      -0.00067936
In      -1.38023231      -1.95194325       3.38086489        3       0.00000000      -0.00000000       0.00000000
In      -1.29512240       3.84370471       3.27662696        4       0.00055469      -0.00039223      -0.00067936
In       4.22580685      -2.80755129       5.07129734        5       0.00055469       0.00078446      -0.00000000
In      -1.29512240       1.09633522       5.07129733        6       0.00055469       0.00078446      -0.00000000
In      -1.46534223       6.71143780       1.69043244        7      -0.00055469      -0.00078446       0.00000000
In       4.05558702       0.06018180       3.48510282        8      -0.00055469       0.00039223       0.00067936
In      -1.38023231       3.90388651      -0.00000000        9      -0.00000000       0.00000000      -0.00000000
In       4.05558702       5.91601156       0.10423793       10      -0.00055469       0.00039223       0.00067936
In      -1.29512240      -2.01212505       6.65749185       11       0.00055469      -0.00039223      -0.00067936
In       4.05558702       2.80755129       1.69043244       12      -0.00055469      -0.00078446      -0.00000000
In       1.46534222       4.81967634       1.79467037       13       0.00055469      -0.00039223       0.00067936
In       4.14069694       0.00000000      -0.00000000       14       0.00000000      -0.00000000      -0.00000000
In       1.38023231       1.95194326       3.38086489       15       0.00000000      -0.00000000       0.00000000
O        0.79459103       3.90440131       3.56156567       16      -0.11166727      -0.04258593      -0.06497568
O       -1.96587359       3.08414895       4.98050112       17      -0.11166727      -0.03497762       0.06936834
O       -0.50750695       2.05292801       0.00489840       18      -0.11035004      -0.03590904       0.07098160
O       -0.79459104      -0.81922276       1.78033701       19       0.11166727      -0.07756355       0.00439266
O        3.56305471       4.72593737       1.77543861       20       0.00424520       0.11854480      -0.06658894
O        1.95787453       2.77733700       1.59963623       21      -0.00424520       0.11694012       0.06936834
O        1.95787453       5.85248688       0.17580238       22      -0.00424520       0.00160468      -0.13595728
O       -2.10468807       5.65000257       3.38576329       23      -0.00292798       0.11600870       0.07098160
O        3.26797157       1.85095850       6.75683138       24       0.11035004       0.03590904      -0.07098160
O        4.86515270      -1.74611606       3.37596649       25       0.00292798      -0.11600870      -0.07098160
O        6.02843620       2.98264940       1.60542628       26       0.11035004       0.04351735       0.06658894
O        3.41624117       2.05909900       3.55666727       27      -0.00292798       0.00346752      -0.13595728
O        0.65577655       4.00255797       6.58102900       28      -0.00292798      -0.11947622       0.06497568
O        2.10468807      -0.09867146       0.18070078       29       0.00292798       0.11947622      -0.06497568
O       -3.26797157       0.92123711       5.15630350       30      -0.11035004      -0.04351735      -0.06658894
O        4.72633821       0.81973756       1.78122866       31       0.11166727       0.03497762      -0.06936834
O        0.80259009       1.12654951       5.16209355       32       0.00424520      -0.11694012      -0.06936834
O        3.26797157      -0.92972139       5.16120190       33       0.11035004      -0.07942639       0.00439266
O        1.96587359      -0.00051479       3.20016411       34       0.11166727       0.04258593       0.06497568
O        0.80259009      -1.94860036       6.58592740       35       0.00424520      -0.00160468       0.13595728
O       -0.65577655       1.84478752       3.20506251       36       0.00292798      -0.00346752       0.13595728
O       -0.80259009      -0.82205085       4.98629117       37      -0.00424520      -0.11854480       0.06658894
O       -0.50750695       4.83360790       1.60052788       38      -0.11035004       0.07942639      -0.00439266
O        3.55505566       4.72310927       4.98139277       39      -0.11166727       0.07756355      -0.00439266
40
Lattice="8.281393873356398 6.490701454404276e-10 1.5977345265548958e-14 -2.7604646250640847 7.807773020486367 -1.1242336614340904e-09 -2.760464624146173 -3.9038865095941078 6.761729783473427" Properties=species:S:1:pos:R:3:spacegroup_kinds:I:1:forces:R:3 spacegroup="P 1" unit_cell=conventional occupancy="_JSON {\"0\": {\"In\": 1}, \"1\": {\"In\": 1}, \"2\": {\"In\": 1}, \"3\": {\"In\": 1}, \"4\": {\"In\": 1}, \"5\": {\"In\": 1}, \"6\": {\"In\": 1}, \"7\": {\"In\": 1}, \"8\": {\"In\": 1}, \"9\": {\"In\": 1}, \"10\": {\"In\": 1}, \"11\": {\"In\": 1}, \"12\": {\"In\": 1}, \"13\": {\"In\": 1}, \"14\": {\"In\": 1}, \"15\": {\"In\": 1}, \"16\": {\"O\": 1}, \"17\": {\"O\": 1}, \"18\": {\"O\": 1}, \"19\": {\"O\": 1}, \"20\": {\"O\": 1}, \"21\": {\"O\": 1}, \"22\": {\"O\": 1}, \"23\": {\"O\": 1}, \"24\": {\"O\": 1}, \"25\": {\"O\": 1}, \"26\": {\"O\": 1}, \"27\": {\"O\": 1}, \"28\": {\"O\": 1}, \"29\": {\"O\": 1}, \"30\": {\"O\": 1}, \"31\": {\"O\": 1}, \"32\": {\"O\": 1}, \"33\": {\"O\": 1}, \"34\": {\"O\": 1}, \"35\": {\"O\": 1}, \"36\": {\"O\": 1}, \"37\": {\"O\": 1}, \"38\": {\"O\": 1}, \"39\": {\"O\": 1}}" n_minim_iter=5 energy=-45148.019639850914 stress="0.10890178050450953 2.9278983998267847e-13 -1.1295742758379209e-12 2.9278983998267847e-13 0.10890178050635886 7.18592376016318e-13 -1.1295742758379209e-12 7.18592376016318e-13 0.10890178050494259" free_energy=-45148.019639850914 pbc="T T T"
In      -4.06380681       2.87354536       5.16546812        0       0.07143398      -0.05051145       0.08748840
In       6.82427143       1.03034116       1.59626166        1      -0.07143398       0.05051145      -0.08748840
In       1.30334219      -0.92160210       4.97712655        2      -0.07143398       0.05051145      -0.08748840
In      -1.38023231      -1.95194325       3.38086489        3      -0.00000000      -0.00000000      -0.00000000
In      -1.30334219       3.84951698       3.28669410        4       0.07143398      -0.05051145      -0.08748840
In       4.21758706      -2.81917582       5.07129734        5       0.07143398       0.10102291      -0.00000000
In      -1.30334219       1.08471069       5.07129733        6       0.07143398       0.10102291       0.00000000
In      -1.45712244       6.72306234       1.69043244        7      -0.07143398      -0.10102291       0.00000000
In       4.06380681       0.05436953       3.47503568        8      -0.07143398       0.05051145       0.08748840
In      -1.38023231       3.90388651      -0.00000000        9       0.00000000       0.00000000       0.00000000
In       4.06380681       5.91019930       0.09417078       10      -0.07143398       0.05051145       0.08748840
In      -1.30334219      -2.00631278       6.66755899       11       0.07143398      -0.05051145      -0.08748840
In       4.06380681       2.81917583       1.69043244       12      -0.07143398      -0.10102291       0.00000000
In       1.45712244       4.82548861       1.78460323       13       0.07143398      -0.05051145       0.08748840
In       4.14069694       0.00000000      -0.00000000       14       0.00000000      -0.00000000      -0.00000000
In       1.38023231       1.95194326       3.38086489       15       0.00000000      -0.00000000       0.00000000
O        0.78470717       3.89903704       3.55848487       16      -0.08856061       0.01727594      -0.03071951
O       -1.97575745       3.08416303       4.98668711       17      -0.08856061      -0.03524184       0.00039835
O       -0.51584577       2.05184959       0.01297666       18      -0.04645862      -0.06501245       0.05196255
O       -0.78470718      -0.82457295       1.78344220       19       0.08856061      -0.01796590      -0.03032116
O        3.56636261       4.73595154       1.77046553       20      -0.00370613       0.04796649      -0.08228370
O        1.95456664       2.78665090       1.60582222       21       0.00370613       0.09524302       0.00039835
O        1.95456664       5.85318715       0.16464331       22       0.00370613      -0.04727653      -0.08268205
O       -2.10645093       5.65822396       3.39384155       23       0.04580812       0.06547242       0.05196255
O        3.27631039       1.85203693       6.74875311       24       0.04645862       0.06501245      -0.05196255
O        4.86691555      -1.75433745       3.36788822       25      -0.04580812      -0.06547242      -0.05196254
O        6.03677502       2.98910617       1.61039936       26       0.04645862       0.01249466       0.08228370
O        3.41447832       2.06198428       3.54550820       27       0.04580812       0.01226467      -0.08268205
O        0.65401369       3.99145129       6.58410980       28       0.04580812      -0.07773709       0.03071951
O        2.10645093      -0.08756478       0.17761998       29      -0.04580812       0.07773709      -0.03071951
O       -3.27631040       0.91478034       5.15133042       30      -0.04645862      -0.01249466      -0.08228370
O        4.73622207       0.81972348       1.77504267       31       0.08856061       0.03524184      -0.00039835
O        0.80589798       1.11723562       5.15590756       32      -0.00370613      -0.09524302      -0.00039835
O        3.27631039      -0.93725658       5.16430709       33       0.04645862      -0.07750711      -0.03032116
O        1.97575745       0.00484947       3.20324491       34       0.08856061      -0.01727594       0.03071951
O        0.80589798      -1.94930064       6.59708647       35      -0.00370613       0.04727653       0.08268205
O       -0.65401370       1.84190223       3.21622158       36      -0.04580812      -0.01226467       0.08268205
O       -0.80589798      -0.83206503       4.99126425       37       0.00370613      -0.04796649       0.08228370
O       -0.51584577       4.84114310       1.59742269       38      -0.04645862       0.07750711       0.03032116
O        3.54517180       4.72845946       4.97828758       39      -0.08856061       0.01796590       0.03032116
40