40
Lattice="8.36677508688581 6.5576299431476e-10 -1.322382043718906e-15 -2.788925029580198 7.888271200580916 -1.135824055905109e-09 -2.788925028652808 -3.9441355996346847 6.8314432524014626" Properties=species:S:1:pos:R:3:spacegroup_kinds:I:1:forces:R:3 spacegroup="P 1" unit_cell=conventional occupancy="_JSON {\"0\": {\"In\": 1}, \"1\": {\"In\": 1}, \"2\": {\"In\": 1}, \"3\": {\"In\": 1}, \"4\": {\"In\": 1}, \"5\": {\"In\": 1}, \"6\": {\"In\": 1}, \"7\": {\"In\": 1}, \"8\": {\"In\": 1}, \"9\": {\"In\": 1}, \"10\": {\"In\": 1}, \"11\": {\"In\": 1}, \"12\": {\"In\": 1}, \"13\": {\"In\": 1}, \"14\": {\"In\": 1}, \"15\": {\"In\": 1}, \"16\": {\"O\": 1}, \"17\": {\"O\": 1}, \"18\": {\"O\": 1}, \"19\": {\"O\": 1}, \"20\": {\"O\": 1}, \"21\": {\"O\": 1}, \"22\": {\"O\": 1}, \"23\": {\"O\": 1}, \"24\": {\"O\": 1}, \"25\": {\"O\": 1}, \"26\": {\"O\": 1}, \"27\": {\"O\": 1}, \"28\": {\"O\": 1}, \"29\": {\"O\": 1}, \"30\": {\"O\": 1}, \"31\": {\"O\": 1}, \"32\": {\"O\": 1}, \"33\": {\"O\": 1}, \"34\": {\"O\": 1}, \"35\": {\"O\": 1}, \"36\": {\"O\": 1}, \"37\": {\"O\": 1}, \"38\": {\"O\": 1}, \"39\": {\"O\": 1}}" n_minim_iter=8 energy=-45147.53274814203 stress="-0.05021833426518855 1.0290106812427505e-12 4.447273521043515e-13 1.0290106812427505e-12 -0.05021833426652173 1.3623094008108052e-12 4.447273521043515e-13 1.3623094008108052e-12 -0.050218334263201186" free_energy=-45147.53274814203 pbc="T T T"
In      -4.02857671       2.84863391       5.31318621        0       0.00198087      -0.00140069       0.00242606
In       6.81750174       1.09550169       1.51825704        1      -0.00198087       0.00140069      -0.00242606
In       1.23965168      -0.87656611       4.93397866        2      -0.00198087       0.00140069      -0.00242606
In      -1.39446252      -1.97206780       3.41572162        3       0.00000000       0.00000000      -0.00000000
In      -1.23965168       3.83466781       3.22611785        4       0.00198087      -0.00140069      -0.00242606
In       4.33819838      -2.73916612       5.12358244        5       0.00198087       0.00280138      -0.00000000
In      -1.23965168       1.20496948       5.12358244        6       0.00198087       0.00280138      -0.00000000
In      -1.54927335       6.68330172       1.70786081        7      -0.00198087      -0.00280138      -0.00000000
In       4.02857671       0.10946779       3.60532540        8      -0.00198087       0.00140069       0.00242606
In      -1.39446252       3.94413560      -0.00000000        9       0.00000000      -0.00000000      -0.00000000
In       4.02857671       6.02567119       0.18960377       10      -0.00198087       0.00140069       0.00242606
In      -1.23965168      -2.08153559       6.64183948       11       0.00198087      -0.00140069      -0.00242606
In       4.02857671       2.73916612       1.70786081       12      -0.00198087      -0.00280138      -0.00000000
In       1.54927335       4.82070171       1.89746458       13       0.00198087      -0.00140069       0.00242606
In       4.18338754       0.00000000      -0.00000000       14      -0.00000000       0.00000000       0.00000000
In       1.39446251       1.97206780       3.41572162       15       0.00000000       0.00000000       0.00000000
O        0.85086816       3.96069378       3.66316358       16      -0.00326518      -0.00106689      -0.00087862
O       -1.93805686       3.16411363       4.98552166       17      -0.00326518      -0.00022746       0.00136326
O       -0.43617785       2.10212479      -0.00650297       18      -0.00230872      -0.00090378       0.00253469
O       -0.85086817      -0.76346379       1.81724198       19       0.00326518      -0.00129435       0.00048464
O        3.62917389       4.70384490       1.82374495       20       0.00087394       0.00275775      -0.00205004
O        1.94867616       2.74458079       1.56980003       21      -0.00087394       0.00315426       0.00136326
O        1.94867616       5.90339971       0.25394492       22      -0.00087394      -0.00039652      -0.00341330
O       -2.12729488       5.62672755       3.40921865       23       0.00008252       0.00247794       0.00253469
O        3.22510287       1.84201081       6.83794622       24       0.00230872       0.00090378      -0.00253469
O        4.91621990      -1.68259195       3.42222459       25      -0.00008252      -0.00247794      -0.00253469
O        6.01402790       3.01749846       1.59197667       26       0.00230872       0.00174321       0.00205004
O        3.45055518       2.11117399       3.66966655       27       0.00008252       0.00095613      -0.00341330
O        0.66163015       4.09450526       6.58400130       28       0.00008252      -0.00343407       0.00087862
O        2.12729487      -0.15036966       0.24744195       29      -0.00008252       0.00343407      -0.00087862
O       -3.22510287       0.92663714       5.23946658       30      -0.00230872      -0.00174321      -0.00205004
O        4.72698189       0.78002197       1.84592159       31       0.00326518       0.00022746      -0.00136326
O        0.84024886       1.19955481       5.26164322       32       0.00087394      -0.00315426      -0.00136326
O        3.22510287      -0.91537367       5.23296361       33       0.00230872      -0.00264700       0.00048464
O        1.93805686      -0.01655818       3.16827967       34       0.00326518       0.00106689       0.00087862
O        0.84024886      -1.95926411       6.57749833       35       0.00087394       0.00039652       0.00341330
O       -0.66163016       1.83296161       3.16177670       36      -0.00008252      -0.00095613       0.00341330
O       -0.84024886      -0.75970930       5.00769829       37      -0.00087394      -0.00275775       0.00205004
O       -0.43617785       4.85950927       1.59847964       38      -0.00230872       0.00264700      -0.00048464
O        3.63979319       4.70759940       5.01420126       39      -0.00326518       0.00129435      -0.00048464
