40
Lattice="9.346293002068823 7.325408905936731e-10 1.9108041917775727e-14 -3.1154310013802564 8.81176954738147 -1.268802635978738e-09 -3.1154310003443006 -4.405884772958197 7.631216281172317" Properties=species:S:1:pos:R:3:spacegroup_kinds:I:1:forces:R:3 spacegroup="P 1" unit_cell=conventional occupancy="_JSON {\"0\": {\"In\": 1}, \"1\": {\"In\": 1}, \"2\": {\"In\": 1}, \"3\": {\"In\": 1}, \"4\": {\"In\": 1}, \"5\": {\"In\": 1}, \"6\": {\"In\": 1}, \"7\": {\"In\": 1}, \"8\": {\"In\": 1}, \"9\": {\"In\": 1}, \"10\": {\"In\": 1}, \"11\": {\"In\": 1}, \"12\": {\"In\": 1}, \"13\": {\"In\": 1}, \"14\": {\"In\": 1}, \"15\": {\"In\": 1}, \"16\": {\"O\": 1}, \"17\": {\"O\": 1}, \"18\": {\"O\": 1}, \"19\": {\"O\": 1}, \"20\": {\"O\": 1}, \"21\": {\"O\": 1}, \"22\": {\"O\": 1}, \"23\": {\"O\": 1}, \"24\": {\"O\": 1}, \"25\": {\"O\": 1}, \"26\": {\"O\": 1}, \"27\": {\"O\": 1}, \"28\": {\"O\": 1}, \"29\": {\"O\": 1}, \"30\": {\"O\": 1}, \"31\": {\"O\": 1}, \"32\": {\"O\": 1}, \"33\": {\"O\": 1}, \"34\": {\"O\": 1}, \"35\": {\"O\": 1}, \"36\": {\"O\": 1}, \"37\": {\"O\": 1}, \"38\": {\"O\": 1}, \"39\": {\"O\": 1}}" n_minim_iter=9 energy=-45149.91351275043 stress="0.013424518535970832 -7.100681824609965e-13 -1.2660881537804844e-12 -7.100681824609965e-13 0.013424518534888897 5.967950436912864e-13 -1.2660881537804844e-12 5.967950436912864e-13 0.013424518533790604" free_energy=-45149.91351275043 pbc="T T T"
In      -4.48830803       3.17371305       5.94979217        0      -0.00566558       0.00400617      -0.00693889
In       7.60373903       1.23217173       1.68142410        1       0.00566558      -0.00400617       0.00693889
In       1.37287703      -0.97077066       5.49703224        2       0.00566558      -0.00400617       0.00693889
In      -1.55771550      -2.20294238       3.81560814        3      -0.00000000       0.00000000       0.00000000
In      -1.37287703       4.27518424       3.58922817        4      -0.00566558       0.00400617       0.00693889
In       4.85798497      -3.04301251       5.72341221        5      -0.00566558      -0.00801234       0.00000000
In      -1.37287703       1.36287226       5.72341221        6      -0.00566558      -0.00801234      -0.00000000
In      -1.74255397       7.44889729       1.90780407        7       0.00566558       0.00801234      -0.00000000
In       4.48830803       0.13070054       4.04198810        8       0.00566558      -0.00400617      -0.00693889
In      -1.55771550       4.40588478      -0.00000000        9      -0.00000000       0.00000000       0.00000000
In       4.48830803       6.73952770       0.22637996       10       0.00566558      -0.00400617      -0.00693889
In      -1.37287703      -2.33364292       7.40483631       11      -0.00566558       0.00400617       0.00693889
In       4.48830803       3.04301251       1.90780407       12       0.00566558       0.00801234       0.00000000
In       1.74255397       5.37665543       2.13418403       13      -0.00566558       0.00400617      -0.00693889
In       4.67314650       0.00000000      -0.00000000       14      -0.00000000       0.00000000      -0.00000000
In       1.55771550       2.20294239       3.81560814       15       0.00000000      -0.00000000       0.00000000
O        0.85506874       4.40034839       4.17425100       16       0.00384628      -0.00284071      -0.00353669
O       -2.26036226       3.61777560       5.54888543       17       0.00384628      -0.00164251       0.00422847
O       -0.46323330       2.34701353       0.11869363       18      -0.00294473       0.00315946      -0.00408878
O       -0.85506874      -0.79364556       2.09192015       19      -0.00384628      -0.00448322       0.00069178
O        4.16432563       5.26805814       1.97322651       20      -0.00283067       0.00212256       0.00478056
O        2.06653637       3.12810716       1.73327729       21       0.00283067      -0.00307881       0.00422847
O        2.06653637       6.54583575       0.23994922       22       0.00283067       0.00520137       0.00055209
O       -2.36719667       6.26322986       3.93430177       23      -0.00396034       0.00172316      -0.00408878
O        3.57866429       2.05887125       7.51252264       24       0.00294473      -0.00315946       0.00408878
O        5.48262767      -1.85734508       3.69691450       25       0.00396034      -0.00172316       0.00408878
O        6.69409530       3.47924085       1.84238162       26       0.00294473      -0.00196126      -0.00478056
O        3.86366533       2.47853274       4.05555736       27      -0.00396034      -0.00440257       0.00055209
O        0.74823433       4.47589172       7.27257342       28      -0.00396034       0.00267941       0.00353669
O        2.36719667      -0.07000695       0.35864286       29       0.00396034      -0.00267941      -0.00353670
O       -3.57866430       0.92664392       5.78883466       30      -0.00294473       0.00196126       0.00478056
O        5.37579326       0.78810917       2.08233085       31      -0.00384628       0.00164251      -0.00422847
O        1.04889463       1.27777761       5.89793899       32      -0.00283067       0.00307881      -0.00422847
O        3.57866430      -1.13222732       5.90752829       33       0.00294473       0.00512072       0.00069178
O        2.26036226       0.00553639       3.45696528       34      -0.00384628       0.00284071       0.00353669
O        1.04889463      -2.13995097       7.39126705       35      -0.00283067      -0.00520137      -0.00055209
O       -0.74823433       1.92735204       3.57565891       36       0.00396034       0.00440257      -0.00055209
O       -1.04889463      -0.86217336       5.65798976       37       0.00283067      -0.00212256      -0.00478056
O       -0.46323330       5.53811210       1.72368799       38      -0.00294473      -0.00512072      -0.00069178
O        3.97049974       5.19953034       5.53929613       39       0.00384628       0.00448322      -0.00069178
