40
Lattice="8.105140224644252 6.352555231058876e-10 1.8061014160615035e-14 -2.701713408813677 7.641599486873328 -1.1003035290223443e-09 -2.7017134079153067 -3.8207997428014067 6.617819281911961" Properties=species:S:1:pos:R:3:spacegroup_kinds:I:1:forces:R:3 spacegroup="P 1" unit_cell=conventional occupancy="_JSON {\"0\": {\"In\": 1}, \"1\": {\"In\": 1}, \"2\": {\"In\": 1}, \"3\": {\"In\": 1}, \"4\": {\"In\": 1}, \"5\": {\"In\": 1}, \"6\": {\"In\": 1}, \"7\": {\"In\": 1}, \"8\": {\"In\": 1}, \"9\": {\"In\": 1}, \"10\": {\"In\": 1}, \"11\": {\"In\": 1}, \"12\": {\"In\": 1}, \"13\": {\"In\": 1}, \"14\": {\"In\": 1}, \"15\": {\"In\": 1}, \"16\": {\"O\": 1}, \"17\": {\"O\": 1}, \"18\": {\"O\": 1}, \"19\": {\"O\": 1}, \"20\": {\"O\": 1}, \"21\": {\"O\": 1}, \"22\": {\"O\": 1}, \"23\": {\"O\": 1}, \"24\": {\"O\": 1}, \"25\": {\"O\": 1}, \"26\": {\"O\": 1}, \"27\": {\"O\": 1}, \"28\": {\"O\": 1}, \"29\": {\"O\": 1}, \"30\": {\"O\": 1}, \"31\": {\"O\": 1}, \"32\": {\"O\": 1}, \"33\": {\"O\": 1}, \"34\": {\"O\": 1}, \"35\": {\"O\": 1}, \"36\": {\"O\": 1}, \"37\": {\"O\": 1}, \"38\": {\"O\": 1}, \"39\": {\"O\": 1}}" n_minim_iter=6 energy=-45149.948984448405 stress="0.16248314733204966 -1.4839293029339358e-13 9.208847744974451e-13 -1.4839293029339358e-13 0.162483147329843 2.3257193949819063e-13 9.208847744974451e-13 2.3257193949819063e-13 0.16248314733181726" free_energy=-45149.948984448405 pbc="T T T"
In      -3.99409503       2.82425168       5.03498152        0      -0.00390458       0.00276095      -0.00478211
In       6.69580843       0.99654807       1.58283775        1       0.00390458      -0.00276095       0.00478211
In       1.29238161      -0.91385180       4.89174739        2       0.00390458      -0.00276095       0.00478211
In      -1.35085671      -1.91039987       3.30890964        3       0.00000000      -0.00000000      -0.00000000
In      -1.29238162       3.77945161       3.23729257        4      -0.00390458       0.00276095       0.00478211
In       4.11104520      -2.78290354       4.96336446        5      -0.00390458      -0.00552191       0.00000000
In      -1.29238162       1.03789620       4.96336446        6      -0.00390458      -0.00552191       0.00000000
In      -1.40933179       6.60370329       1.65445482        7       0.00390458       0.00552191       0.00000000
In       3.99409502       0.04134813       3.38052670        8       0.00390458      -0.00276095      -0.00478211
In      -1.35085671       3.82079974      -0.00000000        9      -0.00000000       0.00000000       0.00000000
In       3.99409502       5.77254775       0.07161706       10       0.00390458      -0.00276095      -0.00478211
In      -1.29238162      -1.95174800       6.54620222       11      -0.00390458       0.00276095       0.00478211
In       3.99409502       2.78290355       1.65445482       12       0.00390458       0.00552191       0.00000000
In       1.40933179       4.73465155       1.72607188       13      -0.00390458       0.00276095      -0.00478211
In       4.05257011       0.00000000      -0.00000000       14      -0.00000000      -0.00000000       0.00000000
In       1.35085670       1.91039987       3.30890964       15       0.00000000       0.00000000      -0.00000000
O        0.75301574       3.81909976       3.46774618       16       0.00025287       0.00377131       0.00561028
O       -1.94869767       3.00400629       4.88541841       17       0.00025287       0.00297299      -0.00607119
O       -0.52067777       1.99424373       0.01655918       18       0.00644287      -0.00140401       0.00150999
O       -0.75301574      -0.81849344       1.73534532       19      -0.00025287       0.00674430      -0.00046091
O        3.48177017       4.64885364       1.71878614       20       0.00271867      -0.00587250      -0.00197090
O        1.92165664       2.74631423       1.57650877       21      -0.00271867      -0.00122941      -0.00607119
O        1.92165664       5.72333915       0.14227736       22      -0.00271867      -0.00464310       0.00410029
O       -2.05375028       5.55735142       3.32546882       23       0.00347133      -0.00560640       0.00150999
O        3.22239118       1.82655601       6.60126010       24      -0.00644287       0.00140400      -0.00150999
O        4.75546369      -1.73655167       3.29235046       25      -0.00347133       0.00560640      -0.00150999
O        5.92410459       2.92186241       1.59012349       26      -0.00644287       0.00060568       0.00197090
O        3.34967654       2.01166464       3.45118701       27       0.00347133       0.00411089       0.00410029
O        0.64796313       3.89338318       6.45898273       28       0.00347133       0.00149551      -0.00561028
O        2.05375028      -0.07258343       0.15883654       29      -0.00347133      -0.00149551       0.00561028
O       -3.22239118       0.89893734       5.02769578       30       0.00644287      -0.00060568      -0.00197090
O        4.65041108       0.81679346       1.73240086       31      -0.00025287      -0.00297299       0.00607119
O        0.78005677       1.07448552       5.04131050       32       0.00271867       0.00122941       0.00607119
O        3.22239118      -0.92761867       5.04425496       33      -0.00644287      -0.00200969      -0.00046091
O        1.94869767       0.00169999       3.15007309       34      -0.00025287      -0.00377131      -0.00561028
O        0.78005677      -1.90253941       6.47554191       35       0.00271867       0.00464310      -0.00410029
O       -0.64796313       1.80913510       3.16663227       36      -0.00347133      -0.00411089      -0.00410029
O       -0.78005677      -0.82805389       4.89903314       37      -0.00271867       0.00587250       0.00197090
O       -0.52067777       4.74841842       1.57356432       38       0.00644287       0.00200969       0.00046091
O        3.45472915       4.63929319       4.88247396       39       0.00025287      -0.00674430       0.00046091
