40
Lattice="9.208827548253662 7.217663384795141e-10 8.557482640408414e-15 -3.069609183431708 8.682165874622948 -1.250134362226806e-09 -3.0696091824109835 -4.341082936589712 7.5189762081272296" Properties=species:S:1:pos:R:3:spacegroup_kinds:I:1:forces:R:3 spacegroup="P 1" unit_cell=conventional occupancy="_JSON {\"0\": {\"In\": 1}, \"1\": {\"In\": 1}, \"2\": {\"In\": 1}, \"3\": {\"In\": 1}, \"4\": {\"In\": 1}, \"5\": {\"In\": 1}, \"6\": {\"In\": 1}, \"7\": {\"In\": 1}, \"8\": {\"In\": 1}, \"9\": {\"In\": 1}, \"10\": {\"In\": 1}, \"11\": {\"In\": 1}, \"12\": {\"In\": 1}, \"13\": {\"In\": 1}, \"14\": {\"In\": 1}, \"15\": {\"In\": 1}, \"16\": {\"O\": 1}, \"17\": {\"O\": 1}, \"18\": {\"O\": 1}, \"19\": {\"O\": 1}, \"20\": {\"O\": 1}, \"21\": {\"O\": 1}, \"22\": {\"O\": 1}, \"23\": {\"O\": 1}, \"24\": {\"O\": 1}, \"25\": {\"O\": 1}, \"26\": {\"O\": 1}, \"27\": {\"O\": 1}, \"28\": {\"O\": 1}, \"29\": {\"O\": 1}, \"30\": {\"O\": 1}, \"31\": {\"O\": 1}, \"32\": {\"O\": 1}, \"33\": {\"O\": 1}, \"34\": {\"O\": 1}, \"35\": {\"O\": 1}, \"36\": {\"O\": 1}, \"37\": {\"O\": 1}, \"38\": {\"O\": 1}, \"39\": {\"O\": 1}}" n_minim_iter=4 energy=-45150.47565796487 stress="0.024566006212812415 -3.4960140675667483e-13 -1.378459741163218e-12 -3.4960140675667483e-13 0.024566006209632868 7.846019247119902e-13 -1.378459741163218e-12 7.846019247119902e-13 0.02456600620916057" free_energy=-45150.47565796487 pbc="T T T"
In      -4.40732268       3.11644776       5.88061846        0       0.00111618      -0.00078926       0.00136704
In       7.47693186       1.22463519       1.63835774        1      -0.00111618       0.00078926      -0.00136704
In       1.33771350      -0.94590628       5.39784585        2      -0.00111618       0.00078926      -0.00136704
In      -1.53480459      -2.17054147       3.75948810        3       0.00000000       0.00000000      -0.00000000
In      -1.33771350       4.20171849       3.51810179        4       0.00111618      -0.00078926      -0.00136704
In       4.80150487      -2.97708330       5.63923215        5       0.00111618       0.00157852      -0.00000000
In      -1.33771350       1.36399964       5.63923215        6       0.00111618       0.00157852       0.00000000
In      -1.73189569       7.31816624       1.87974405        7      -0.00111618      -0.00157852      -0.00000000
In       4.40732268       0.13936445       4.00087441        8      -0.00111618       0.00078926       0.00136704
In      -1.53480459       4.34108294      -0.00000000        9      -0.00000000      -0.00000000       0.00000000
In       4.40732268       6.65098886       0.24138630       10      -0.00111618       0.00078926       0.00136704
In      -1.33771350      -2.30990592       7.27758990       11       0.00111618      -0.00078926      -0.00136704
In       4.40732268       2.97708331       1.87974405       12      -0.00111618      -0.00157852       0.00000000
In       1.73189568       5.28698922       2.12113036       13       0.00111618      -0.00078926       0.00136704
In       4.60441377       0.00000000      -0.00000000       14      -0.00000000       0.00000000      -0.00000000
In       1.53480459       2.17054147       3.75948810       15       0.00000000      -0.00000000       0.00000000
O        0.88832429       4.34127960       4.09760902       16      -0.00383927       0.00257785      -0.00360873
O       -2.18128489       3.54853518       5.47000138       17      -0.00383927      -0.00441418      -0.00042812
O       -0.45092769       2.32498786       0.07027129       18      -0.00301106      -0.00499981       0.00058622
O       -0.88832429      -0.79235110       2.04863420       19       0.00383927      -0.00183632      -0.00403685
O        4.07268601       5.17400519       1.97836291       20      -0.00288197       0.00217478      -0.00462307
O        2.06653235       3.04423153       1.71051328       21       0.00288197       0.00509109      -0.00042812
O        2.06653235       6.47085660       0.26784962       22       0.00288197      -0.00291631      -0.00419495
O       -2.34232881       6.16176715       3.82975939       23       0.00371018       0.00450545       0.00058622
O        3.52053687       2.01609508       7.44870492       24       0.00301106       0.00499981      -0.00058622
O        5.41193799      -1.82068421       3.68921681       25      -0.00371018      -0.00450545      -0.00058622
O        6.59014605       3.39389212       1.78112519       26       0.00301106      -0.00199222       0.00462307
O        3.79688956       2.40632682       4.02733773       27       0.00371018      -0.00174504      -0.00419495
O        0.72728037       4.45515484       7.18085529       28       0.00371018      -0.00276041       0.00360873
O        2.34232881      -0.11407190       0.33812091       29      -0.00371018       0.00276041      -0.00360873
O       -3.52053687       0.94719082       5.73785101       30      -0.00301106       0.00199222      -0.00462307
O        5.25089407       0.79254776       2.04897482       31       0.00383927       0.00441418       0.00042812
O        1.00307683       1.29685141       5.80846292       32      -0.00288197      -0.00509109       0.00042812
O        3.52053687      -1.06890426       5.80812230       33       0.00301106      -0.00300759      -0.00403685
O        2.18128489      -0.00019666       3.42136719       34       0.00383927      -0.00257785       0.00360873
O        1.00307683      -2.12977366       7.25112658       35      -0.00288197       0.00291631       0.00419495
O       -0.72728038       1.93475612       3.49163848       36      -0.00371018       0.00174504       0.00419495
O       -1.00307683      -0.83292225       5.54061330       37       0.00288197      -0.00217478       0.00462307
O       -0.45092769       5.40998720       1.71085390       38      -0.00301106       0.00300759       0.00403685
O        3.95793347       5.13343404       5.47034201       39      -0.00383927       0.00183632       0.00403685
