40
Lattice="8.194214831953992 6.422373206831766e-10 1.5809150192870782e-14 -2.7314049445901745 7.725579832018001 -1.1123987439775662e-09 -2.731404943681926 -3.8627899153667578 6.690548394233889" Properties=species:S:1:pos:R:3:spacegroup_kinds:I:1:forces:R:3 spacegroup="P 1" unit_cell=conventional occupancy="_JSON {\"0\": {\"In\": 1}, \"1\": {\"In\": 1}, \"2\": {\"In\": 1}, \"3\": {\"In\": 1}, \"4\": {\"In\": 1}, \"5\": {\"In\": 1}, \"6\": {\"In\": 1}, \"7\": {\"In\": 1}, \"8\": {\"In\": 1}, \"9\": {\"In\": 1}, \"10\": {\"In\": 1}, \"11\": {\"In\": 1}, \"12\": {\"In\": 1}, \"13\": {\"In\": 1}, \"14\": {\"In\": 1}, \"15\": {\"In\": 1}, \"16\": {\"O\": 1}, \"17\": {\"O\": 1}, \"18\": {\"O\": 1}, \"19\": {\"O\": 1}, \"20\": {\"O\": 1}, \"21\": {\"O\": 1}, \"22\": {\"O\": 1}, \"23\": {\"O\": 1}, \"24\": {\"O\": 1}, \"25\": {\"O\": 1}, \"26\": {\"O\": 1}, \"27\": {\"O\": 1}, \"28\": {\"O\": 1}, \"29\": {\"O\": 1}, \"30\": {\"O\": 1}, \"31\": {\"O\": 1}, \"32\": {\"O\": 1}, \"33\": {\"O\": 1}, \"34\": {\"O\": 1}, \"35\": {\"O\": 1}, \"36\": {\"O\": 1}, \"37\": {\"O\": 1}, \"38\": {\"O\": 1}, \"39\": {\"O\": 1}}" n_minim_iter=9 energy=-45148.0330749294 stress="0.1073519733089867 -1.14263539953688e-12 -1.5860937510592913e-12 -1.14263539953688e-12 0.10735197330733813 9.804894271337767e-13 -1.5860937510592913e-12 9.804894271337767e-13 0.10735197330857803" free_energy=-45148.0330749294 pbc="T T T"
In      -4.01803987       2.84118324       5.11474886        0      -0.00111655       0.00078952      -0.00136749
In       6.74944482       1.02160668       1.57579953        1       0.00111655      -0.00078952       0.00136749
In       1.28663493      -0.90978828       4.92107373        2       0.00111655      -0.00078952       0.00136749
In      -1.36570247      -1.93139496       3.34527419        3      -0.00000000      -0.00000000      -0.00000000
In      -1.28663493       3.80688072       3.24843663        4      -0.00111655       0.00078952       0.00136749
In       4.17617496      -2.78527404       5.01791129        5      -0.00111655      -0.00157904      -0.00000000
In      -1.28663493       1.07751587       5.01791129        6      -0.00111655      -0.00157905       0.00000000
In      -1.44477002       6.64806396       1.67263710        7       0.00111655       0.00157904      -0.00000000
In       4.01803987       0.05590920       3.44211176        8       0.00111655      -0.00078952      -0.00136749
In      -1.36570247       3.86278992      -0.00000000        9       0.00000000      -0.00000000       0.00000000
In       4.01803987       5.85009407       0.09683756       10       0.00111655      -0.00078952      -0.00136749
In      -1.28663493      -1.98730415       6.59371082       11      -0.00111655       0.00078952       0.00136749
In       4.01803987       2.78527405       1.67263710       12       0.00111655       0.00157905       0.00000000
In       1.44477001       4.77257820       1.76947466       13      -0.00111655       0.00078952      -0.00136749
In       4.09710741       0.00000000      -0.00000000       14       0.00000000       0.00000000       0.00000000
In       1.36570247       1.93139496       3.34527419       15      -0.00000000      -0.00000000      -0.00000000
O        0.76749215       3.85824448       3.52161327       16      -0.00043805       0.00028021       0.00227699
O       -1.96391280       3.05207927       4.93367822       17      -0.00043805       0.00183183      -0.00138117
O       -0.51280009       2.02598764       0.02037267       18       0.00184523       0.00021730       0.00141527
O       -0.76749215      -0.81525608       1.76474310       19       0.00043805       0.00211204       0.00089583
O        3.53216553       4.68980817       1.74437042       20       0.00187308      -0.00129493      -0.00051945
O        1.93064435       2.76562994       1.58840403       21      -0.00187308      -0.00019761      -0.00138117
O        1.93064435       5.78696815       0.15596639       22      -0.00187308      -0.00109732       0.00086172
O       -2.08105283       5.60232823       3.36564687       23       0.00041020      -0.00181214       0.00141527
O        3.24420503       1.83680228       6.67017571       24      -0.00184523      -0.00021730      -0.00141527
O        4.81245777      -1.73953831       3.32490152       25      -0.00041020       0.00181214      -0.00141527
O        5.97560998       2.96203203       1.60090377       26      -0.00184523       0.00133431       0.00051945
O        3.38175706       2.04496654       3.50124059       27       0.00041020       0.00213173       0.00086172
O        0.65035212       3.94107499       6.51420932       28       0.00041020      -0.00031959      -0.00227699
O        2.08105283      -0.07828507       0.17633907       29      -0.00041020       0.00031959       0.00227699
O       -3.24420504       0.90075789       5.08964462       30       0.00184523      -0.00133431      -0.00051945
O        4.69531774       0.81071065       1.75687017       31       0.00043805      -0.00183183       0.00138117
O        0.80076059       1.09715998       5.10214436       32       0.00187308       0.00019761       0.00138117
O        3.24420503      -0.93604439       5.11001730       33      -0.00184523      -0.00111701       0.00089583
O        1.96391280       0.00454544       3.16893512       34       0.00043805      -0.00028021      -0.00227699
O        0.80076059      -1.92417823       6.53458200       35       0.00187308       0.00109732      -0.00086172
O       -0.65035212       1.81782338       3.18930780       36      -0.00041020      -0.00213173      -0.00086172
O       -0.80076059      -0.82701825       4.94617797       37      -0.00187308       0.00129493       0.00051945
O       -0.51280009       4.79883431       1.58053109       38       0.00184523       0.00111701      -0.00089583
O        3.49889709       4.67804600       4.92580529       39      -0.00043805      -0.00211204      -0.00089583
