40
Lattice="8.61299671414489 6.750645470960715e-10 -3.082984947435332e-15 -2.8709989053514207 8.120411176987382 -1.169251287390085e-09 -2.8709989043967328 -4.060205587818621 7.032482369225671" Properties=species:S:1:pos:R:3:spacegroup_kinds:I:1:forces:R:3 spacegroup="P 1" unit_cell=conventional occupancy="_JSON {\"0\": {\"In\": 1}, \"1\": {\"In\": 1}, \"2\": {\"In\": 1}, \"3\": {\"In\": 1}, \"4\": {\"In\": 1}, \"5\": {\"In\": 1}, \"6\": {\"In\": 1}, \"7\": {\"In\": 1}, \"8\": {\"In\": 1}, \"9\": {\"In\": 1}, \"10\": {\"In\": 1}, \"11\": {\"In\": 1}, \"12\": {\"In\": 1}, \"13\": {\"In\": 1}, \"14\": {\"In\": 1}, \"15\": {\"In\": 1}, \"16\": {\"O\": 1}, \"17\": {\"O\": 1}, \"18\": {\"O\": 1}, \"19\": {\"O\": 1}, \"20\": {\"O\": 1}, \"21\": {\"O\": 1}, \"22\": {\"O\": 1}, \"23\": {\"O\": 1}, \"24\": {\"O\": 1}, \"25\": {\"O\": 1}, \"26\": {\"O\": 1}, \"27\": {\"O\": 1}, \"28\": {\"O\": 1}, \"29\": {\"O\": 1}, \"30\": {\"O\": 1}, \"31\": {\"O\": 1}, \"32\": {\"O\": 1}, \"33\": {\"O\": 1}, \"34\": {\"O\": 1}, \"35\": {\"O\": 1}, \"36\": {\"O\": 1}, \"37\": {\"O\": 1}, \"38\": {\"O\": 1}, \"39\": {\"O\": 1}}" n_minim_iter=6 energy=-45150.02364062634 stress="-0.054533337892756224 -3.844651479389028e-15 -1.3381939121893747e-13 -3.844651479389028e-15 -0.054533337893045666 1.311505715021051e-12 -1.3381939121893747e-13 1.311505715021051e-12 -0.05453333789381297" free_energy=-45150.02364062634 pbc="T T T"
In      -4.11940987       2.91286266       5.50349744        0       0.00351813      -0.00248769       0.00430881
In       6.99040877       1.14734294       1.52898493        1      -0.00351813       0.00248769      -0.00430881
In       1.24841096      -0.88275986       5.04522611        2      -0.00351813       0.00248769      -0.00430881
In      -1.43549945      -2.03010279       3.51624118        3       0.00000000      -0.00000000      -0.00000000
In      -1.24841097       3.92791405       3.28710552        4       0.00351813      -0.00248769      -0.00430881
In       4.49358684      -2.78057111       5.27436177        5       0.00351813       0.00497539       0.00000000
In      -1.24841097       1.27963447       5.27436177        6       0.00351813       0.00497539      -0.00000000
In      -1.62258794       6.84077671       1.75812059        7      -0.00351813      -0.00497539       0.00000000
In       4.11940987       0.13229154       3.74537685        8      -0.00351813       0.00248769       0.00430881
In      -1.43549945       4.06020559      -0.00000000        9       0.00000000       0.00000000      -0.00000000
In       4.11940987       6.22259992       0.22913566       10      -0.00351813       0.00248769       0.00430881
In      -1.24841097      -2.16239433       6.80334670       11       0.00351813      -0.00248769      -0.00430881
In       4.11940987       2.78057112       1.75812059       12      -0.00351813      -0.00497539       0.00000000
In       1.62258794       4.94296545       1.98725625       13       0.00351813      -0.00248769       0.00430881
In       4.30649836       0.00000000      -0.00000000       14       0.00000000       0.00000000      -0.00000000
In       1.43549945       2.03010280       3.51624118       15       0.00000000       0.00000000      -0.00000000
O        0.88444526       4.06797087       3.80278320       16       0.00420143       0.00529813       0.00341458
O       -1.98655364       3.28942422       5.12436584       17       0.00420143       0.00030805      -0.00629560
O       -0.42456338       2.18493032       0.00492302       18       0.00668603      -0.00144883      -0.00325260
O       -0.88444527      -0.76301609       1.89466667       19      -0.00420143       0.00560618      -0.00288102
O        3.76348344       4.82606399       1.88974364       20      -0.00111004      -0.00748406       0.00037158
O        1.97851437       2.80656879       1.60812465       21       0.00111004      -0.00406383      -0.00629560
O        1.97851437       6.07970079       0.28161898       22       0.00111004      -0.00342024       0.00666718
O       -2.20149318       5.76228048       3.52116421       23       0.00359464      -0.00582070      -0.00325260
O        3.29556229       1.87527528       7.02755934       24      -0.00668603       0.00144883       0.00325260
O        5.07249209      -1.70207488       3.51131815       25      -0.00359464       0.00582070       0.00325260
O        6.16656119       3.12683142       1.62649754       26      -0.00668603      -0.00354125      -0.00037158
O        3.54050463       2.19838022       3.79786017       27       0.00359465       0.00009352       0.00666718
O        0.66950572       4.21995608       6.74594035       28       0.00359464       0.00572718      -0.00341458
O        2.20149318      -0.15975049       0.28654201       29      -0.00359464      -0.00572718       0.00341458
O       -3.29556229       0.93337417       5.40598483       30       0.00668603       0.00354125       0.00037158
O        4.85755254       0.77078137       1.90811653       31      -0.00420143      -0.00030805       0.00629560
O        0.89248453       1.25363680       5.42435771       32      -0.00111004       0.00406383       0.00629560
O        3.29556229      -0.94190110       5.41090785       33      -0.00668603       0.00209242      -0.00288102
O        1.98655364      -0.00776528       3.22969917       34      -0.00420143      -0.00529812      -0.00341458
O        0.89248453      -2.01949520       6.75086338       35      -0.00111004       0.00342024      -0.00666718
O       -0.66950572       1.86182538       3.23462219       36      -0.00359464      -0.00009352      -0.00666718
O       -0.89248454      -0.76585840       5.14273872       37       0.00111004       0.00748406      -0.00037158
O       -0.42456338       5.00210669       1.62157451       38       0.00668603      -0.00209242       0.00288102
O        3.75544417       4.82322168       5.13781569       39       0.00420143      -0.00560618       0.00288102
