80
Lattice="11.758498855432377 0.01026096778598974 0.007085054069392333 6.460723416312333 9.824533248891663 0.007085054069391442 6.460723416312334 3.4875190797163316 9.18470001824684" Properties=species:S:1:pos:R:3:spacegroup_kinds:I:1:forces:R:3 spacegroup="P 1" unit_cell=conventional occupancy="_JSON {\"0\": {\"In\": 1}, \"1\": {\"In\": 1}, \"2\": {\"In\": 1}, \"3\": {\"In\": 1}, \"4\": {\"O\": 1}, \"5\": {\"O\": 1}, \"6\": {\"O\": 1}, \"7\": {\"O\": 1}, \"8\": {\"O\": 1}, \"9\": {\"O\": 1}}" n_minim_iter=5 energy=-90301.44116698402 stress="-0.00012707593724269517 -0.00010491497609343612 -5.2872939819574016e-05 -0.00010491497609343612 -9.250388518519427e-06 -6.719729077526472e-05 -5.2872939819574016e-05 -6.719729077526472e-05 -8.88688746588383e-06" free_energy=-11287.680210632254 pbc="T T T"
In      10.56705934       5.70983608       3.94256158        0       0.09855705      -0.00565895      -0.00440637
In      16.45689231       5.71497580       3.94611049        0      -0.00483887      -0.00154831       0.00028157
In      13.80800459      10.62211194       3.94611049        0      -0.00211301      -0.00208430      -0.00125012
In      19.68725402      10.62724243       3.94965301        0       0.00065313       0.00023279      -0.00036340
In      13.80800459       7.45360486       8.53491797        0      -0.00284893      -0.00141940      -0.00251337
In      19.68725402       7.45873534       8.53846050        0      -0.00254922       0.00034827       0.00238101
In      17.03836630      12.36587148       8.53846050        0      -0.00019252       0.00030643      -0.00140919
In      22.91761572      12.37100197       8.54200302        0      -0.00119474      -0.00060332      -0.00041694
In       7.93231640       4.28188966       2.95658464        1      -0.01658565      -0.01230010      -0.00884104
In      13.81156583       4.28702014       2.96012717        1      -0.00392443       0.00227436       0.00323651
In      11.16267811       9.19415628       2.96012717        1       0.00242089      -0.00185300       0.00039712
In      17.04192754       9.19928677       2.96366969        1       0.00064801       0.00071523       0.00036855
In      11.16267811       6.02564920       7.54893465        1       0.00241318      -0.00027661      -0.00024278
In      17.04192754       6.03077968       7.55247718        1       0.00063973       0.00038636       0.00017809
In      14.39303982      10.93791582       7.55247718        1       0.00085671       0.00024890       0.00039230
In      20.27228924      10.94304631       7.55601970        1       0.00043825       0.00074516       0.00024223
In       4.40765645       2.37926700       1.64285043        2      -0.00102246      -0.00020216       0.00054522
In      10.28690588       2.38439748       1.64639296        2       0.00060907      -0.00189365      -0.00077477
In       7.63801816       7.29153362       1.64639296        2      -0.00413847       0.00266542      -0.00698290
In      13.51726759       7.29666411       1.64993548        2      -0.00413634      -0.00281142       0.00289924
In       7.63801816       4.12302654       6.23520044        2      -0.00501845      -0.00228391       0.00350165
In      13.51726759       4.12815702       6.23874297        2      -0.00500232       0.00177880      -0.00604201
In      10.86837987       9.03529316       6.23874297        2       0.00060257      -0.00048425      -0.00116425
In      16.74762929       9.04042365       6.24228549        2      -0.00102564      -0.00019193       0.00055587
In       1.76232998       0.95131134       0.65686711        3       0.00090084       0.00122486       0.00083856
In       7.64157941       0.95644182       0.66040964        3       0.00026065       0.00037096       0.00038431
In       4.99269169       5.86357796       0.66040964        3       0.00106832      -0.00004148       0.00047500
In      10.87194112       5.86870845       0.66395216        3       0.00340129       0.00231364       0.00160031
In       4.99269169       2.69507088       5.24921712        3       0.00021024       0.00099519       0.00005316
In      10.87194112       2.70020136       5.25275965        3       0.00701273       0.00191202      -0.00080942
In       8.22305340       7.60733750       5.25275965        3      -0.00507587       0.00782824       0.00743312
In      14.10230282       7.61246799       5.25630217        3       0.00117102       0.00039436       0.00027122
O        6.02461793       2.31267077       0.21777125        4      -0.00008187       0.00546192      -0.00762415
O       11.90386736       2.31780125       0.22131378        4      -0.00019058       0.00526324      -0.00765746
O        9.25497964       7.22493739       0.22131378        4      -0.00017130       0.00513096      -0.00723855
O       15.13422907       7.23006788       0.22485630        4       0.00017579       0.00505369      -0.00782422
O        9.25497964       4.05643031       4.81012126        4      -0.00704951      -0.00062166      -0.00606517
O       15.13422907       4.06156079       4.81366379        4       0.00375399       0.00452188      -0.00732306
O       12.48534135       8.96869693       4.81366379        4      -0.00054108       0.00507505      -0.00724574
O       18.36459077       8.97382742       4.81720631        4       0.00110109       0.00406947      -0.00804963
O        7.10072909       5.12262891       1.15340130        5      -0.00376609       0.00904637       0.00117721
O       12.97997852       5.12775939       1.15694383        5      -0.00390932       0.00815790       0.00017123
O       10.33109080      10.03489553       1.15694383        5      -0.00506385       0.00848604       0.00008548
O       16.21034023      10.04002602       1.16048635        5      -0.00415326       0.00820051      -0.00018113
O       10.33109080       6.86638845       5.74575131        5      -0.00798703       0.01199569       0.00472437
O       16.21034023       6.87151893       5.74929384        5      -0.00407759       0.00828677      -0.00011256
O       13.56145251      11.77865507       5.74929384        5      -0.00349372       0.00915071      -0.00019090
O       19.44070193      11.78378556       5.75283636        5      -0.00457394       0.00669205       0.00086936
O        8.17886848       2.18590935       2.51394626        6       0.00469751      -0.00236903      -0.00720739
O       14.05811791       2.19103983       2.51748879        6       0.00432340      -0.00360094      -0.00804660
O       11.40923019       7.09817597       2.51748879        6      -0.00506130      -0.01564981       0.00401682
O       17.28847962       7.10330646       2.52103131        6       0.00654160      -0.00330637      -0.00728619
O       11.40923019       3.92966889       7.10629627        6       0.00350293      -0.00223149      -0.00806152
O       17.28847962       3.93479937       7.10983880        6       0.00479759      -0.00324580      -0.00734317
O       14.63959190       8.84193551       7.10983880        6       0.00441468      -0.00270597      -0.00768566
O       20.51884132       8.84706600       7.11338132        6       0.00470694      -0.00333794      -0.00825409
O        4.16110437       4.47524731       2.08548881        7      -0.00383940       0.00315644       0.00739807
O       10.04035380       4.48037779       2.08903134        7      -0.01030855       0.00180788       0.00583067
O        7.39146608       9.38751393       2.08903134        7      -0.00458520       0.00172155       0.00846270
O       13.27071551       9.39264442       2.09257386        7      -0.00319767       0.00472514       0.00713720
O        7.39146608       6.21900685       6.67783882        7      -0.00354363       0.00295880       0.00699238
O       13.27071551       6.22413733       6.68138135        7      -0.00513631       0.00291116       0.00720551
O       10.62182779      11.13127347       6.68138135        7      -0.00449106       0.00311963       0.00786078
O       16.50107721      11.13640396       6.68492387        7      -0.00518940       0.00326980       0.00770414
O        6.31535492       4.34848589       4.38166381        8       0.00101914      -0.00460521       0.00754316
O       12.19460435       4.35361637       4.38520634        8      -0.03114853       0.01760720       0.00170194
O        9.54571663       9.26075251       4.38520634        8      -0.00082816      -0.00735140       0.00771962
O       15.42496606       9.26588300       4.38874886        8       0.00021655      -0.00505937       0.00749574
O        9.54571663       6.09224543       8.97401382        8       0.00008927      -0.00553978       0.00765076
O       15.42496606       6.09737591       8.97755635        8       0.00024248      -0.00512201       0.00805661
O       12.77607834      11.00451205       8.97755635        8       0.00006346      -0.00499129       0.00829686
O       18.65532776      11.00964254       8.98109887        8       0.00024458      -0.00528708       0.00642622
O        5.23924376       1.53852775       3.44603377        9       0.00468313      -0.00779387      -0.00010866
O       11.11849319       1.54365823       3.44957630        9       0.00433015      -0.00859643      -0.00023445
O        8.46960547       6.45079437       3.44957630        9      -0.01121337      -0.00463320      -0.00114717
O       14.34885490       6.45592486       3.45311882        9       0.00416192      -0.00752794      -0.00026095
O        8.46960547       3.28228729       8.03838378        9       0.00448995      -0.00826457      -0.00061750
O       14.34885490       3.28741777       8.04192631        9       0.00459327      -0.00854217       0.00079979
O       11.69996718       8.19455391       8.04192631        9       0.00454136      -0.00813793       0.00021373
O       17.57921660       8.19968440       8.04546883        9       0.00471417      -0.00843681      -0.00059292
