80
Lattice="11.758498855432377 0.01026096778598974 0.007085054069392333 6.460723416312333 9.824533248891663 0.007085054069391442 6.460723416312334 3.4875190797163316 9.18470001824684" Properties=species:S:1:pos:R:3:spacegroup_kinds:I:1:forces:R:3 spacegroup="P 1" unit_cell=conventional occupancy="_JSON {\"0\": {\"In\": 1}, \"1\": {\"In\": 1}, \"2\": {\"In\": 1}, \"3\": {\"In\": 1}, \"4\": {\"O\": 1}, \"5\": {\"O\": 1}, \"6\": {\"O\": 1}, \"7\": {\"O\": 1}, \"8\": {\"O\": 1}, \"9\": {\"O\": 1}}" n_minim_iter=5 energy=-90301.44114100382 stress="-9.255404196093837e-05 -2.6070958615113785e-05 -4.111016780172104e-05 -2.6070958615113785e-05 -3.3851284666955107e-05 1.9594125113826853e-05 -4.111016780172104e-05 1.9594125113826853e-05 7.27659015700755e-06" free_energy=-11287.680210632254 pbc="T T T"
In      10.58822642       5.70985456       3.94257434        0      -0.10249864       0.00608441       0.00364412
In      16.45689231       5.71497580       3.94611049        0       0.00305026       0.00059446      -0.00093170
In      13.80800459      10.62211194       3.94611049        0       0.00033311       0.00111979       0.00058812
In      19.68725402      10.62724243       3.94965301        0      -0.00241816      -0.00119432      -0.00030067
In      13.80800459       7.45360486       8.53491797        0       0.00108741       0.00045376       0.00184871
In      19.68725402       7.45873534       8.53846050        0       0.00078196      -0.00129498      -0.00302595
In      17.03836630      12.36587148       8.53846050        0      -0.00157317      -0.00125511       0.00073665
In      22.91761572      12.37100197       8.54200302        0      -0.00058140      -0.00035453      -0.00024549
In       7.93231640       4.28188966       2.95658464        1       0.01804144       0.01300346       0.00932904
In      13.81156583       4.28702014       2.96012717        1       0.00557287      -0.00133989      -0.00250720
In      11.16267811       9.19415628       2.96012717        1      -0.00065005       0.00279534       0.00024804
In      17.04192754       9.19928677       2.96366969        1       0.00112997       0.00024775       0.00029494
In      11.16267811       6.02564920       7.54893465        1      -0.00065591       0.00123390       0.00090689
In      17.04192754       6.03077968       7.55247718        1       0.00112064       0.00057174       0.00049234
In      14.39303982      10.93791582       7.55247718        1       0.00091929       0.00070989       0.00026100
In      20.27228924      10.94304631       7.55601970        1       0.00133030       0.00021082       0.00041293
In       4.40765645       2.37926700       1.64285043        2      -0.00074437      -0.00076470      -0.00121279
In      10.28690588       2.38439748       1.64639296        2      -0.00239462       0.00096988       0.00012272
In       7.63801816       7.29153362       1.64639296        2       0.00237470      -0.00360654       0.00634191
In      13.51726759       7.29666411       1.64993548        2       0.00238027       0.00188848      -0.00359712
In       7.63801816       4.12302654       6.23520044        2       0.00324660       0.00126637      -0.00412169
In      13.51726759       4.12815702       6.23874297        2       0.00326063      -0.00277325       0.00540206
In      10.86837987       9.03529316       6.23874297        2      -0.00239879      -0.00048946       0.00048982
In      16.74762929       9.04042365       6.24228549        2      -0.00074732      -0.00075489      -0.00120244
In       1.76232998       0.95131134       0.65686711        3       0.00087364      -0.00026285      -0.00018866
In       7.64157941       0.95644182       0.66040964        3       0.00150783       0.00057140       0.00028612
In       4.99269169       5.86357796       0.66040964        3       0.00071750       0.00098887       0.00016328
In      10.87194112       5.86870845       0.66395216        3      -0.00163496      -0.00134574      -0.00085438
In       4.99269169       2.69507088       5.24921712        3       0.00153354      -0.00003092       0.00060367
In      10.87194112       2.70020136       5.25275965        3      -0.00527289      -0.00081066       0.00140746
In       8.22305340       7.60733750       5.25275965        3       0.00688092      -0.00692767      -0.00692354
In      14.10230282       7.61246799       5.25630217        3       0.00077850       0.00067425       0.00046486
O        6.02461793       2.31267077       0.21777125        4       0.00008816       0.00520151      -0.00782048
O       11.90386736       2.31780125       0.22131378        4       0.00019519       0.00539281      -0.00778547
O        9.25497964       7.22493739       0.22131378        4       0.00017459       0.00552439      -0.00817582
O       15.13422907       7.23006788       0.22485630        4      -0.00016728       0.00561009      -0.00762955
O        9.25497964       4.05643031       4.81012126        4       0.00679417       0.01075279      -0.00896789
O       15.13422907       4.06156079       4.81366379        4      -0.00356338       0.00607298      -0.00808605
O       12.48534135       8.96869693       4.81366379        4       0.00056763       0.00562764      -0.00820118
O       18.36459077       8.97382742       4.81720631        4      -0.00110195       0.00659025      -0.00739000
O        7.10072909       5.12262891       1.15340130        5      -0.00496188       0.00750595      -0.00103068
O       12.97997852       5.12775939       1.15694383        5      -0.00499291       0.00834401      -0.00018011
O       10.33109080      10.03489553       1.15694383        5      -0.00385418       0.00801526      -0.00008020
O       16.21034023      10.04002602       1.16048635        5      -0.00475827       0.00831018       0.00018163
O       10.33109080       6.86638845       5.74575131        5      -0.00068801       0.00437701      -0.00492695
O       16.21034023       6.87151893       5.74929384        5      -0.00482191       0.00823560       0.00011901
O       13.56145251      11.77865507       5.74929384        5      -0.00541240       0.00736441       0.00018544
O       19.44070193      11.78378556       5.75283636        5      -0.00432780       0.00980616      -0.00087084
O        8.17886848       2.18590935       2.51394626        6       0.00426142      -0.00343048      -0.00822011
O       14.05811791       2.19103983       2.51748879        6       0.00460372      -0.00227104      -0.00740651
O       11.40923019       7.09817597       2.51748879        6       0.01415367       0.01027188      -0.01984513
O       17.28847962       7.10330646       2.52103131        6       0.00240139      -0.00255153      -0.00813874
O       11.40923019       3.92966889       7.10629627        6       0.00539296      -0.00362051      -0.00735511
O       17.28847962       3.93479937       7.10983880        6       0.00411814      -0.00260315      -0.00809450
O       14.63959190       8.84193551       7.10983880        6       0.00450099      -0.00314197      -0.00775664
O       20.51884132       8.84706600       7.11338132        6       0.00419768      -0.00250479      -0.00717703
O        4.16110437       4.47524731       2.08548881        7      -0.00508101       0.00270609       0.00803976
O       10.04035380       4.48037779       2.08903134        7       0.00152752       0.00396261       0.00949502
O        7.39146608       9.38751393       2.08903134        7      -0.00433428       0.00413414       0.00698425
O       13.27071551       9.39264442       2.09257386        7      -0.00566290       0.00118493       0.00827960
O        7.39146608       6.21900685       6.67783882        7      -0.00533255       0.00288956       0.00841041
O       13.27071551       6.22413733       6.68138135        7      -0.00372894       0.00297999       0.00834997
O       10.62182779      11.13127347       6.68138135        7      -0.00441865       0.00273315       0.00758359
O       16.50107721      11.13640396       6.68492387        7      -0.00372753       0.00258269       0.00773638
O        6.31535492       4.34848589       4.38166381        8      -0.00070385      -0.00596492       0.00788346
O       12.19460435       4.35361637       4.38520634        8       0.03354414      -0.03029537       0.01438143
O        9.54571663       9.26075251       4.38520634        8       0.00081465      -0.00334774       0.00770879
O       15.42496606       9.26588300       4.38874886        8      -0.00020920      -0.00559168       0.00795072
O        9.54571663       6.09224543       8.97401382        8      -0.00008651      -0.00512407       0.00779105
O       15.42496606       6.09737591       8.97755635        8      -0.00024541      -0.00553940       0.00738132
O       12.77607834      11.00451205       8.97755635        8      -0.00005891      -0.00567360       0.00714924
O       18.65532776      11.00964254       8.98109887        8      -0.00024451      -0.00536864       0.00899605
O        5.23924376       1.53852775       3.44603377        9       0.00423113      -0.00871693       0.00011092
O       11.11849319       1.54365823       3.44957630        9       0.00457458      -0.00790515       0.00023089
O        8.46960547       6.45079437       3.44957630        9       0.01864806      -0.01103061       0.00080639
O       14.34885490       6.45592486       3.45311882        9       0.00501294      -0.00900506       0.00023276
O        8.46960547       3.28228729       8.03838378        9       0.00441865      -0.00825131       0.00062696
O       14.34885490       3.28741777       8.04192631        9       0.00432113      -0.00797537      -0.00079298
O       11.69996718       8.19455391       8.04192631        9       0.00438319      -0.00836236      -0.00019104
O       17.57921660       8.19968440       8.04546883        9       0.00420740      -0.00807944       0.00057490
