40
Lattice="5.205334952824657 -3.746038473298784e-43 3.304621126373677e-82 3.891775942558068e-43 5.407845511132812 -1.0541535870680789e-38 1.0656730520500811e-81 2.704946401823886e-38 13.876471546848187" Properties=species:S:1:pos:R:3:spacegroup_kinds:I:1:forces:R:3 spacegroup="P 1" unit_cell=conventional occupancy="_JSON {\"0\": {\"In\": 1}, \"1\": {\"In\": 1}, \"2\": {\"In\": 1}, \"3\": {\"In\": 1}, \"4\": {\"In\": 1}, \"5\": {\"In\": 1}, \"6\": {\"In\": 1}, \"7\": {\"In\": 1}, \"8\": {\"In\": 1}, \"9\": {\"In\": 1}, \"10\": {\"In\": 1}, \"11\": {\"In\": 1}, \"12\": {\"In\": 1}, \"13\": {\"In\": 1}, \"14\": {\"In\": 1}, \"15\": {\"In\": 1}, \"16\": {\"O\": 1}, \"17\": {\"O\": 1}, \"18\": {\"O\": 1}, \"19\": {\"O\": 1}, \"20\": {\"O\": 1}, \"21\": {\"O\": 1}, \"22\": {\"O\": 1}, \"23\": {\"O\": 1}, \"24\": {\"O\": 1}, \"25\": {\"O\": 1}, \"26\": {\"O\": 1}, \"27\": {\"O\": 1}, \"28\": {\"O\": 1}, \"29\": {\"O\": 1}, \"30\": {\"O\": 1}, \"31\": {\"O\": 1}, \"32\": {\"O\": 1}, \"33\": {\"O\": 1}, \"34\": {\"O\": 1}, \"35\": {\"O\": 1}, \"36\": {\"O\": 1}, \"37\": {\"O\": 1}, \"38\": {\"O\": 1}, \"39\": {\"O\": 1}}" n_minim_iter=1 energy=-45131.822107903914 stress="-0.39681184634493155 5.6581848189744504e-14 4.5271184315435665e-13 5.6581848189744504e-14 -0.395122541859759 1.4230870863069443e-12 4.5271184315435665e-13 1.4230870863069443e-12 -0.38630592005936587" free_energy=-45131.822107903914 pbc="T T T"
In       2.82239275       3.80540407       7.60651810        0       0.07372316       0.15992408      -0.22663947
In       0.21972528       4.30636420       6.26995345        1       0.07372316      -0.15992408       0.22663947
In       2.38294220       1.10148132      13.20818922        2      -0.07372316       0.15992408       0.22663947
In       4.98560967       1.60244144       0.66828232        3      -0.07372316      -0.15992408      -0.22663947
In       2.38294220       1.60244144       6.26995345        4      -0.07372316      -0.15992408       0.22663947
In       4.98560967       1.10148132       7.60651810        5      -0.07372316       0.15992408      -0.22663947
In       2.82239275       4.30636420       0.66828232        6       0.07372316      -0.15992408      -0.22663947
In       0.21972528       3.80540407      13.20818922        7       0.07372316       0.15992408       0.22663947
In       2.72900343       3.15052323      11.28190879        8      -0.09482116      -0.37430378       0.40866305
In       5.33167091       4.96124504       2.59456276        9      -0.09482116       0.37430378      -0.40866305
In       2.47633152       0.44660047       9.53279853       10       0.09482116      -0.37430378      -0.40866305
In      -0.12633596       2.25732228       4.34367302       11       0.09482116       0.37430378       0.40866305
In       2.47633152       2.25732228       2.59456276       12       0.09482116       0.37430378      -0.40866305
In      -0.12633596       0.44660047      11.28190879       13       0.09482116      -0.37430378       0.40866305
In       2.72900343       4.96124504       4.34367302       14      -0.09482116       0.37430378       0.40866305
In       5.33167091       3.15052323       9.53279853       15      -0.09482116      -0.37430378      -0.40866305
O        4.61277316       3.90113107      11.22917854       16      -0.00459570       0.02793215       0.07505215
O        2.01010569       4.21063719       2.64729300       17      -0.00459570      -0.02793215      -0.07505215
O        0.59256179       1.19720832       9.58552878       18       0.00459570       0.02793215      -0.07505215
O        3.19522926       1.50671444       4.29094277       19       0.00459570      -0.02793215       0.07505215
O        0.59256179       1.50671444       2.64729300       20       0.00459570      -0.02793215      -0.07505215
O        3.19522926       1.19720832      11.22917854       21       0.00459570       0.02793215       0.07505215
O        4.61277316       4.21063719       4.29094277       22      -0.00459570      -0.02793215       0.07505215
O        2.01010569       3.90113107       9.58552878       23      -0.00459570       0.02793215      -0.07505215
O        3.45127616       2.08948387       8.69840925       24       0.06340352       0.07347677       0.16311588
O        0.84860868       6.02228440       5.17806229       25       0.06340352      -0.07347677      -0.16311588
O        1.75405879      -0.61443889      12.11629807       26      -0.06340352       0.07347677      -0.16311588
O        4.35672627       3.31836164       1.76017348       27      -0.06340352      -0.07347677       0.16311588
O        1.75405879       3.31836164       5.17806229       28      -0.06340352      -0.07347677      -0.16311588
O        4.35672627      -0.61443889       8.69840925       29      -0.06340352       0.07347677       0.16311588
O        3.45127616       6.02228440       1.76017348       30       0.06340352      -0.07347677       0.16311588
O        0.84860868       2.08948387      12.11629807       31       0.06340352       0.07347677      -0.16311588
O        3.59923582       2.83732924      13.22573611       32      -0.13656914       0.05165975       0.08708620
O        0.99656835       5.27443903       0.65073544       33      -0.13656914      -0.05165975      -0.08708620
O        1.60609913       0.13340648       7.58897121       34       0.13656914       0.05165975      -0.08708620
O        4.20876661       2.57051627       6.28750034       35       0.13656914      -0.05165975       0.08708620
O        1.60609913       2.57051627       0.65073544       36       0.13656914      -0.05165975      -0.08708620
O        4.20876661       0.13340648      13.22573611       37       0.13656914       0.05165975       0.08708620
O        3.59923582       5.27443903       6.28750034       38      -0.13656914      -0.05165975       0.08708620
O        0.99656835       2.83732924       7.58897121       39      -0.13656914       0.05165975      -0.08708620
40
Lattice="5.216564264089935 -3.751803837144069e-43 8.404442981481085e-81 3.89906938577834e-43 5.414660580368281 -1.272095170902689e-37 8.833356918644631e-82 -2.5964768837105435e-37 13.829172909641178" Properties=species:S:1:pos:R:3:spacegroup_kinds:I:1:forces:R:3 spacegroup="P 1" unit_cell=conventional occupancy="_JSON {\"0\": {\"In\": 1}, \"1\": {\"In\": 1}, \"2\": {\"In\": 1}, \"3\": {\"In\": 1}, \"4\": {\"In\": 1}, \"5\": {\"In\": 1}, \"6\": {\"In\": 1}, \"7\": {\"In\": 1}, \"8\": {\"In\": 1}, \"9\": {\"In\": 1}, \"10\": {\"In\": 1}, \"11\": {\"In\": 1}, \"12\": {\"In\": 1}, \"13\": {\"In\": 1}, \"14\": {\"In\": 1}, \"15\": {\"In\": 1}, \"16\": {\"O\": 1}, \"17\": {\"O\": 1}, \"18\": {\"O\": 1}, \"19\": {\"O\": 1}, \"20\": {\"O\": 1}, \"21\": {\"O\": 1}, \"22\": {\"O\": 1}, \"23\": {\"O\": 1}, \"24\": {\"O\": 1}, \"25\": {\"O\": 1}, \"26\": {\"O\": 1}, \"27\": {\"O\": 1}, \"28\": {\"O\": 1}, \"29\": {\"O\": 1}, \"30\": {\"O\": 1}, \"31\": {\"O\": 1}, \"32\": {\"O\": 1}, \"33\": {\"O\": 1}, \"34\": {\"O\": 1}, \"35\": {\"O\": 1}, \"36\": {\"O\": 1}, \"37\": {\"O\": 1}, \"38\": {\"O\": 1}, \"39\": {\"O\": 1}}" n_minim_iter=2 energy=-45131.83112155606 stress="-0.3892521433761345 1.0432438135055004e-13 1.0569772242036373e-12 1.0432438135055004e-13 -0.39077776886842364 -7.162812454755746e-13 1.0569772242036373e-12 -7.162812454755746e-13 -0.3936375690577117" free_energy=-45131.83112155606 pbc="T T T"
In       2.82858168       3.81041702       7.58028438        0       0.04628640       0.12413819      -0.23886321
In       0.22029955       4.31157385       6.24888853        1       0.04628640      -0.12413819       0.23886321
In       2.38798258       1.10308673      13.16347499        2      -0.04628640       0.12413819       0.23886321
In       4.99626471       1.60424356       0.66569792        3      -0.04628640      -0.12413819      -0.23886321
In       2.38798258       1.60424356       6.24888853        4      -0.04628640      -0.12413819       0.23886321
In       4.99626471       1.10308673       7.58028438        5      -0.04628640       0.12413819      -0.23886321
In       2.82858168       4.31157385       0.66569792        6       0.04628640      -0.12413819      -0.23886321
In       0.22029955       3.81041702      13.16347499        7       0.04628640       0.12413819       0.23886321
In       2.73476167       3.15398496      11.24400656        8      -0.04955066      -0.37941615       0.38562244
In       5.34304380       4.96800591       2.58516635        9      -0.04955066       0.37941615      -0.38562244
In       2.48180259       0.44665467       9.49975281       10       0.04955066      -0.37941615      -0.38562244
In      -0.12647954       2.26067562       4.32942010       11       0.04955066       0.37941615       0.38562244
In       2.48180259       2.26067562       2.58516635       12       0.04955066       0.37941615      -0.38562244
In      -0.12647954       0.44665467      11.24400656       13       0.04955066      -0.37941615       0.38562244
In       2.73476167       4.96800591       4.32942010       14      -0.04955066       0.37941615       0.38562244
In       5.34304380       3.15398496       9.49975281       15      -0.04955066      -0.37941615      -0.38562244
O        4.62271791       3.90608531      11.19100484       16      -0.06721878       0.03402750       0.06779936
O        2.01443578       4.21590556       2.63816807       17      -0.06721878      -0.03402750      -0.06779936
O        0.59384635       1.19875502       9.55275452       18       0.06721878       0.03402750      -0.06779936
O        3.20212849       1.50857527       4.27641839       19       0.06721878      -0.03402750       0.06779936
O        0.59384635       1.50857527       2.63816807       20       0.06721878      -0.03402750      -0.06779936
O        3.20212849       1.19875502      11.19100484       21       0.06721878       0.03402750       0.06779936
O        4.62271791       4.21590556       4.27641839       22      -0.06721878      -0.03402750       0.06779936
O        2.01443578       3.90608531       9.55275452       23      -0.06721878       0.03402750      -0.06779936
O        3.45880772       2.09221692       8.66898091       24       0.03468605       0.08000873       0.16709434
O        0.85052559       6.02977395       5.16019200       25       0.03468605      -0.08000873      -0.16709434
O        1.75775654      -0.61511337      12.07477846       26      -0.03468605       0.08000873      -0.16709434
O        4.36603867       3.32244366       1.75439445       27      -0.03468605      -0.08000873       0.16709434
O        1.75775654       3.32244366       5.16019200       28      -0.03468605      -0.08000873      -0.16709434
O        4.36603867      -0.61511337       8.66898091       29      -0.03468605       0.08000873       0.16709434
O        3.45880772       6.02977395       1.75439445       30       0.03468605      -0.08000873       0.16709434
O        0.85052559       2.09221692      12.07477846       31       0.03468605       0.08000873      -0.16709434
O        3.60681460       2.84097509      13.18077332       32      -0.09621869       0.03905016       0.09140521
O        0.99853247       5.28101578       0.64839959       33      -0.09621869      -0.03905016      -0.09140521
O        1.60974966       0.13364480       7.56298605       34       0.09621869       0.03905016      -0.09140521
O        4.21803179       2.57368549       6.26618686       35       0.09621869      -0.03905016       0.09140521
O        1.60974966       2.57368549       0.64839959       36       0.09621869      -0.03905016      -0.09140521
O        4.21803179       0.13364480      13.18077332       37       0.09621869       0.03905016       0.09140521
O        3.60681460       5.28101578       6.26618686       38      -0.09621869      -0.03905016       0.09140521
O        0.99853247       2.84097509       7.56298605       39      -0.09621869       0.03905016      -0.09140521
40
Lattice="5.204025056455305 -3.742270345147511e-43 8.558104591144076e-81 3.9092764006707584e-43 5.428121856666249 -1.289301957023515e-37 8.809588025158449e-82 -2.6472096795678125e-37 13.828116795374546" Properties=species:S:1:pos:R:3:spacegroup_kinds:I:1:forces:R:3 spacegroup="P 1" unit_cell=conventional occupancy="_JSON {\"0\": {\"In\": 1}, \"1\": {\"In\": 1}, \"2\": {\"In\": 1}, \"3\": {\"In\": 1}, \"4\": {\"In\": 1}, \"5\": {\"In\": 1}, \"6\": {\"In\": 1}, \"7\": {\"In\": 1}, \"8\": {\"In\": 1}, \"9\": {\"In\": 1}, \"10\": {\"In\": 1}, \"11\": {\"In\": 1}, \"12\": {\"In\": 1}, \"13\": {\"In\": 1}, \"14\": {\"In\": 1}, \"15\": {\"In\": 1}, \"16\": {\"O\": 1}, \"17\": {\"O\": 1}, \"18\": {\"O\": 1}, \"19\": {\"O\": 1}, \"20\": {\"O\": 1}, \"21\": {\"O\": 1}, \"22\": {\"O\": 1}, \"23\": {\"O\": 1}, \"24\": {\"O\": 1}, \"25\": {\"O\": 1}, \"26\": {\"O\": 1}, \"27\": {\"O\": 1}, \"28\": {\"O\": 1}, \"29\": {\"O\": 1}, \"30\": {\"O\": 1}, \"31\": {\"O\": 1}, \"32\": {\"O\": 1}, \"33\": {\"O\": 1}, \"34\": {\"O\": 1}, \"35\": {\"O\": 1}, \"36\": {\"O\": 1}, \"37\": {\"O\": 1}, \"38\": {\"O\": 1}, \"39\": {\"O\": 1}}" n_minim_iter=3 energy=-45131.87542302766 stress="-0.38686732153263576 1.9534999902894398e-13 4.166138995991984e-13 1.9534999902894398e-13 -0.38337974640669364 2.5873215112165936e-13 4.166138995991984e-13 2.5873215112165936e-13 -0.38689403190477806" free_energy=-45131.87542302766 pbc="T T T"
In       2.82282741       3.82250040       7.57516377        0       0.02114652      -0.05146729      -0.15306554
In       0.22081488       4.31968238       6.25295302        1       0.02114652       0.05146729       0.15306554
In       2.38119764       1.10843948      13.16701142        2      -0.02114652      -0.05146729       0.15306554
In       4.98321017       1.60562145       0.66110538        3      -0.02114652       0.05146729      -0.15306554
In       2.38119764       1.60562145       6.25295302        4      -0.02114652       0.05146729       0.15306554
In       4.98321017       1.10843948       7.57516377        5      -0.02114652      -0.05146729      -0.15306554
In       2.82282741       4.31968238       0.66110538        6       0.02114652       0.05146729      -0.15306554
In       0.22081488       3.82250040      13.16701142        7       0.02114652      -0.05146729       0.15306554
In       2.72698504       3.15445816      11.25070649        8      -0.16605140      -0.16588749       0.04443896
In       5.32899757       4.98772462       2.57741030        9      -0.16605140       0.16588749      -0.04443896
In       2.47704002       0.44039724       9.49146870       10       0.16605140      -0.16588749      -0.04443896
In      -0.12497251       2.27366369       4.33664809       11       0.16605140       0.16588749       0.04443896
In       2.47704002       2.27366369       2.57741030       12       0.16605140       0.16588749      -0.04443896
In      -0.12497251       0.44039724      11.25070649       13       0.16605140      -0.16588749       0.04443896
In       2.72698504       4.98772462       4.33664809       14      -0.16605140       0.16588749       0.04443896
In       5.32899757       3.15445816       9.49146870       15      -0.16605140      -0.16588749      -0.04443896
O        4.61063299       3.91642686      11.19149609       16      -0.02055918      -0.08659433      -0.05987255
O        2.00862046       4.22575592       2.63662070       17      -0.02055918       0.08659433       0.05987255
O        0.59339207       1.20236593       9.55067910       18       0.02055918      -0.08659433       0.05987255
O        3.19540460       1.51169499       4.27743770       19       0.02055918       0.08659433      -0.05987255
O        0.59339207       1.51169499       2.63662070       20       0.02055918       0.08659433       0.05987255
O        3.19540460       1.20236593      11.19149609       21       0.02055918      -0.08659433      -0.05987255
O        4.61063299       4.22575592       4.27743770       22      -0.02055918       0.08659433      -0.05987255
O        2.00862046       3.91642686       9.55067910       23      -0.02055918      -0.08659433       0.05987255
O        3.45132002       2.09894294       8.67152019       24      -0.00061794       0.08468533       0.12920505
O        0.84930749       6.04323985       5.15659661       25      -0.00061794      -0.08468533      -0.12920505
O        1.75270504      -0.61511799      12.07065501       26       0.00061794       0.08468533      -0.12920505
O        4.35471757       3.32917892       1.75746179       27       0.00061794      -0.08468533       0.12920505
O        1.75270504       3.32917892       5.15659661       28       0.00061794      -0.08468533      -0.12920505
O        4.35471757      -0.61511799       8.67152019       29       0.00061794       0.08468533       0.12920505
O        3.45132002       6.04323985       1.75746179       30      -0.00061794      -0.08468533       0.12920505
O        0.84930749       2.09894294      12.07065501       31      -0.00061794       0.08468533      -0.12920505
O        3.59606137       2.84886634      13.18150659       32       0.00116255      -0.02630940       0.06929421
O        0.99404884       5.29331645       0.64661021       33       0.00116255       0.02630940      -0.06929421
O        1.60796369       0.13480541       7.56066861       34      -0.00116255      -0.02630940      -0.06929421
O        4.20997622       2.57925552       6.26744819       35      -0.00116255       0.02630940       0.06929421
O        1.60796369       2.57925552       0.64661021       36      -0.00116255       0.02630940      -0.06929421
O        4.20997622       0.13480541      13.18150659       37      -0.00116255      -0.02630940       0.06929421
O        3.59606137       5.29331645       6.26744819       38       0.00116255       0.02630940       0.06929421
O        0.99404884       2.84886634       7.56066861       39       0.00116255      -0.02630940      -0.06929421
40
Lattice="5.21058694632088 -3.912695012819967e-43 6.443972112376406e-81 3.691477691422335e-43 5.419009739358459 -1.0427372667875248e-37 8.820323058957681e-82 -2.0081752137337315e-37 13.833925353080778" Properties=species:S:1:pos:R:3:spacegroup_kinds:I:1:forces:R:3 spacegroup="P 1" unit_cell=conventional occupancy="_JSON {\"0\": {\"In\": 1}, \"1\": {\"In\": 1}, \"2\": {\"In\": 1}, \"3\": {\"In\": 1}, \"4\": {\"In\": 1}, \"5\": {\"In\": 1}, \"6\": {\"In\": 1}, \"7\": {\"In\": 1}, \"8\": {\"In\": 1}, \"9\": {\"In\": 1}, \"10\": {\"In\": 1}, \"11\": {\"In\": 1}, \"12\": {\"In\": 1}, \"13\": {\"In\": 1}, \"14\": {\"In\": 1}, \"15\": {\"In\": 1}, \"16\": {\"O\": 1}, \"17\": {\"O\": 1}, \"18\": {\"O\": 1}, \"19\": {\"O\": 1}, \"20\": {\"O\": 1}, \"21\": {\"O\": 1}, \"22\": {\"O\": 1}, \"23\": {\"O\": 1}, \"24\": {\"O\": 1}, \"25\": {\"O\": 1}, \"26\": {\"O\": 1}, \"27\": {\"O\": 1}, \"28\": {\"O\": 1}, \"29\": {\"O\": 1}, \"30\": {\"O\": 1}, \"31\": {\"O\": 1}, \"32\": {\"O\": 1}, \"33\": {\"O\": 1}, \"34\": {\"O\": 1}, \"35\": {\"O\": 1}, \"36\": {\"O\": 1}, \"37\": {\"O\": 1}, \"38\": {\"O\": 1}, \"39\": {\"O\": 1}}" n_minim_iter=4 energy=-45131.87882293704 stress="-0.3822159388141348 2.427645395999297e-13 6.666526838677181e-13 2.427645395999297e-13 -0.38766116103839615 -6.897007714721542e-13 6.666526838677181e-13 -6.897007714721542e-13 -0.3849161347401142" free_energy=-45131.87882293704 pbc="T T T"
In       2.82654463       3.81622633       7.57754404        0       0.01106890      -0.05593913      -0.09248928
In       0.22125116       4.31228828       6.25638132        1       0.01106890       0.05593913       0.09248928
In       2.38404231       1.10672146      13.17334399        2      -0.01106890      -0.05593913       0.09248928
In       4.98933579       1.60278341       0.66058136        3      -0.01106890       0.05593913      -0.09248928
In       2.38404231       1.60278341       6.25638132        4      -0.01106890       0.05593913       0.09248928
In       4.98933579       1.10672146       7.57754404        5      -0.01106890      -0.05593913      -0.09248928
In       2.82654463       4.31228828       0.66058136        6       0.01106890       0.05593913      -0.09248928
In       0.22125116       3.81622633      13.17334399        7       0.01106890      -0.05593913       0.09248928
In       2.72990757       3.14804805      11.25628614        8      -0.14668123      -0.08419719       0.00003674
In       5.33520105       4.98046656       2.57763921        9      -0.14668123       0.08419719      -0.00003674
In       2.48067937       0.43854318       9.49460189       10       0.14668123      -0.08419719      -0.00003674
In      -0.12461410       2.27096169       4.33932346       11       0.14668123       0.08419719       0.00003674
In       2.48067937       2.27096169       2.57763921       12       0.14668123       0.08419719      -0.00003674
In      -0.12461410       0.43854318      11.25628614       13       0.14668123      -0.08419719       0.00003674
In       2.72990757       4.98046656       4.33932346       14      -0.14668123       0.08419719       0.00003674
In       5.33520105       3.14804805       9.49460189       15      -0.14668123      -0.08419719      -0.00003674
O        4.61631424       3.90970965      11.19619223       16      -0.03974743      -0.15053132      -0.05652471
O        2.01102076       4.21880496       2.63773312       17      -0.03974743       0.15053132       0.05652471
O        0.59427271       1.20020478       9.55469580       18       0.03974743      -0.15053132       0.05652471
O        3.19956618       1.50930009       4.27922956       19       0.03974743       0.15053132      -0.05652471
O        0.59427271       1.50930009       2.63773312       20       0.03974743       0.15053132       0.05652471
O        3.19956618       1.20020478      11.19619223       21       0.03974743      -0.15053132      -0.05652471
O        4.61631424       4.21880496       4.27922956       22      -0.03974743       0.15053132      -0.05652471
O        2.01102076       3.90970965       9.55469580       23      -0.03974743      -0.15053132       0.05652471
O        3.45575744       2.09576758       8.67577819       24       0.01087866       0.07917221       0.12474881
O        0.85046396       6.03274703       5.15814716       25       0.01087866      -0.07917221      -0.12474881
O        1.75482951      -0.61373729      12.07510984       26      -0.01087866       0.07917221      -0.12474881
O        4.36012298       3.32324216       1.75881552       27      -0.01087866      -0.07917221       0.12474881
O        1.75482951       3.32324216       5.15814716       28      -0.01087866      -0.07917221      -0.12474881
O        4.36012298      -0.61373729       8.67577819       29      -0.01087866       0.07917221       0.12474881
O        3.45575744       6.03274703       1.75881552       30       0.01087866      -0.07917221       0.12474881
O        0.85046396       2.09576758      12.07510984       31       0.01087866       0.07917221      -0.12474881
O        3.60038512       2.84410604      13.18737549       32       0.03214650      -0.01980190       0.05919501
O        0.99509165       5.28440857       0.64654986       33       0.03214650       0.01980190      -0.05919501
O        1.61020183       0.13460117       7.56351254       34      -0.03214650      -0.01980190      -0.05919501
O        4.21549530       2.57490370       6.27041281       35      -0.03214650       0.01980190       0.05919501
O        1.61020183       2.57490370       0.64654986       36      -0.03214650       0.01980190      -0.05919501
O        4.21549530       0.13460117      13.18737549       37      -0.03214650      -0.01980190       0.05919501
O        3.60038512       5.28440857       6.27041281       38       0.03214650       0.01980190       0.05919501
O        0.99509165       2.84410604       7.56351254       39       0.03214650      -0.01980190      -0.05919501
40
Lattice="5.196917373122887 -3.841978543737384e-43 -4.910616997414488e-81 3.724090325942026e-43 5.434843130215607 5.601334360683203e-38 8.786570470671625e-82 2.0965486407117417e-37 13.829904508007619" Properties=species:S:1:pos:R:3:spacegroup_kinds:I:1:forces:R:3 spacegroup="P 1" unit_cell=conventional occupancy="_JSON {\"0\": {\"In\": 1}, \"1\": {\"In\": 1}, \"2\": {\"In\": 1}, \"3\": {\"In\": 1}, \"4\": {\"In\": 1}, \"5\": {\"In\": 1}, \"6\": {\"In\": 1}, \"7\": {\"In\": 1}, \"8\": {\"In\": 1}, \"9\": {\"In\": 1}, \"10\": {\"In\": 1}, \"11\": {\"In\": 1}, \"12\": {\"In\": 1}, \"13\": {\"In\": 1}, \"14\": {\"In\": 1}, \"15\": {\"In\": 1}, \"16\": {\"O\": 1}, \"17\": {\"O\": 1}, \"18\": {\"O\": 1}, \"19\": {\"O\": 1}, \"20\": {\"O\": 1}, \"21\": {\"O\": 1}, \"22\": {\"O\": 1}, \"23\": {\"O\": 1}, \"24\": {\"O\": 1}, \"25\": {\"O\": 1}, \"26\": {\"O\": 1}, \"27\": {\"O\": 1}, \"28\": {\"O\": 1}, \"29\": {\"O\": 1}, \"30\": {\"O\": 1}, \"31\": {\"O\": 1}, \"32\": {\"O\": 1}, \"33\": {\"O\": 1}, \"34\": {\"O\": 1}, \"35\": {\"O\": 1}, \"36\": {\"O\": 1}, \"37\": {\"O\": 1}, \"38\": {\"O\": 1}, \"39\": {\"O\": 1}}" n_minim_iter=5 energy=-45131.899283020284 stress="-0.38079081215149296 4.985430520791218e-14 4.5323729922058656e-14 4.985430520791218e-14 -0.37956625698715407 -4.8648292940041e-13 4.5323729922058656e-14 -4.8648292940041e-13 -0.3793543484749741" free_energy=-45131.899283020284 pbc="T T T"
In       2.82026987       3.82711608       7.56900922        0      -0.00661695      -0.09360781       0.05372816
In       0.22181118       4.32514862       6.26089529        1      -0.00661695       0.09360781      -0.05372816
In       2.37664750       1.10969451      13.17584754        2       0.00661695      -0.09360781      -0.05372816
In       4.97510619       1.60772705       0.65405697        3       0.00661695       0.09360781       0.05372816
In       2.37664750       1.60772705       6.26089529        4       0.00661695       0.09360781      -0.05372816
In       4.97510619       1.10969451       7.56900922        5       0.00661695      -0.09360781       0.05372816
In       2.82026987       4.32514862       0.65405697        6      -0.00661695       0.09360781       0.05372816
In       0.22181118       3.82711608      13.17584754        7      -0.00661695      -0.09360781      -0.05372816
In       2.71700940       3.14924728      11.25780624        8      -0.09594796      -0.00159635      -0.13790989
In       5.31546809       5.00301741       2.57209827        9      -0.09594796       0.00159635       0.13790989
In       2.47990797       0.43182572       9.48705052       10       0.09594796      -0.00159635       0.13790989
In      -0.11855072       2.28559585       4.34285399       11       0.09594796       0.00159635      -0.13790989
In       2.47990797       2.28559585       2.57209827       12       0.09594796       0.00159635       0.13790989
In      -0.11855072       0.43182572      11.25780624       13       0.09594796      -0.00159635      -0.13790989
In       2.71700940       5.00301741       4.34285399       14      -0.09594796       0.00159635      -0.13790989
In       5.31546809       3.14924728       9.48705052       15      -0.09594796      -0.00159635       0.13790989
O        4.60292203       3.91776257      11.19181562       16      -0.05097648      -0.15558303      -0.00431652
O        2.00446335       4.23450212       2.63808888       17      -0.05097648       0.15558303       0.00431652
O        0.59399534       1.20034101       9.55304114       18       0.05097648      -0.15558303       0.00431652
O        3.19245403       1.51708056       4.27686337       19       0.05097648       0.15558303      -0.00431652
O        0.59399534       1.51708056       2.63808888       20       0.05097648       0.15558303       0.00431652
O        3.19245403       1.20034101      11.19181562       21       0.05097648      -0.15558303      -0.00431652
O        4.60292203       4.23450212       4.27686337       22      -0.05097648       0.15558303      -0.00431652
O        2.00446335       3.91776257       9.55304114       23      -0.05097648      -0.15558303       0.00431652
O        3.44733458       2.10530938       8.67894159       24       0.01514653       0.06374779       0.05559323
O        0.84887589       6.04695532       5.15096291       25       0.01514653      -0.06374779      -0.05559323
O        1.74958280      -0.61211218      12.06591517       26      -0.01514653       0.06374779      -0.05559323
O        4.34804148       3.32953375       1.76398934       27      -0.01514653      -0.06374779       0.05559323
O        1.74958280       3.32953375       5.15096291       28      -0.01514653      -0.06374779      -0.05559323
O        4.34804148      -0.61211218       8.67894159       29      -0.01514653       0.06374779       0.05559323
O        3.44733458       6.04695532       1.76398934       30       0.01514653      -0.06374779       0.05559323
O        0.84887589       2.10530938      12.06591517       31       0.01514653       0.06374779      -0.05559323
O        3.59023009       2.85212938      13.18649002       32       0.06413984      -0.10334363      -0.02964809
O        0.99177140       5.30013532       0.64341449       33       0.06413984       0.10334363       0.02964809
O        1.60668728       0.13470781       7.55836674       34      -0.06413984      -0.10334363       0.02964809
O        4.20514597       2.58271375       6.27153776       35      -0.06413984       0.10334363      -0.02964809
O        1.60668728       2.58271375       0.64341449       36      -0.06413984       0.10334363       0.02964809
O        4.20514597       0.13470781      13.18649002       37      -0.06413984      -0.10334363      -0.02964809
O        3.59023009       5.30013532       6.27153776       38       0.06413984       0.10334363      -0.02964809
O        0.99177140       2.85212938       7.55836674       39       0.06413984      -0.10334363       0.02964809
40