40
Lattice="5.7396035372720755 5.230627041361105e-44 0.0 1.3759133555131084e-42 5.8874540924544885 0.0 0.0 0.0 16.568751300768227" Properties=species:S:1:pos:R:3:spacegroup_kinds:I:1:forces:R:3 spacegroup="P 1" unit_cell=conventional occupancy="_JSON {\"0\": {\"In\": 1}, \"1\": {\"In\": 1}, \"2\": {\"In\": 1}, \"3\": {\"In\": 1}, \"4\": {\"In\": 1}, \"5\": {\"In\": 1}, \"6\": {\"In\": 1}, \"7\": {\"In\": 1}, \"8\": {\"In\": 1}, \"9\": {\"In\": 1}, \"10\": {\"In\": 1}, \"11\": {\"In\": 1}, \"12\": {\"In\": 1}, \"13\": {\"In\": 1}, \"14\": {\"In\": 1}, \"15\": {\"In\": 1}, \"16\": {\"O\": 1}, \"17\": {\"O\": 1}, \"18\": {\"O\": 1}, \"19\": {\"O\": 1}, \"20\": {\"O\": 1}, \"21\": {\"O\": 1}, \"22\": {\"O\": 1}, \"23\": {\"O\": 1}, \"24\": {\"O\": 1}, \"25\": {\"O\": 1}, \"26\": {\"O\": 1}, \"27\": {\"O\": 1}, \"28\": {\"O\": 1}, \"29\": {\"O\": 1}, \"30\": {\"O\": 1}, \"31\": {\"O\": 1}, \"32\": {\"O\": 1}, \"33\": {\"O\": 1}, \"34\": {\"O\": 1}, \"35\": {\"O\": 1}, \"36\": {\"O\": 1}, \"37\": {\"O\": 1}, \"38\": {\"O\": 1}, \"39\": {\"O\": 1}}" n_minim_iter=12 energy=-45149.93466541266 stress="0.027666863757312962 -7.722235933818715e-13 2.523068430793403e-13 -7.722235933818715e-13 0.0276342207866646 3.0626089832262834e-13 2.523068430793403e-13 3.0626089832262834e-13 0.027578514146064614" free_energy=-45149.93466541266 pbc="T T T"
In       2.86352318       4.69299094       9.45327402        0      -0.00246232      -0.00225178      -0.00264584
In      -0.00627859       4.13819020       7.11547728        1      -0.00246232       0.00225178       0.00264584
In       2.87608036       1.74926389      15.39985293        2       0.00246232      -0.00225178       0.00264584
In       5.74588213       1.19446315       1.16889837        3       0.00246232       0.00225178      -0.00264584
In       2.87608036       1.19446315       7.11547728        4       0.00246232       0.00225178       0.00264584
In       5.74588213       1.74926389       9.45327402        5       0.00246232      -0.00225178      -0.00264584
In       2.86352318       4.13819020       1.16889837        6      -0.00246232       0.00225178      -0.00264584
In      -0.00627859       4.69299094      15.39985293        7      -0.00246232      -0.00225178       0.00264584
In       2.84811499       4.38261720      13.55315866        8       0.00473257       0.00243818      -0.00048376
In       5.71791676       4.44856394       3.01559264        9       0.00473257      -0.00243818       0.00048376
In       2.89148855       1.43889015      11.29996829       10      -0.00473257       0.00243818       0.00048376
In       0.02168678       1.50483690       5.26878301       11      -0.00473257      -0.00243818      -0.00048376
In       2.89148855       1.50483690       3.01559264       12      -0.00473257      -0.00243818       0.00048376
In       0.02168678       1.43889015      13.55315866       13      -0.00473257       0.00243818      -0.00048376
In       2.84811499       4.44856394       5.26878301       14       0.00473257      -0.00243818      -0.00048376
In       5.71791676       4.38261720      11.29996829       15       0.00473257       0.00243818       0.00048376
O        4.92921271       5.15480543      13.22518268       16       0.00056733       0.00201835       0.00717855
O        2.05941094       3.67637571       3.34356863       17       0.00056733      -0.00201835      -0.00717855
O        0.81039082       2.21107838      11.62794428       18      -0.00056733       0.00201835      -0.00717855
O        3.68019259       0.73264867       4.94080703       19      -0.00056733      -0.00201835       0.00717855
O        0.81039082       0.73264867       3.34356863       20      -0.00056733      -0.00201835      -0.00717855
O        3.68019259       2.21107838      13.22518268       21      -0.00056733       0.00201835       0.00717855
O        4.92921271       3.67637571       4.94080703       22       0.00056733      -0.00201835       0.00717855
O        2.05941094       5.15480543      11.62794428       23       0.00056733       0.00201835      -0.00717855
O        4.04556221       3.09679298      10.34630722       24      -0.00359624      -0.00546176      -0.00336864
O        1.17576044       5.73438815       6.22244408       25      -0.00359624       0.00546176       0.00336864
O        1.69404133       0.15306594      14.50681973       26       0.00359624      -0.00546176       0.00336864
O        4.56384310       2.79066111       2.06193157       27       0.00359624       0.00546176      -0.00336864
O        1.69404133       2.79066111       6.22244408       28       0.00359624       0.00546176       0.00336864
O        4.56384310       0.15306594      10.34630722       29       0.00359624      -0.00546176      -0.00336864
O        4.04556221       5.73438815       2.06193157       30      -0.00359624       0.00546176      -0.00336864
O        1.17576044       3.09679298      14.50681973       31      -0.00359624      -0.00546176       0.00336864
O        3.71382921       3.88552862      15.71119224       32       0.00114570       0.00079951      -0.00248797
O        0.84402744       4.94565252       0.85755906       33       0.00114570      -0.00079951       0.00248797
O        2.02577433       0.94180157       9.14193471       34      -0.00114570       0.00079951       0.00248797
O        4.89557610       2.00192548       7.42681659       35      -0.00114570      -0.00079951      -0.00248797
O        2.02577433       2.00192548       0.85755906       36      -0.00114570      -0.00079951       0.00248797
O        4.89557610       0.94180157      15.71119224       37      -0.00114570       0.00079951      -0.00248797
O        3.71382921       4.94565252       7.42681659       38       0.00114570      -0.00079951      -0.00248797
O        0.84402744       3.88552862       9.14193471       39       0.00114570       0.00079951       0.00248797
