40
Lattice="5.793467216551354 3.714901223713486e-43 0.0 -6.8574707313115745e-43 5.932898897575693 0.0 0.0 0.0 16.66778642837346" Properties=species:S:1:pos:R:3:spacegroup_kinds:I:1:forces:R:3 spacegroup="P 1" unit_cell=conventional occupancy="_JSON {\"0\": {\"In\": 1}, \"1\": {\"In\": 1}, \"2\": {\"In\": 1}, \"3\": {\"In\": 1}, \"4\": {\"In\": 1}, \"5\": {\"In\": 1}, \"6\": {\"In\": 1}, \"7\": {\"In\": 1}, \"8\": {\"In\": 1}, \"9\": {\"In\": 1}, \"10\": {\"In\": 1}, \"11\": {\"In\": 1}, \"12\": {\"In\": 1}, \"13\": {\"In\": 1}, \"14\": {\"In\": 1}, \"15\": {\"In\": 1}, \"16\": {\"O\": 1}, \"17\": {\"O\": 1}, \"18\": {\"O\": 1}, \"19\": {\"O\": 1}, \"20\": {\"O\": 1}, \"21\": {\"O\": 1}, \"22\": {\"O\": 1}, \"23\": {\"O\": 1}, \"24\": {\"O\": 1}, \"25\": {\"O\": 1}, \"26\": {\"O\": 1}, \"27\": {\"O\": 1}, \"28\": {\"O\": 1}, \"29\": {\"O\": 1}, \"30\": {\"O\": 1}, \"31\": {\"O\": 1}, \"32\": {\"O\": 1}, \"33\": {\"O\": 1}, \"34\": {\"O\": 1}, \"35\": {\"O\": 1}, \"36\": {\"O\": 1}, \"37\": {\"O\": 1}, \"38\": {\"O\": 1}, \"39\": {\"O\": 1}}" n_minim_iter=11 energy=-45149.491573321604 stress="0.040143558955256994 1.6516596902006027e-13 -3.2670136108211164e-14 1.6516596902006027e-13 0.04004902657635758 7.43596850667877e-13 -3.2670136108211164e-14 7.43596850667877e-13 0.0402475658379257" free_energy=-45149.491573321604 pbc="T T T"
In       2.88348762       4.72885033       9.51221656        0       0.00059689      -0.00161117       0.00002681
In      -0.01324599       4.17049801       7.15556987        1       0.00059689       0.00161117      -0.00002681
In       2.90997960       1.76240089      15.48946308        2      -0.00059689      -0.00161117      -0.00002681
In       5.80671321       1.20404856       1.17832334        3      -0.00059689       0.00161117       0.00002681
In       2.90997960       1.20404856       7.15556987        4      -0.00059689       0.00161117      -0.00002681
In       5.80671321       1.76240089       9.51221656        5      -0.00059689      -0.00161117       0.00002681
In       2.88348762       4.17049801       1.17832334        6       0.00059689       0.00161117       0.00002681
In      -0.01324599       4.72885033      15.48946308        7       0.00059689      -0.00161117      -0.00002681
In       2.86643196       4.40225235      13.62990341        8       0.00277675      -0.00339631       0.00145321
In       5.76316557       4.49709600       3.03788302        9       0.00277675       0.00339631      -0.00145321
In       2.92703525       1.43580290      11.37177623       10      -0.00277675      -0.00339631      -0.00145321
In       0.03030165       1.53064655       5.29601020       11      -0.00277675       0.00339631       0.00145321
In       2.92703525       1.53064655       3.03788302       12      -0.00277675       0.00339631      -0.00145321
In       0.03030165       1.43580290      13.62990341       13      -0.00277675      -0.00339631       0.00145321
In       2.86643196       4.49709600       5.29601020       14       0.00277675       0.00339631       0.00145321
In       5.76316557       4.40225235      11.37177623       15       0.00277675      -0.00339631      -0.00145321
O        4.97103711       5.17665525      13.30855967       16       0.00015162      -0.00106046       0.00140479
O        2.07430350       3.72269310       3.35922676       17       0.00015162       0.00106046      -0.00140479
O        0.82243011       2.21020580      11.69311997       18      -0.00015162      -0.00106046      -0.00140479
O        3.71916372       0.75624365       4.97466646       19      -0.00015162       0.00106046       0.00140479
O        0.82243011       0.75624365       3.35922676       20      -0.00015162       0.00106046      -0.00140479
O        3.71916372       2.21020580      13.30855967       21      -0.00015162      -0.00106046       0.00140479
O        4.97103711       3.72269310       4.97466646       22       0.00015162       0.00106046       0.00140479
O        2.07430350       5.17665525      11.69311997       23       0.00015162      -0.00106046      -0.00140479
O        4.07251760       3.12157092      10.40907121       24       0.00299655      -0.00618750      -0.00233008
O        1.17578399       5.77777742       6.25871522       25       0.00299655       0.00618750       0.00233008
O        1.72094961       0.15512148      14.59260844       26      -0.00299655      -0.00618750       0.00233008
O        4.61768322       2.81132797       2.07517799       27      -0.00299655       0.00618750      -0.00233008
O        1.72094961       2.81132797       6.25871522       28      -0.00299655       0.00618750       0.00233008
O        4.61768322       0.15512148      10.40907121       29      -0.00299655      -0.00618750      -0.00233008
O        4.07251760       5.77777742       2.07517799       30       0.00299655       0.00618750      -0.00233008
O        1.17578399       3.12157092      14.59260844       31       0.00299655      -0.00618750       0.00233008
O        3.74755630       3.91523587      15.80850717       32      -0.00159972      -0.00063437       0.00491690
O        0.85082269       4.98411248       0.85927926       33      -0.00159972       0.00063437      -0.00491690
O        2.04591092       0.94878642       9.19317247       34       0.00159972      -0.00063437      -0.00491690
O        4.94264453       2.01766303       7.47461396       35       0.00159972       0.00063437       0.00491690
O        2.04591092       2.01766303       0.85927926       36       0.00159972       0.00063437      -0.00491690
O        4.94264453       0.94878642      15.80850717       37       0.00159972      -0.00063437       0.00491690
O        3.74755630       4.98411248       7.47461396       38      -0.00159972       0.00063437       0.00491690
O        0.85082269       3.91523587       9.19317247       39      -0.00159972      -0.00063437      -0.00491690
