40
Lattice="5.896929738597678 1.8676711453357086e-42 0.0 -1.9782802229420045e-42 6.246163574931421 0.0 0.0 0.0 16.96807920182775" Properties=species:S:1:pos:R:3:spacegroup_kinds:I:1:forces:R:3 spacegroup="P 1" unit_cell=conventional occupancy="_JSON {\"0\": {\"In\": 1}, \"1\": {\"In\": 1}, \"2\": {\"In\": 1}, \"3\": {\"In\": 1}, \"4\": {\"In\": 1}, \"5\": {\"In\": 1}, \"6\": {\"In\": 1}, \"7\": {\"In\": 1}, \"8\": {\"In\": 1}, \"9\": {\"In\": 1}, \"10\": {\"In\": 1}, \"11\": {\"In\": 1}, \"12\": {\"In\": 1}, \"13\": {\"In\": 1}, \"14\": {\"In\": 1}, \"15\": {\"In\": 1}, \"16\": {\"O\": 1}, \"17\": {\"O\": 1}, \"18\": {\"O\": 1}, \"19\": {\"O\": 1}, \"20\": {\"O\": 1}, \"21\": {\"O\": 1}, \"22\": {\"O\": 1}, \"23\": {\"O\": 1}, \"24\": {\"O\": 1}, \"25\": {\"O\": 1}, \"26\": {\"O\": 1}, \"27\": {\"O\": 1}, \"28\": {\"O\": 1}, \"29\": {\"O\": 1}, \"30\": {\"O\": 1}, \"31\": {\"O\": 1}, \"32\": {\"O\": 1}, \"33\": {\"O\": 1}, \"34\": {\"O\": 1}, \"35\": {\"O\": 1}, \"36\": {\"O\": 1}, \"37\": {\"O\": 1}, \"38\": {\"O\": 1}, \"39\": {\"O\": 1}}" n_minim_iter=1 energy=-45146.51514152792 stress="0.060149813004901076 3.532313567007539e-13 -8.843080975052576e-14 3.532313567007539e-13 0.05714409748418475 1.0406641404176728e-13 -8.843080975052576e-14 1.0406641404176728e-13 0.05562944190684035" free_energy=-45146.51514152792 pbc="T T T"
In       2.67492710       5.18654834       9.77264011        0       0.05027263       0.05454846       0.04301720
In      -0.27353777       4.18269703       7.19543909        1       0.05027263      -0.05454846      -0.04301720
In       3.22200264       2.06346655      15.67947870        2      -0.05027263       0.05454846      -0.04301720
In       6.17046751       1.05961524       1.28860051        3      -0.05027263      -0.05454846       0.04301720
In       3.22200264       1.05961524       7.19543909        4      -0.05027263      -0.05454846      -0.04301720
In       6.17046751       2.06346655       9.77264011        5      -0.05027263       0.05454846       0.04301720
In       2.67492710       4.18269703       1.28860051        6       0.05027263      -0.05454846       0.04301720
In      -0.27353777       5.18654834      15.67947870        7       0.05027263       0.05454846      -0.04301720
In       2.68795293       5.00711496      13.82560893        8       0.02660581       0.02896132      -0.04210757
In       5.63641780       4.36213040       3.14247027        9       0.02660581      -0.02896132       0.04210757
In       3.20897681       1.88403317      11.62650987       10      -0.02660581       0.02896132       0.04210757
In       0.26051194       1.23904862       5.34156933       11      -0.02660581      -0.02896132      -0.04210757
In       3.20897681       1.23904862       3.14247027       12      -0.02660581      -0.02896132       0.04210757
In       0.26051194       1.88403317      13.82560893       13      -0.02660581       0.02896132      -0.04210757
In       2.68795293       4.36213040       5.34156933       14       0.02660581      -0.02896132      -0.04210757
In       5.63641780       5.00711496      11.62650987       15       0.02660581       0.02896132       0.04210757
O        4.81894944       5.62015850      13.60284095       16      -0.00068163      -0.09381028      -0.00538351
O        1.87048457       3.74908686       3.36523825       17      -0.00068163       0.09381028       0.00538351
O        1.07798030       2.49707671      11.84927785       18       0.00068163      -0.09381028       0.00538351
O        4.02644517       0.62600507       5.11880135       19       0.00068163       0.09381028      -0.00538351
O        1.07798030       0.62600507       3.36523825       20       0.00068163       0.09381028       0.00538351
O        4.02644517       2.49707671      13.60284095       21       0.00068163      -0.09381028      -0.00538351
O        4.81894944       3.74908686       5.11880135       22      -0.00068163       0.09381028      -0.00538351
O        1.87048457       5.62015850      11.84927785       23      -0.00068163      -0.09381028       0.00538351
O        4.09137491       3.71522813      10.71449114       24      -0.02153136       0.10756568       0.06580840
O        1.14291004       5.65401724       6.25358806       25      -0.02153136      -0.10756568      -0.06580840
O        1.80555483       0.59214634      14.73762766       26       0.02153136       0.10756568      -0.06580840
O        4.75401970       2.53093545       2.23045154       27       0.02153136      -0.10756568       0.06580840
O        1.80555483       2.53093545       6.25358806       28       0.02153136      -0.10756568      -0.06580840
O        4.75401970       0.59214634      10.71449114       29       0.02153136       0.10756568       0.06580840
O        4.09137491       5.65401724       2.23045154       30      -0.02153136      -0.10756568       0.06580840
O        1.14291004       3.71522813      14.73762766       31      -0.02153136       0.10756568      -0.06580840
O        3.72931415       4.15590073      16.25457673       32      -0.03728781      -0.08795767       0.04530171
O        0.78084928       5.21334464       0.71350247       33      -0.03728781       0.08795767      -0.04530171
O        2.16761559       1.03281894       9.19754207       34       0.03728781      -0.08795767      -0.04530171
O        5.11608046       2.09026285       7.77053713       35       0.03728781       0.08795767       0.04530171
O        2.16761559       2.09026285       0.71350247       36       0.03728781       0.08795767      -0.04530171
O        5.11608046       1.03281894      16.25457673       37       0.03728781      -0.08795767       0.04530171
O        3.72931415       5.21334464       7.77053713       38      -0.03728781       0.08795767       0.04530171
O        0.78084928       4.15590073       9.19754207       39      -0.03728781      -0.08795767      -0.04530171
40
Lattice="5.87745530359239 1.8695706448976438e-42 0.0 -1.9862155918748586e-42 6.250258430490371 0.0 0.0 0.0 17.013147983144478" Properties=species:S:1:pos:R:3:spacegroup_kinds:I:1:forces:R:3 spacegroup="P 1" unit_cell=conventional occupancy="_JSON {\"0\": {\"In\": 1}, \"1\": {\"In\": 1}, \"2\": {\"In\": 1}, \"3\": {\"In\": 1}, \"4\": {\"In\": 1}, \"5\": {\"In\": 1}, \"6\": {\"In\": 1}, \"7\": {\"In\": 1}, \"8\": {\"In\": 1}, \"9\": {\"In\": 1}, \"10\": {\"In\": 1}, \"11\": {\"In\": 1}, \"12\": {\"In\": 1}, \"13\": {\"In\": 1}, \"14\": {\"In\": 1}, \"15\": {\"In\": 1}, \"16\": {\"O\": 1}, \"17\": {\"O\": 1}, \"18\": {\"O\": 1}, \"19\": {\"O\": 1}, \"20\": {\"O\": 1}, \"21\": {\"O\": 1}, \"22\": {\"O\": 1}, \"23\": {\"O\": 1}, \"24\": {\"O\": 1}, \"25\": {\"O\": 1}, \"26\": {\"O\": 1}, \"27\": {\"O\": 1}, \"28\": {\"O\": 1}, \"29\": {\"O\": 1}, \"30\": {\"O\": 1}, \"31\": {\"O\": 1}, \"32\": {\"O\": 1}, \"33\": {\"O\": 1}, \"34\": {\"O\": 1}, \"35\": {\"O\": 1}, \"36\": {\"O\": 1}, \"37\": {\"O\": 1}, \"38\": {\"O\": 1}, \"39\": {\"O\": 1}}" n_minim_iter=2 energy=-45146.51988890009 stress="0.05668842882355037 2.2843660680495064e-13 3.7641697239392396e-14 2.2843660680495064e-13 0.057475760016788814 8.577404135075061e-14 3.7641697239392396e-14 8.577404135075061e-14 0.05698794236848357" free_energy=-45146.51988890009 pbc="T T T"
In       2.66619894       5.19006369       9.79868814        0       0.06662386       0.07521232       0.03312831
In      -0.27252871       4.18532395       7.21445985        1       0.06662386      -0.07521232      -0.03312831
In       3.21125636       2.06493448      15.72103384        2      -0.06662386       0.07521232      -0.03312831
In       6.14998401       1.06019474       1.29211415        3      -0.06662386      -0.07521232       0.03312831
In       3.21125636       1.06019474       7.21445985        4      -0.06662386      -0.07521232      -0.03312831
In       6.14998401       2.06493448       9.79868814        5      -0.06662386       0.07521232       0.03312831
In       2.66619894       4.18532395       1.29211415        6       0.06662386      -0.07521232       0.03312831
In      -0.27252871       5.19006369      15.72103384        7       0.06662386       0.07521232      -0.03312831
In       2.67913199       5.01045866      13.86224195        8       0.00131446       0.02779216      -0.05593561
In       5.61785964       4.36492898       3.15090603        9       0.00131446      -0.02779216       0.05593561
In       3.19832331       1.88532945      11.65748002       10      -0.00131446       0.02779216       0.05593561
In       0.25959566       1.23979977       5.35566796       11      -0.00131446      -0.02779216      -0.05593561
In       3.19832331       1.23979977       3.15090603       12      -0.00131446      -0.02779216       0.05593561
In       0.25959566       1.88532945      13.86224195       13      -0.00131446       0.02779216      -0.05593561
In       2.67913199       4.36492898       5.35566796       14       0.00131446      -0.02779216      -0.05593561
In       5.61785964       5.01045866      11.65748002       15       0.00131446       0.02779216       0.05593561
O        4.80303357       5.62364491      13.63895996       16       0.01998014      -0.09397148      -0.02092414
O        1.86430591       3.75174273       3.37418802       17       0.01998014       0.09397148       0.02092414
O        1.07442174       2.49851570      11.88076201       18      -0.01998014      -0.09397148       0.02092414
O        4.01314939       0.62661352       5.13238597       19      -0.01998014       0.09397148      -0.02092414
O        1.07442174       0.62661352       3.37418802       20      -0.01998014       0.09397148       0.02092414
O        4.01314939       2.49851570      13.63895996       21      -0.01998014      -0.09397148      -0.02092414
O        4.80303357       3.75174273       5.13238597       22       0.01998014       0.09397148      -0.02092414
O        1.86430591       5.62364491      11.88076201       23       0.01998014      -0.09397148       0.02092414
O        4.07781799       3.71789084      10.74308903       24      -0.02307567       0.09523605       0.08495656
O        1.13909034       5.65749680       6.27005896       25      -0.02307567      -0.09523605      -0.08495656
O        1.79963731       0.59276163      14.77663295       26       0.02307567       0.09523605      -0.08495656
O        4.73836497       2.53236759       2.23651503       27       0.02307567      -0.09523605       0.08495656
O        1.79963731       2.53236759       6.27005896       28       0.02307567      -0.09523605      -0.08495656
O        4.73836497       0.59276163      10.74308903       29       0.02307567       0.09523605       0.08495656
O        4.07781799       5.65749680       2.23651503       30      -0.02307567      -0.09523605       0.08495656
O        1.13909034       3.71789084      14.77663295       31      -0.02307567       0.09523605      -0.08495656
O        3.71691979       4.15843955      16.29784621       32      -0.04427748      -0.09322854       0.05911507
O        0.77819214       5.21694809       0.71530177       33      -0.04427748       0.09322854      -0.05911507
O        2.16053551       1.03331034       9.22187576       34       0.04427748      -0.09322854      -0.05911507
O        5.09926316       2.09181888       7.79127222       35       0.04427748       0.09322854       0.05911507
O        2.16053551       2.09181888       0.71530177       36       0.04427748       0.09322854      -0.05911507
O        5.09926316       1.03331034      16.29784621       37       0.04427748      -0.09322854       0.05911507
O        3.71691979       5.21694809       7.79127222       38      -0.04427748       0.09322854       0.05911507
O        0.77819214       4.15843955       9.22187576       39      -0.04427748      -0.09322854      -0.05911507
40
Lattice="5.880077761684656 1.9285801302791437e-42 0.0 -1.978975914648735e-42 6.229977010806977 0.0 0.0 0.0 17.06092114607953" Properties=species:S:1:pos:R:3:spacegroup_kinds:I:1:forces:R:3 spacegroup="P 1" unit_cell=conventional occupancy="_JSON {\"0\": {\"In\": 1}, \"1\": {\"In\": 1}, \"2\": {\"In\": 1}, \"3\": {\"In\": 1}, \"4\": {\"In\": 1}, \"5\": {\"In\": 1}, \"6\": {\"In\": 1}, \"7\": {\"In\": 1}, \"8\": {\"In\": 1}, \"9\": {\"In\": 1}, \"10\": {\"In\": 1}, \"11\": {\"In\": 1}, \"12\": {\"In\": 1}, \"13\": {\"In\": 1}, \"14\": {\"In\": 1}, \"15\": {\"In\": 1}, \"16\": {\"O\": 1}, \"17\": {\"O\": 1}, \"18\": {\"O\": 1}, \"19\": {\"O\": 1}, \"20\": {\"O\": 1}, \"21\": {\"O\": 1}, \"22\": {\"O\": 1}, \"23\": {\"O\": 1}, \"24\": {\"O\": 1}, \"25\": {\"O\": 1}, \"26\": {\"O\": 1}, \"27\": {\"O\": 1}, \"28\": {\"O\": 1}, \"29\": {\"O\": 1}, \"30\": {\"O\": 1}, \"31\": {\"O\": 1}, \"32\": {\"O\": 1}, \"33\": {\"O\": 1}, \"34\": {\"O\": 1}, \"35\": {\"O\": 1}, \"36\": {\"O\": 1}, \"37\": {\"O\": 1}, \"38\": {\"O\": 1}, \"39\": {\"O\": 1}}" n_minim_iter=3 energy=-45146.52304894588 stress="0.057072226927585706 -3.102198111090746e-13 -1.2369143426789447e-13 -3.102198111090746e-13 0.05419470500150656 4.061487616829829e-13 -1.2369143426789447e-13 4.061487616829829e-13 0.05823290084995671" free_energy=-45146.52304894588 pbc="T T T"
In       2.66842618       5.17439449       9.82675840        0       0.05444093       0.04827065       0.02810584
In      -0.27161271       4.17057103       7.23416275        1       0.05444093      -0.04827065      -0.02810584
In       3.21165159       2.05940598      15.76462332        2      -0.05444093       0.04827065      -0.02810584
In       6.15169047       1.05558252       1.29629783        3      -0.05444093      -0.04827065       0.02810584
In       3.21165159       1.05558252       7.23416275        4      -0.05444093      -0.04827065      -0.02810584
In       6.15169047       2.05940598       9.82675840        5      -0.05444093       0.04827065       0.02810584
In       2.66842618       4.17057103       1.29629783        6       0.05444093      -0.04827065       0.02810584
In      -0.27161271       5.17439449      15.76462332        7       0.05444093       0.04827065      -0.02810584
In       2.68039341       4.99464899      13.90028429        8       0.00384544       0.02521918      -0.07893409
In       5.62043229       4.35031652       3.16063686        9       0.00384544      -0.02521918       0.07893409
In       3.19968435       1.87966049      11.69109743       10      -0.00384544       0.02521918       0.07893409
In       0.25964547       1.23532802       5.36982371       11      -0.00384544      -0.02521918      -0.07893409
In       3.19968435       1.23532802       3.16063686       12      -0.00384544      -0.02521918       0.07893409
In       0.25964547       1.87966049      13.90028429       13      -0.00384544       0.02521918      -0.07893409
In       2.68039341       4.35031652       5.36982371       14       0.00384544      -0.02521918      -0.07893409
In       5.62043229       4.99464899      11.69109743       15       0.00384544       0.02521918       0.07893409
O        4.80545978       5.60388683      13.67694663       16       0.02456126      -0.08389535      -0.02791868
O        1.86542089       3.74107869       3.38397452       17       0.02456126       0.08389535       0.02791868
O        1.07461799       2.48889833      11.91443509       18      -0.02456126      -0.08389535       0.02791868
O        4.01465687       0.62609018       5.14648606       19      -0.02456126       0.08389535      -0.02791868
O        1.07461799       0.62609018       3.38397452       20      -0.02456126       0.08389535       0.02791868
O        4.01465687       2.48889833      13.67694663       21      -0.02456126      -0.08389535      -0.02791868
O        4.80545978       3.74107869       5.14648606       22       0.02456126       0.08389535      -0.02791868
O        1.86542089       5.60388683      11.91443509       23       0.02456126      -0.08389535       0.02791868
O        4.07927076       3.70737918      10.77460028       24      -0.01619338       0.08701540       0.08848638
O        1.13923188       5.63758633       6.28632086       25      -0.01619338      -0.08701540      -0.08848638
O        1.80080700       0.59239068      14.81678144       26       0.01619338       0.08701540      -0.08848638
O        4.74084588       2.52259783       2.24413971       27       0.01619338      -0.08701540       0.08848638
O        1.80080700       2.52259783       6.28632086       28       0.01619338      -0.08701540      -0.08848638
O        4.74084588       0.59239068      10.77460028       29       0.01619338       0.08701540       0.08848638
O        4.07927076       5.63758633       2.24413971       30      -0.01619338      -0.08701540       0.08848638
O        1.13923188       3.70737918      14.81678144       31      -0.01619338       0.08701540      -0.08848638
O        3.71788177       4.14345694      16.34454547       32      -0.02981204      -0.04652480       0.05572726
O        0.77784289       5.20150858       0.71637568       33      -0.02981204       0.04652480      -0.05572726
O        2.16219599       1.02846843       9.24683625       34       0.02981204      -0.04652480      -0.05572726
O        5.10223487       2.08652007       7.81408489       35       0.02981204       0.04652480       0.05572726
O        2.16219599       2.08652007       0.71637568       36       0.02981204       0.04652480      -0.05572726
O        5.10223487       1.02846843      16.34454547       37       0.02981204      -0.04652480       0.05572726
O        3.71788177       5.20150858       7.81408489       38      -0.02981204       0.04652480       0.05572726
O        0.77784289       4.14345694       9.24683625       39      -0.02981204      -0.04652480      -0.05572726
40
Lattice="5.86950137806339 1.8960448755839284e-42 0.0 -2.0002937145736812e-42 6.2471291515487355 0.0 0.0 0.0 17.04473666077629" Properties=species:S:1:pos:R:3:spacegroup_kinds:I:1:forces:R:3 spacegroup="P 1" unit_cell=conventional occupancy="_JSON {\"0\": {\"In\": 1}, \"1\": {\"In\": 1}, \"2\": {\"In\": 1}, \"3\": {\"In\": 1}, \"4\": {\"In\": 1}, \"5\": {\"In\": 1}, \"6\": {\"In\": 1}, \"7\": {\"In\": 1}, \"8\": {\"In\": 1}, \"9\": {\"In\": 1}, \"10\": {\"In\": 1}, \"11\": {\"In\": 1}, \"12\": {\"In\": 1}, \"13\": {\"In\": 1}, \"14\": {\"In\": 1}, \"15\": {\"In\": 1}, \"16\": {\"O\": 1}, \"17\": {\"O\": 1}, \"18\": {\"O\": 1}, \"19\": {\"O\": 1}, \"20\": {\"O\": 1}, \"21\": {\"O\": 1}, \"22\": {\"O\": 1}, \"23\": {\"O\": 1}, \"24\": {\"O\": 1}, \"25\": {\"O\": 1}, \"26\": {\"O\": 1}, \"27\": {\"O\": 1}, \"28\": {\"O\": 1}, \"29\": {\"O\": 1}, \"30\": {\"O\": 1}, \"31\": {\"O\": 1}, \"32\": {\"O\": 1}, \"33\": {\"O\": 1}, \"34\": {\"O\": 1}, \"35\": {\"O\": 1}, \"36\": {\"O\": 1}, \"37\": {\"O\": 1}, \"38\": {\"O\": 1}, \"39\": {\"O\": 1}}" n_minim_iter=4 energy=-45146.54490053798 stress="0.05383691780152535 -3.2524149512820976e-13 1.513375644380874e-13 -3.2524149512820976e-13 0.05338266581758763 -2.1373840334585767e-13 1.513375644380874e-13 -2.1373840334585767e-13 0.05410953853898032" free_energy=-45146.54490053798 pbc="T T T"
In       2.66868940       5.19423245       9.82013753        0      -0.01353536      -0.00501767      -0.00535977
In      -0.26606128       4.17646128       7.22459913        1      -0.01353536       0.00501767       0.00535977
In       3.20081197       2.07066787      15.74696746        2       0.01353536      -0.00501767       0.00535977
In       6.13556266       1.05289670       1.29776920        3       0.01353536       0.00501767      -0.00535977
In       3.20081197       1.05289670       7.22459913        4       0.01353536       0.00501767       0.00535977
In       6.13556266       2.07066787       9.82013753        5       0.01353536      -0.00501767      -0.00535977
In       2.66868940       4.17646128       1.29776920        6      -0.01353536       0.00501767      -0.00535977
In      -0.26606128       5.19423245      15.74696746        7      -0.01353536      -0.00501767       0.00535977
In       2.67589206       5.01061716      13.88239273        8       0.00954396       0.00775536      -0.01594129
In       5.61064275       4.36007657       3.16234393        9       0.00954396      -0.00775536       0.01594129
In       3.19360932       1.88705258      11.68471226       10      -0.00954396       0.00775536       0.01594129
In       0.25885863       1.23651200       5.36002440       11      -0.00954396      -0.00775536      -0.01594129
In       3.19360932       1.23651200       3.16234393       12      -0.00954396      -0.00775536       0.01594129
In       0.25885863       1.88705258      13.88239273       13      -0.00954396       0.00775536      -0.01594129
In       2.67589206       4.36007657       5.36002440       14       0.00954396      -0.00775536      -0.01594129
In       5.61064275       5.01061716      11.68471226       15       0.00954396       0.00775536       0.01594129
O        4.79831431       5.61186513      13.66230781       16       0.02024884      -0.03572341       0.00258531
O        1.86356362       3.75882859       3.38242885       17       0.02024884       0.03572341      -0.00258531
O        1.07118706       2.48830056      11.90479718       18      -0.02024884      -0.03572341      -0.00258531
O        4.00593775       0.63526402       5.13993948       19      -0.02024884       0.03572341       0.00258531
O        1.07118706       0.63526402       3.38242885       20      -0.02024884       0.03572341      -0.00258531
O        4.00593775       2.48830056      13.66230781       21      -0.02024884      -0.03572341       0.00258531
O        4.79831431       3.75882859       5.13993948       22       0.02024884       0.03572341       0.00258531
O        1.86356362       5.61186513      11.90479718       23       0.02024884      -0.03572341      -0.00258531
O        4.07018049       3.72525179      10.77116979       24       0.00221853       0.04705292       0.09178320
O        1.13542980       5.64544193       6.27356687       25       0.00221853      -0.04705292      -0.09178320
O        1.79932089       0.60168722      14.79593520       26      -0.00221853       0.04705292      -0.09178320
O        4.73407158       2.52187736       2.24880146       27      -0.00221853      -0.04705292       0.09178320
O        1.79932089       2.52187736       6.27356687       28      -0.00221853      -0.04705292      -0.09178320
O        4.73407158       0.60168722      10.77116979       29      -0.00221853       0.04705292       0.09178320
O        4.07018049       5.64544193       2.24880146       30       0.00221853      -0.04705292       0.09178320
O        1.13542980       3.72525179      14.79593520       31       0.00221853       0.04705292      -0.09178320
O        3.70787500       4.14793788      16.33369321       32       0.04898225       0.03455583       0.01089645
O        0.77312432       5.22275585       0.71104345       33       0.04898225      -0.03455583      -0.01089645
O        2.16162637       1.02437330       9.23341178       34      -0.04898225       0.03455583      -0.01089645
O        5.09637706       2.09919127       7.81132488       35      -0.04898225      -0.03455583       0.01089645
O        2.16162637       2.09919127       0.71104345       36      -0.04898225      -0.03455583      -0.01089645
O        5.09637706       1.02437330      16.33369321       37      -0.04898225       0.03455583       0.01089645
O        3.70787500       5.22275585       7.81132488       38       0.04898225      -0.03455583       0.01089645
O        0.77312432       4.14793788       9.23341178       39       0.04898225       0.03455583      -0.01089645
40
Lattice="5.866306704281066 1.923646550720518e-42 0.0 -1.9408296949816848e-42 6.251068963323398 0.0 0.0 0.0 17.04327038330922" Properties=species:S:1:pos:R:3:spacegroup_kinds:I:1:forces:R:3 spacegroup="P 1" unit_cell=conventional occupancy="_JSON {\"0\": {\"In\": 1}, \"1\": {\"In\": 1}, \"2\": {\"In\": 1}, \"3\": {\"In\": 1}, \"4\": {\"In\": 1}, \"5\": {\"In\": 1}, \"6\": {\"In\": 1}, \"7\": {\"In\": 1}, \"8\": {\"In\": 1}, \"9\": {\"In\": 1}, \"10\": {\"In\": 1}, \"11\": {\"In\": 1}, \"12\": {\"In\": 1}, \"13\": {\"In\": 1}, \"14\": {\"In\": 1}, \"15\": {\"In\": 1}, \"16\": {\"O\": 1}, \"17\": {\"O\": 1}, \"18\": {\"O\": 1}, \"19\": {\"O\": 1}, \"20\": {\"O\": 1}, \"21\": {\"O\": 1}, \"22\": {\"O\": 1}, \"23\": {\"O\": 1}, \"24\": {\"O\": 1}, \"25\": {\"O\": 1}, \"26\": {\"O\": 1}, \"27\": {\"O\": 1}, \"28\": {\"O\": 1}, \"29\": {\"O\": 1}, \"30\": {\"O\": 1}, \"31\": {\"O\": 1}, \"32\": {\"O\": 1}, \"33\": {\"O\": 1}, \"34\": {\"O\": 1}, \"35\": {\"O\": 1}, \"36\": {\"O\": 1}, \"37\": {\"O\": 1}, \"38\": {\"O\": 1}, \"39\": {\"O\": 1}}" n_minim_iter=5 energy=-45146.54850675669 stress="0.052691844401240154 -2.050433311586289e-14 -3.751868225431321e-13 -2.050433311586289e-14 0.05279119084277015 2.553379856033826e-13 -3.751868225431321e-13 2.553379856033826e-13 0.0526924511820656" free_energy=-45146.54850675669 pbc="T T T"
In       2.66869441       5.19934212       9.82010914        0      -0.02833108      -0.01892025      -0.01340141
In      -0.26445894       4.17726132       7.22316124        1      -0.02833108       0.01892025       0.01340141
In       3.19761229       2.07380764      15.74479643        2       0.02833108      -0.01892025       0.01340141
In       6.13076564       1.05172684       1.29847395        3       0.02833108       0.01892025      -0.01340141
In       3.19761229       1.05172684       7.22316124        4       0.02833108       0.01892025       0.01340141
In       6.13076564       2.07380764       9.82010914        5       0.02833108      -0.01892025      -0.01340141
In       2.66869441       4.17726132       1.29847395        6      -0.02833108       0.01892025      -0.01340141
In      -0.26445894       5.19934212      15.74479643        7      -0.02833108      -0.01892025       0.01340141
In       2.67472378       5.01466607      13.87941770        8       0.01482778       0.00226534       0.00070939
In       5.60787713       4.36193738       3.16385268        9       0.01482778      -0.00226534      -0.00070939
In       3.19158293       1.88913159      11.68548787       10      -0.01482778       0.00226534      -0.00070939
In       0.25842957       1.23640289       5.35778251       11      -0.01482778      -0.00226534       0.00070939
In       3.19158293       1.23640289       3.16385268       12      -0.01482778      -0.00226534      -0.00070939
In       0.25842957       1.88913159      13.87941770       13      -0.01482778       0.00226534       0.00070939
In       2.67472378       4.36193738       5.35778251       14       0.01482778      -0.00226534       0.00070939
In       5.60787713       5.01466607      11.68548787       15       0.01482778       0.00226534      -0.00070939
O        4.79654629       5.61223565      13.66065922       16       0.01655320      -0.01577133       0.01396087
O        1.86339293       3.76436780       3.38261116       17       0.01655320       0.01577133      -0.01396087
O        1.06976042       2.48670116      11.90424635       18      -0.01655320      -0.01577133      -0.01396087
O        4.00291377       0.63883332       5.13902403       19      -0.01655320       0.01577133       0.01396087
O        1.06976042       0.63883332       3.38261116       20      -0.01655320       0.01577133      -0.01396087
O        4.00291377       2.48670116      13.66065922       21      -0.01655320      -0.01577133       0.01396087
O        4.79654629       3.76436780       5.13902403       22       0.01655320       0.01577133       0.01396087
O        1.86339293       5.61223565      11.90424635       23       0.01655320      -0.01577133      -0.01396087
O        4.06740479       3.73105340      10.77419295       24       0.01034554       0.02881593       0.08213069
O        1.13425144       5.64555005       6.26907743       25       0.01034554      -0.02881593      -0.08213069
O        1.79890192       0.60551892      14.79071262       26      -0.01034554       0.02881593      -0.08213069
O        4.73205527       2.52001557       2.25255776       27      -0.01034554      -0.02881593       0.08213069
O        1.79890192       2.52001557       6.26907743       28      -0.01034554      -0.02881593      -0.08213069
O        4.73205527       0.60551892      10.77419295       29      -0.01034554       0.02881593       0.08213069
O        4.06740479       5.64555005       2.25255776       30       0.01034554      -0.02881593       0.08213069
O        1.13425144       3.73105340      14.79071262       31       0.01034554       0.02881593      -0.08213069
O        3.70561702       4.14875705      16.33403773       32       0.06279906       0.05455033      -0.00077054
O        0.77246367       5.22784640       0.70923265       33       0.06279906      -0.05455033       0.00077054
O        2.16068968       1.02322257       9.23086784       34      -0.06279906       0.05455033       0.00077054
O        5.09384303       2.10231191       7.81240254       35      -0.06279906      -0.05455033      -0.00077054
O        2.16068968       2.10231191       0.70923265       36      -0.06279906      -0.05455033       0.00077054
O        5.09384303       1.02322257      16.33403773       37      -0.06279906       0.05455033      -0.00077054
O        3.70561702       5.22784640       7.81240254       38       0.06279906      -0.05455033      -0.00077054
O        0.77246367       4.14875705       9.23086784       39       0.06279906       0.05455033       0.00077054
40