40
Lattice="5.739603537272074 5.230627041361104e-44 0.0 -5.365366506725804e-44 5.887454092454488 0.0 0.0 0.0 16.568751300768227" Properties=species:S:1:pos:R:3:spacegroup_kinds:I:1:forces:R:3 spacegroup="P 1" unit_cell=conventional occupancy="_JSON {\"0\": {\"In\": 1}, \"1\": {\"In\": 1}, \"2\": {\"In\": 1}, \"3\": {\"In\": 1}, \"4\": {\"In\": 1}, \"5\": {\"In\": 1}, \"6\": {\"In\": 1}, \"7\": {\"In\": 1}, \"8\": {\"In\": 1}, \"9\": {\"In\": 1}, \"10\": {\"In\": 1}, \"11\": {\"In\": 1}, \"12\": {\"In\": 1}, \"13\": {\"In\": 1}, \"14\": {\"In\": 1}, \"15\": {\"In\": 1}, \"16\": {\"O\": 1}, \"17\": {\"O\": 1}, \"18\": {\"O\": 1}, \"19\": {\"O\": 1}, \"20\": {\"O\": 1}, \"21\": {\"O\": 1}, \"22\": {\"O\": 1}, \"23\": {\"O\": 1}, \"24\": {\"O\": 1}, \"25\": {\"O\": 1}, \"26\": {\"O\": 1}, \"27\": {\"O\": 1}, \"28\": {\"O\": 1}, \"29\": {\"O\": 1}, \"30\": {\"O\": 1}, \"31\": {\"O\": 1}, \"32\": {\"O\": 1}, \"33\": {\"O\": 1}, \"34\": {\"O\": 1}, \"35\": {\"O\": 1}, \"36\": {\"O\": 1}, \"37\": {\"O\": 1}, \"38\": {\"O\": 1}, \"39\": {\"O\": 1}}" n_minim_iter=1 energy=-45149.48181754537 stress="0.04076847030263497 -2.0418242662330576e-13 -1.611301521343753e-13 -2.0418242662330576e-13 0.042356573959667784 -7.353222127367612e-14 -1.611301521343753e-13 -7.353222127367612e-14 0.04249327598835538" free_energy=-45149.48181754537 pbc="T T T"
In       2.86352318       4.69299094       9.45327402        0       0.00090609      -0.00267699       0.02787433
In      -0.00627859       4.13819020       7.11547728        1       0.00090609       0.00267699      -0.02787433
In       2.87608036       1.74926389      15.39985293        2      -0.00090609      -0.00267699      -0.02787433
In       5.74588213       1.19446315       1.16889837        3      -0.00090609       0.00267699       0.02787433
In       2.87608036       1.19446315       7.11547728        4      -0.00090609       0.00267699      -0.02787433
In       5.74588213       1.74926389       9.45327402        5      -0.00090609      -0.00267699       0.02787433
In       2.86352318       4.13819020       1.16889837        6       0.00090609       0.00267699       0.02787433
In      -0.00627859       4.69299094      15.39985293        7       0.00090609      -0.00267699      -0.02787433
In       2.84811499       4.38261720      13.55315866        8      -0.01030241      -0.01406290      -0.01798920
In       5.71791676       4.44856394       3.01559264        9      -0.01030241       0.01406290       0.01798920
In       2.89148855       1.43889015      11.29996829       10       0.01030241      -0.01406290       0.01798920
In       0.02168678       1.50483690       5.26878301       11       0.01030241       0.01406290      -0.01798920
In       2.89148855       1.50483690       3.01559264       12       0.01030241       0.01406290       0.01798920
In       0.02168678       1.43889015      13.55315866       13       0.01030241      -0.01406290      -0.01798920
In       2.84811499       4.44856394       5.26878301       14      -0.01030241       0.01406290      -0.01798920
In       5.71791676       4.38261720      11.29996829       15      -0.01030241      -0.01406290       0.01798920
O        4.92921271       5.15480543      13.22518268       16      -0.01039870      -0.04964036       0.00380047
O        2.05941094       3.67637571       3.34356863       17      -0.01039870       0.04964036      -0.00380047
O        0.81039082       2.21107838      11.62794428       18       0.01039870      -0.04964036      -0.00380047
O        3.68019259       0.73264867       4.94080703       19       0.01039870       0.04964036       0.00380047
O        0.81039082       0.73264867       3.34356863       20       0.01039870       0.04964036      -0.00380047
O        3.68019259       2.21107838      13.22518268       21       0.01039870      -0.04964036       0.00380047
O        4.92921271       3.67637571       4.94080703       22      -0.01039870       0.04964036       0.00380047
O        2.05941094       5.15480543      11.62794428       23      -0.01039870      -0.04964036      -0.00380047
O        4.04556221       3.09679298      10.34630722       24      -0.07072744       0.02145365      -0.01607055
O        1.17576044       5.73438815       6.22244408       25      -0.07072744      -0.02145365       0.01607055
O        1.69404133       0.15306594      14.50681973       26       0.07072744       0.02145365       0.01607055
O        4.56384310       2.79066111       2.06193157       27       0.07072744      -0.02145365      -0.01607055
O        1.69404133       2.79066111       6.22244408       28       0.07072744      -0.02145365       0.01607055
O        4.56384310       0.15306594      10.34630722       29       0.07072744       0.02145365      -0.01607055
O        4.04556221       5.73438815       2.06193157       30      -0.07072744      -0.02145365      -0.01607055
O        1.17576044       3.09679298      14.50681973       31      -0.07072744       0.02145365       0.01607055
O        3.71382921       3.88552862      15.71119224       32       0.03261082       0.02360125       0.03205561
O        0.84402744       4.94565252       0.85755906       33       0.03261082      -0.02360125      -0.03205561
O        2.02577433       0.94180157       9.14193471       34      -0.03261082       0.02360125      -0.03205561
O        4.89557610       2.00192548       7.42681659       35      -0.03261082      -0.02360125       0.03205561
O        2.02577433       2.00192548       0.85755906       36      -0.03261082      -0.02360125      -0.03205561
O        4.89557610       0.94180157      15.71119224       37      -0.03261082       0.02360125       0.03205561
O        3.71382921       4.94565252       7.42681659       38       0.03261082      -0.02360125       0.03205561
O        0.84402744       3.88552862       9.14193471       39       0.03261082       0.02360125      -0.03205561
40
Lattice="5.749857336056031 6.388494306473551e-44 0.0 -5.164489485236282e-44 5.882852045488923 0.0 0.0 0.0 16.552142336381536" Properties=species:S:1:pos:R:3:spacegroup_kinds:I:1:forces:R:3 spacegroup="P 1" unit_cell=conventional occupancy="_JSON {\"0\": {\"In\": 1}, \"1\": {\"In\": 1}, \"2\": {\"In\": 1}, \"3\": {\"In\": 1}, \"4\": {\"In\": 1}, \"5\": {\"In\": 1}, \"6\": {\"In\": 1}, \"7\": {\"In\": 1}, \"8\": {\"In\": 1}, \"9\": {\"In\": 1}, \"10\": {\"In\": 1}, \"11\": {\"In\": 1}, \"12\": {\"In\": 1}, \"13\": {\"In\": 1}, \"14\": {\"In\": 1}, \"15\": {\"In\": 1}, \"16\": {\"O\": 1}, \"17\": {\"O\": 1}, \"18\": {\"O\": 1}, \"19\": {\"O\": 1}, \"20\": {\"O\": 1}, \"21\": {\"O\": 1}, \"22\": {\"O\": 1}, \"23\": {\"O\": 1}, \"24\": {\"O\": 1}, \"25\": {\"O\": 1}, \"26\": {\"O\": 1}, \"27\": {\"O\": 1}, \"28\": {\"O\": 1}, \"29\": {\"O\": 1}, \"30\": {\"O\": 1}, \"31\": {\"O\": 1}, \"32\": {\"O\": 1}, \"33\": {\"O\": 1}, \"34\": {\"O\": 1}, \"35\": {\"O\": 1}, \"36\": {\"O\": 1}, \"37\": {\"O\": 1}, \"38\": {\"O\": 1}, \"39\": {\"O\": 1}}" n_minim_iter=2 energy=-45149.48278454166 stress="0.04194627771454579 2.510277557585388e-13 -5.879457535394867e-13 2.510277557585388e-13 0.041772799528556497 -5.816190632159435e-13 -5.879457535394867e-13 -5.816190632159435e-13 0.0415503141995645" free_energy=-45149.48278454166 pbc="T T T"
In       2.86864148       4.68931485       9.44387819        0      -0.01121262      -0.00938855       0.02826000
In      -0.00628719       4.13496322       7.10826415        1      -0.01121262       0.00938855      -0.02826000
In       2.88121586       1.74788882      15.38433531        2       0.01121262      -0.00938855      -0.02826000
In       5.75614453       1.19353720       1.16780702        3       0.01121262       0.00938855       0.02826000
In       2.88121586       1.19353720       7.10826415        4       0.01121262       0.00938855      -0.02826000
In       5.75614453       1.74788882       9.44387819        5       0.01121262      -0.00938855       0.02826000
In       2.86864148       4.13496322       1.16780702        6      -0.01121262       0.00938855       0.02826000
In      -0.00628719       4.68931485      15.38433531        7      -0.01121262      -0.00938855      -0.02826000
In       2.85317335       4.37915087      13.53952073        8      -0.00478038      -0.01153689      -0.01542337
In       5.72810202       4.44512720       3.01262161        9      -0.00478038       0.01153689       0.01542337
In       2.89668399       1.43772485      11.28869278       10       0.00478038      -0.01153689       0.01542337
In       0.02175532       1.50370118       5.26344956       11       0.00478038       0.01153689      -0.01542337
In       2.89668399       1.50370118       3.01262161       12       0.00478038       0.01153689       0.01542337
In       0.02175532       1.43772485      13.53952073       13       0.00478038      -0.01153689      -0.01542337
In       2.85317335       4.44512720       5.26344956       14      -0.00478038       0.01153689      -0.01542337
In       5.72810202       4.37915087      11.28869278       15      -0.00478038      -0.01153689       0.01542337
O        4.93798868       5.15063287      13.21193636       16      -0.01058462      -0.04871410       0.01106070
O        2.06306001       3.67364519       3.34020598       17      -0.01058462       0.04871410      -0.01106070
O        0.81186866       2.20920685      11.61627715       18       0.01058462      -0.04871410      -0.01106070
O        3.68679733       0.73221917       4.93586519       19       0.01058462       0.04871410       0.01106070
O        0.81186866       0.73221917       3.34020598       20       0.01058462       0.04871410      -0.01106070
O        3.68679733       2.20920685      13.21193636       21       0.01058462      -0.04871410       0.01106070
O        4.93798868       3.67364519       4.93586519       22      -0.01058462       0.04871410       0.01106070
O        2.06306001       5.15063287      11.61627715       23      -0.01058462      -0.04871410      -0.01106070
O        4.05258506       3.09443420      10.33588946       24      -0.07096798       0.02242834      -0.01680925
O        1.17765639       5.72984387       6.21625288       25      -0.07096798      -0.02242834       0.01680925
O        1.69727228       0.15300818      14.49232405       26       0.07096798       0.02242834       0.01680925
O        4.57220095       2.78841785       2.05981829       27       0.07096798      -0.02242834      -0.01680925
O        1.69727228       2.78841785       6.21625288       28       0.07096798      -0.02242834       0.01680925
O        4.57220095       0.15300818      10.33588946       29       0.07096798       0.02242834      -0.01680925
O        4.05258506       5.72984387       2.05981829       30      -0.07096798      -0.02242834      -0.01680925
O        1.17765639       3.09443420      14.49232405       31      -0.07096798       0.02242834       0.01680925
O        3.72055827       3.88255949      15.69553536       32       0.03527205       0.02822509       0.02451646
O        0.84562960       4.94171857       0.85660697       33       0.03527205      -0.02822509      -0.02451646
O        2.02929906       0.94113347       9.13267814       34      -0.03527205       0.02822509      -0.02451646
O        4.90422773       2.00029255       7.41946419       35      -0.03527205      -0.02822509       0.02451646
O        2.02929906       2.00029255       0.85660697       36      -0.03527205      -0.02822509      -0.02451646
O        4.90422773       0.94113347      15.69553536       37      -0.03527205       0.02822509       0.02451646
O        3.72055827       4.94171857       7.41946419       38       0.03527205      -0.02822509       0.02451646
O        0.84562960       3.88255949       9.13267814       39       0.03527205       0.02822509      -0.02451646
40
Lattice="5.751546012940331 -2.751370815643429e-44 0.0 4.2197676345302874e-44 5.873219789088703 0.0 0.0 0.0 16.574420600386297" Properties=species:S:1:pos:R:3:spacegroup_kinds:I:1:forces:R:3 spacegroup="P 1" unit_cell=conventional occupancy="_JSON {\"0\": {\"In\": 1}, \"1\": {\"In\": 1}, \"2\": {\"In\": 1}, \"3\": {\"In\": 1}, \"4\": {\"In\": 1}, \"5\": {\"In\": 1}, \"6\": {\"In\": 1}, \"7\": {\"In\": 1}, \"8\": {\"In\": 1}, \"9\": {\"In\": 1}, \"10\": {\"In\": 1}, \"11\": {\"In\": 1}, \"12\": {\"In\": 1}, \"13\": {\"In\": 1}, \"14\": {\"In\": 1}, \"15\": {\"In\": 1}, \"16\": {\"O\": 1}, \"17\": {\"O\": 1}, \"18\": {\"O\": 1}, \"19\": {\"O\": 1}, \"20\": {\"O\": 1}, \"21\": {\"O\": 1}, \"22\": {\"O\": 1}, \"23\": {\"O\": 1}, \"24\": {\"O\": 1}, \"25\": {\"O\": 1}, \"26\": {\"O\": 1}, \"27\": {\"O\": 1}, \"28\": {\"O\": 1}, \"29\": {\"O\": 1}, \"30\": {\"O\": 1}, \"31\": {\"O\": 1}, \"32\": {\"O\": 1}, \"33\": {\"O\": 1}, \"34\": {\"O\": 1}, \"35\": {\"O\": 1}, \"36\": {\"O\": 1}, \"37\": {\"O\": 1}, \"38\": {\"O\": 1}, \"39\": {\"O\": 1}}" n_minim_iter=3 energy=-45149.48445910763 stress="0.04171523358239366 -5.957414107156669e-13 4.1660535970910844e-13 -5.957414107156669e-13 0.04029593026080698 -7.814260189851913e-13 4.1660535970910844e-13 -7.814260189851913e-13 0.04254906679568092" free_energy=-45149.48445910763 pbc="T T T"
In       2.86918351       4.68136942       9.45749785        0      -0.01111278       0.00057147       0.00399323
In      -0.00658950       4.12846026       7.11692275        1      -0.01111278      -0.00057147      -0.00399323
In       2.88236250       1.74475953      15.40413305        2       0.01111278       0.00057147      -0.00399323
In       5.75813551       1.19185037       1.17028755        3       0.01111278      -0.00057147       0.00399323
In       2.88236250       1.19185037       7.11692275        4       0.01111278      -0.00057147      -0.00399323
In       5.75813551       1.74475953       9.45749785        5       0.01111278       0.00057147       0.00399323
In       2.86918351       4.12846026       1.17028755        6      -0.01111278      -0.00057147       0.00399323
In      -0.00658950       4.68136942      15.40413305        7      -0.01111278       0.00057147      -0.00399323
In       2.85382821       4.37159692      13.55723396        8      -0.00786931      -0.00593552      -0.01788321
In       5.72960121       4.43823276       3.01718664        9      -0.00786931       0.00593552       0.01788321
In       2.89771781       1.43498703      11.30439694       10       0.00786931      -0.00593552       0.01788321
In       0.02194480       1.50162287       5.27002366       11       0.00786931       0.00593552      -0.01788321
In       2.89771781       1.50162287       3.01718664       12       0.00786931       0.00593552       0.01788321
In       0.02194480       1.43498703      13.55723396       13       0.00786931      -0.00593552      -0.01788321
In       2.85382821       4.43823276       5.27002366       14      -0.00786931       0.00593552      -0.01788321
In       5.72960121       4.37159692      11.30439694       15      -0.00786931      -0.00593552       0.01788321
O        4.93909738       5.14062896      13.23003804       16      -0.00015173      -0.04019806       0.00597591
O        2.06332437       3.66920073       3.34438256       17      -0.00015173       0.04019806      -0.00597591
O        0.81244863       2.20401906      11.63159286       18       0.00015173      -0.04019806      -0.00597591
O        3.68822164       0.73259083       4.94282774       19       0.00015173       0.04019806       0.00597591
O        0.81244863       0.73259083       3.34438256       20       0.00015173       0.04019806      -0.00597591
O        3.68822164       2.20401906      13.23003804       21       0.00015173      -0.04019806       0.00597591
O        4.93909738       3.66920073       4.94282774       22      -0.00015173       0.04019806       0.00597591
O        2.06332437       5.14062896      11.63159286       23      -0.00015173      -0.04019806      -0.00597591
O        4.05148015       3.09008346      10.34926309       24      -0.04316539       0.00588140      -0.00194031
O        1.17570714       5.71974622       6.22515751       25      -0.04316539      -0.00588140       0.00194031
O        1.70006587       0.15347357      14.51236781       26       0.04316539       0.00588140       0.00194031
O        4.57583887       2.78313633       2.06205279       27       0.04316539      -0.00588140      -0.00194031
O        1.70006587       2.78313633       6.22515751       28       0.04316539      -0.00588140       0.00194031
O        4.57583887       0.15347357      10.34926309       29       0.04316539       0.00588140      -0.00194031
O        4.05148015       5.71974622       2.06205279       30      -0.04316539      -0.00588140      -0.00194031
O        1.17570714       3.09008346      14.51236781       31      -0.04316539       0.00588140       0.00194031
O        3.72277859       3.87708596      15.71748947       32       0.01325767       0.01952743       0.02405444
O        0.84700558       4.93274372       0.85693113       33       0.01325767      -0.01952743      -0.02405444
O        2.02876742       0.94047606       9.14414143       34      -0.01325767       0.01952743      -0.02405444
O        4.90454043       1.99613383       7.43027917       35      -0.01325767      -0.01952743       0.02405444
O        2.02876742       1.99613383       0.85693113       36      -0.01325767      -0.01952743      -0.02405444
O        4.90454043       0.94047606      15.71748947       37      -0.01325767       0.01952743       0.02405444
O        3.72277859       4.93274372       7.43027917       38       0.01325767      -0.01952743       0.02405444
O        0.84700558       3.87708596       9.14414143       39       0.01325767       0.01952743      -0.02405444
40
Lattice="5.749808635764109 -1.18867401790351e-43 0.0 -5.146545109276129e-44 5.885083845508554 0.0 0.0 0.0 16.54600541015231" Properties=species:S:1:pos:R:3:spacegroup_kinds:I:1:forces:R:3 spacegroup="P 1" unit_cell=conventional occupancy="_JSON {\"0\": {\"In\": 1}, \"1\": {\"In\": 1}, \"2\": {\"In\": 1}, \"3\": {\"In\": 1}, \"4\": {\"In\": 1}, \"5\": {\"In\": 1}, \"6\": {\"In\": 1}, \"7\": {\"In\": 1}, \"8\": {\"In\": 1}, \"9\": {\"In\": 1}, \"10\": {\"In\": 1}, \"11\": {\"In\": 1}, \"12\": {\"In\": 1}, \"13\": {\"In\": 1}, \"14\": {\"In\": 1}, \"15\": {\"In\": 1}, \"16\": {\"O\": 1}, \"17\": {\"O\": 1}, \"18\": {\"O\": 1}, \"19\": {\"O\": 1}, \"20\": {\"O\": 1}, \"21\": {\"O\": 1}, \"22\": {\"O\": 1}, \"23\": {\"O\": 1}, \"24\": {\"O\": 1}, \"25\": {\"O\": 1}, \"26\": {\"O\": 1}, \"27\": {\"O\": 1}, \"28\": {\"O\": 1}, \"29\": {\"O\": 1}, \"30\": {\"O\": 1}, \"31\": {\"O\": 1}, \"32\": {\"O\": 1}, \"33\": {\"O\": 1}, \"34\": {\"O\": 1}, \"35\": {\"O\": 1}, \"36\": {\"O\": 1}, \"37\": {\"O\": 1}, \"38\": {\"O\": 1}, \"39\": {\"O\": 1}}" n_minim_iter=4 energy=-45149.4877212654 stress="0.040938032400659435 -4.624289012402943e-13 1.5886451169219655e-14 -4.624289012402943e-13 0.041006592962543484 6.442480029515585e-13 1.5886451169219655e-14 6.442480029515585e-13 0.04104171957032204" free_energy=-45149.4877212654 pbc="T T T"
In       2.86765724       4.69031671       9.44305092        0      -0.01541442       0.02731099      -0.01389899
In      -0.00724708       4.13730906       7.10295449        1      -0.01541442      -0.02731099       0.01389899
In       2.88215140       1.74777478      15.37595720        2       0.01541442       0.02731099       0.01389899
In       5.75705572       1.19476714       1.17004821        3       0.01541442      -0.02731099      -0.01389899
In       2.88215140       1.19476714       7.10295449        4       0.01541442      -0.02731099       0.01389899
In       5.75705572       1.74777478       9.44305092        5       0.01541442       0.02731099      -0.01389899
In       2.86765724       4.13730906       1.17004821        6      -0.01541442      -0.02731099      -0.01389899
In      -0.00724708       4.69031671      15.37595720        7      -0.01541442       0.02731099       0.01389899
In       2.85255676       4.37964710      13.53288234        8      -0.01074528      -0.02474963       0.00641443
In       5.72746108       4.44797867       3.01312307        9      -0.01074528       0.02474963      -0.00641443
In       2.89725187       1.43710518      11.28612578       10       0.01074528      -0.02474963      -0.00641443
In       0.02234755       1.50543675       5.25987963       11       0.01074528       0.02474963       0.00641443
In       2.89725187       1.50543675       3.01312307       12       0.01074528       0.02474963      -0.00641443
In       0.02234755       1.43710518      13.53288234       13       0.01074528      -0.02474963       0.00641443
In       2.85255676       4.44797867       5.25987963       14      -0.01074528       0.02474963       0.00641443
In       5.72746108       4.37964710      11.28612578       15      -0.01074528      -0.02474963      -0.00641443
O        4.93695047       5.14769919      13.20801175       16       0.00594456      -0.02037316       0.01079559
O        2.06204616       3.67992658       3.33799366       17       0.00594456       0.02037316      -0.01079559
O        0.81285816       2.20515727      11.61099637       18      -0.00594456      -0.02037316      -0.01079559
O        3.68776248       0.73738465       4.93500904       19      -0.00594456       0.02037316       0.01079559
O        0.81285816       0.73738465       3.33799366       20      -0.00594456       0.02037316      -0.01079559
O        3.68776248       2.20515727      13.20801175       21      -0.00594456      -0.02037316       0.01079559
O        4.93695047       3.67992658       4.93500904       22       0.00594456       0.02037316       0.01079559
O        2.06204616       5.14769919      11.61099637       23       0.00594456      -0.02037316      -0.01079559
O        4.04553789       3.09774319      10.33047751       24      -0.00102162      -0.00498561       0.01219745
O        1.17063357       5.72988258       6.21552790       25      -0.00102162       0.00498561      -0.01219745
O        1.70427074       0.15520127      14.48853061       26       0.00102162      -0.00498561      -0.01219745
O        4.57917506       2.78734065       2.05747480       27       0.00102162       0.00498561       0.01219745
O        1.70427074       2.78734065       6.21552790       28       0.00102162       0.00498561      -0.01219745
O        4.57917506       0.15520127      10.33047751       29       0.00102162      -0.00498561       0.01219745
O        4.04553789       5.72988258       2.05747480       30      -0.00102162       0.00498561       0.01219745
O        1.17063357       3.09774319      14.48853061       31      -0.00102162      -0.00498561      -0.01219745
O        3.72391259       3.88675936      15.69230739       32      -0.01442341      -0.00809726       0.00773068
O        0.84900827       4.94086641       0.85369802       33      -0.01442341       0.00809726      -0.00773068
O        2.02589605       0.94421744       9.12670072       34       0.01442341      -0.00809726      -0.00773068
O        4.90080036       1.99832448       7.41930469       35       0.01442341       0.00809726       0.00773068
O        2.02589605       1.99832448       0.85369802       36       0.01442341       0.00809726      -0.00773068
O        4.90080036       0.94421744      15.69230739       37       0.01442341      -0.00809726       0.00773068
O        3.72391259       4.94086641       7.41930469       38      -0.01442341       0.00809726       0.00773068
O        0.84900827       3.88675936       9.12670072       39      -0.01442341      -0.00809726      -0.00773068
40
Lattice="5.753402027246244 3.686516167250274e-43 0.0 -8.274099085423562e-44 5.886879109262934 0.0 0.0 0.0 16.53062858126227" Properties=species:S:1:pos:R:3:spacegroup_kinds:I:1:forces:R:3 spacegroup="P 1" unit_cell=conventional occupancy="_JSON {\"0\": {\"In\": 1}, \"1\": {\"In\": 1}, \"2\": {\"In\": 1}, \"3\": {\"In\": 1}, \"4\": {\"In\": 1}, \"5\": {\"In\": 1}, \"6\": {\"In\": 1}, \"7\": {\"In\": 1}, \"8\": {\"In\": 1}, \"9\": {\"In\": 1}, \"10\": {\"In\": 1}, \"11\": {\"In\": 1}, \"12\": {\"In\": 1}, \"13\": {\"In\": 1}, \"14\": {\"In\": 1}, \"15\": {\"In\": 1}, \"16\": {\"O\": 1}, \"17\": {\"O\": 1}, \"18\": {\"O\": 1}, \"19\": {\"O\": 1}, \"20\": {\"O\": 1}, \"21\": {\"O\": 1}, \"22\": {\"O\": 1}, \"23\": {\"O\": 1}, \"24\": {\"O\": 1}, \"25\": {\"O\": 1}, \"26\": {\"O\": 1}, \"27\": {\"O\": 1}, \"28\": {\"O\": 1}, \"29\": {\"O\": 1}, \"30\": {\"O\": 1}, \"31\": {\"O\": 1}, \"32\": {\"O\": 1}, \"33\": {\"O\": 1}, \"34\": {\"O\": 1}, \"35\": {\"O\": 1}, \"36\": {\"O\": 1}, \"37\": {\"O\": 1}, \"38\": {\"O\": 1}, \"39\": {\"O\": 1}}" n_minim_iter=5 energy=-45149.48958670656 stress="0.040896661659906935 3.268054657794156e-14 -5.568799203904093e-13 3.268054657794156e-14 0.0404146500749283 3.091697334666493e-13 -5.568799203904093e-13 3.091697334666493e-13 0.03990373201175023" free_energy=-45149.48958670656 pbc="T T T"
In       2.86654674       4.69545604       9.43352991        0      -0.00351084      -0.00521321       0.00571219
In      -0.01015428       4.13486262       7.09709867        1      -0.00351084       0.00521321      -0.00571219
In       2.88685529       1.75201649      15.36241296        2       0.00351084      -0.00521321      -0.00571219
In       5.76355630       1.19142307       1.16821562        3       0.00351084       0.00521321       0.00571219
In       2.88685529       1.19142307       7.09709867        4       0.00351084       0.00521321      -0.00571219
In       5.76355630       1.75201649       9.43352991        5       0.00351084      -0.00521321       0.00571219
In       2.86654674       4.13486262       1.16821562        6      -0.00351084       0.00521321       0.00571219
In      -0.01015428       4.69545604      15.36241296        7      -0.00351084      -0.00521321      -0.00571219
In       2.85243894       4.37665479      13.52048268        8      -0.00737591      -0.01691389      -0.00548694
In       5.72913996       4.45366387       3.01014590        9      -0.00737591       0.01691389       0.00548694
In       2.90096308       1.43321524      11.27546019       10       0.00737591      -0.01691389       0.00548694
In       0.02426207       1.51022432       5.25516839       11       0.00737591       0.01691389      -0.00548694
In       2.90096308       1.51022432       3.01014590       12       0.00737591       0.01691389       0.00548694
In       0.02426207       1.43321524      13.52048268       13       0.00737591      -0.01691389      -0.00548694
In       2.85243894       4.45366387       5.25516839       14      -0.00737591       0.01691389      -0.00548694
In       5.72913996       4.37665479      11.27546019       15      -0.00737591      -0.01691389       0.00548694
O        4.94043426       5.14372844      13.19790334       16      -0.00249104      -0.00591412       0.00946960
O        2.06373325       3.68659022       3.33272524       17      -0.00249104       0.00591412      -0.00946960
O        0.81296776       2.20028889      11.59803953       18       0.00249104      -0.00591412      -0.00946960
O        3.68966878       0.74315067       4.93258905       19       0.00249104       0.00591412       0.00946960
O        0.81296776       0.74315067       3.33272524       20       0.00249104       0.00591412      -0.00946960
O        3.68966878       2.20028889      13.19790334       21       0.00249104      -0.00591412       0.00946960
O        4.94043426       3.68659022       4.93258905       22      -0.00249104       0.00591412       0.00946960
O        2.06373325       5.14372844      11.59803953       23      -0.00249104      -0.00591412      -0.00946960
O        4.04437362       3.09901854      10.32191690       24       0.01096377       0.00549889      -0.00208917
O        1.16767260       5.73130012       6.20871169       25       0.01096377      -0.00549889       0.00208917
O        1.70902841       0.15557899      14.47402598       26      -0.01096377       0.00549889       0.00208917
O        4.58572942       2.78786056       2.05660261       27      -0.01096377      -0.00549889      -0.00208917
O        1.70902841       2.78786056       6.20871169       28      -0.01096377      -0.00549889       0.00208917
O        4.58572942       0.15557899      10.32191690       29      -0.01096377       0.00549889      -0.00208917
O        4.04437362       5.73130012       2.05660261       30       0.01096377      -0.00549889      -0.00208917
O        1.16767260       3.09901854      14.47402598       31       0.01096377       0.00549889       0.00208917
O        3.72576949       3.88811592      15.68014632       32      -0.01693357      -0.01353378      -0.01463215
O        0.84906848       4.94220274       0.85048226       33      -0.01693357       0.01353378       0.01463215
O        2.02763254       0.94467637       9.11579656       34       0.01693357      -0.01353378       0.01463215
O        4.90433355       1.99876319       7.41483203       35       0.01693357       0.01353378      -0.01463215
O        2.02763254       1.99876319       0.85048226       36       0.01693357       0.01353378       0.01463215
O        4.90433355       0.94467637      15.68014632       37       0.01693357      -0.01353378      -0.01463215
O        3.72576949       4.94220274       7.41483203       38      -0.01693357       0.01353378      -0.01463215
O        0.84906848       3.88811592       9.11579656       39      -0.01693357      -0.01353378       0.01463215
40