40
Lattice="5.686572011280763 -7.144702451613165e-43 0.0 7.349038183028916e-43 5.84920577511386 0.0 0.0 0.0 16.441165422911002" Properties=species:S:1:pos:R:3:spacegroup_kinds:I:1:forces:R:3 spacegroup="P 1" unit_cell=conventional occupancy="_JSON {\"0\": {\"In\": 1}, \"1\": {\"In\": 1}, \"2\": {\"In\": 1}, \"3\": {\"In\": 1}, \"4\": {\"In\": 1}, \"5\": {\"In\": 1}, \"6\": {\"In\": 1}, \"7\": {\"In\": 1}, \"8\": {\"In\": 1}, \"9\": {\"In\": 1}, \"10\": {\"In\": 1}, \"11\": {\"In\": 1}, \"12\": {\"In\": 1}, \"13\": {\"In\": 1}, \"14\": {\"In\": 1}, \"15\": {\"In\": 1}, \"16\": {\"O\": 1}, \"17\": {\"O\": 1}, \"18\": {\"O\": 1}, \"19\": {\"O\": 1}, \"20\": {\"O\": 1}, \"21\": {\"O\": 1}, \"22\": {\"O\": 1}, \"23\": {\"O\": 1}, \"24\": {\"O\": 1}, \"25\": {\"O\": 1}, \"26\": {\"O\": 1}, \"27\": {\"O\": 1}, \"28\": {\"O\": 1}, \"29\": {\"O\": 1}, \"30\": {\"O\": 1}, \"31\": {\"O\": 1}, \"32\": {\"O\": 1}, \"33\": {\"O\": 1}, \"34\": {\"O\": 1}, \"35\": {\"O\": 1}, \"36\": {\"O\": 1}, \"37\": {\"O\": 1}, \"38\": {\"O\": 1}, \"39\": {\"O\": 1}}" n_minim_iter=1 energy=-45149.92095926966 stress="0.027621672963297057 1.297763302188562e-13 2.839001364871208e-13 1.297763302188562e-13 0.03029412793276232 -1.9153084243142652e-13 2.839001364871208e-13 -1.9153084243142652e-13 0.029536422268078264" free_energy=-45149.92095926966 pbc="T T T"
In       2.83190778       4.68442386       9.38539489        0       0.01090155      -0.03588314       0.00824020
In      -0.01137822       4.08938480       7.05577053        1       0.01090155       0.03588314      -0.00824020
In       2.85466423       1.75982098      15.27635325        2      -0.01090155      -0.03588314      -0.00824020
In       5.69795023       1.16478191       1.16481218        3      -0.01090155       0.03588314       0.00824020
In       2.85466423       1.16478191       7.05577053        4      -0.01090155       0.03588314      -0.00824020
In       5.69795023       1.75982098       9.38539489        5      -0.01090155      -0.03588314       0.00824020
In       2.83190778       4.08938480       1.16481218        6       0.01090155       0.03588314       0.00824020
In      -0.01137822       4.68442386      15.27635325        7       0.01090155      -0.03588314      -0.00824020
In       2.82170963       4.38414626      13.45176494        8      -0.01669715       0.00293768      -0.01952055
In       5.66499564       4.38966240       2.98940048        9      -0.01669715      -0.00293768       0.01952055
In       2.86486238       1.45954337      11.20998319       10       0.01669715       0.00293768       0.01952055
In       0.02157638       1.46505951       5.23118223       11       0.01669715      -0.00293768      -0.01952055
In       2.86486238       1.46505951       2.98940048       12       0.01669715      -0.00293768       0.01952055
In       0.02157638       1.45954337      13.45176494       13       0.01669715       0.00293768      -0.01952055
In       2.82170963       4.38966240       5.23118223       14      -0.01669715      -0.00293768      -0.01952055
In       5.66499564       4.38414626      11.20998319       15      -0.01669715       0.00293768       0.01952055
O        4.88168578       5.16174558      13.12376270       16      -0.00753386      -0.05291084      -0.01217815
O        2.03839978       3.61206308       3.31740272       17      -0.00753386       0.05291084       0.01217815
O        0.80488623       2.23714270      11.53798543       18       0.00753386      -0.05291084       0.01217815
O        3.64817223       0.68746019       4.90317999       19       0.00753386       0.05291084      -0.01217815
O        0.80488623       0.68746019       3.31740272       20       0.00753386       0.05291084       0.01217815
O        3.64817223       2.23714270      13.12376270       21       0.00753386      -0.05291084      -0.01217815
O        4.88168578       3.61206308       4.90317999       22      -0.00753386       0.05291084      -0.01217815
O        2.03839978       5.16174558      11.53798543       23      -0.00753386      -0.05291084       0.01217815
O        4.01339185       3.09916576      10.26592055       24      -0.06614451       0.00857310      -0.00668938
O        1.17010584       5.67464290       6.17524488       25      -0.06614451      -0.00857310       0.00668938
O        1.67318016       0.17456287      14.39582759       26       0.06614451       0.00857310       0.00668938
O        4.51646617       2.75004002       2.04533784       27       0.06614451      -0.00857310      -0.00668938
O        1.67318016       2.75004002       6.17524488       28       0.06614451      -0.00857310       0.00668938
O        4.51646617       0.17456287      10.26592055       29       0.06614451       0.00857310      -0.00668938
O        4.01339185       5.67464290       2.04533784       30      -0.06614451      -0.00857310      -0.00668938
O        1.17010584       3.09916576      14.39582759       31      -0.06614451       0.00857310       0.00668938
O        3.67325403       3.87565822      15.59133987       32       0.04001174       0.01005083       0.01283328
O        0.82996803       4.89815045       0.84982555       33       0.04001174      -0.01005083      -0.01283328
O        2.01331798       0.95105533       9.07040826       34      -0.04001174       0.01005083      -0.01283328
O        4.85660399       1.97354756       7.37075716       35      -0.04001174      -0.01005083       0.01283328
O        2.01331798       1.97354756       0.84982555       36      -0.04001174      -0.01005083      -0.01283328
O        4.85660399       0.95105533      15.59133987       37      -0.04001174       0.01005083       0.01283328
O        3.67325403       4.89815045       7.37075716       38       0.04001174      -0.01005083       0.01283328
O        0.82996803       3.87565822       9.07040826       39       0.04001174       0.01005083      -0.01283328
40
Lattice="5.69950428524104 -7.1260067990490376e-43 0.0 7.469028785555708e-43 5.839278604911659 0.0 0.0 0.0 16.431747810036384" Properties=species:S:1:pos:R:3:spacegroup_kinds:I:1:forces:R:3 spacegroup="P 1" unit_cell=conventional occupancy="_JSON {\"0\": {\"In\": 1}, \"1\": {\"In\": 1}, \"2\": {\"In\": 1}, \"3\": {\"In\": 1}, \"4\": {\"In\": 1}, \"5\": {\"In\": 1}, \"6\": {\"In\": 1}, \"7\": {\"In\": 1}, \"8\": {\"In\": 1}, \"9\": {\"In\": 1}, \"10\": {\"In\": 1}, \"11\": {\"In\": 1}, \"12\": {\"In\": 1}, \"13\": {\"In\": 1}, \"14\": {\"In\": 1}, \"15\": {\"In\": 1}, \"16\": {\"O\": 1}, \"17\": {\"O\": 1}, \"18\": {\"O\": 1}, \"19\": {\"O\": 1}, \"20\": {\"O\": 1}, \"21\": {\"O\": 1}, \"22\": {\"O\": 1}, \"23\": {\"O\": 1}, \"24\": {\"O\": 1}, \"25\": {\"O\": 1}, \"26\": {\"O\": 1}, \"27\": {\"O\": 1}, \"28\": {\"O\": 1}, \"29\": {\"O\": 1}, \"30\": {\"O\": 1}, \"31\": {\"O\": 1}, \"32\": {\"O\": 1}, \"33\": {\"O\": 1}, \"34\": {\"O\": 1}, \"35\": {\"O\": 1}, \"36\": {\"O\": 1}, \"37\": {\"O\": 1}, \"38\": {\"O\": 1}, \"39\": {\"O\": 1}}" n_minim_iter=2 energy=-45149.92263645836 stress="0.029047322558239823 -1.6058034831648978e-13 -1.2424955052717175e-13 -1.6058034831648978e-13 0.028898428748841486 3.40911612133161e-13 -1.2424955052717175e-13 3.40911612133161e-13 0.0287562049686528" free_energy=-45149.92263645836 pbc="T T T"
In       2.83837773       4.67637623       9.38004124        0      -0.00279516      -0.04522448       0.00486464
In      -0.01137442       4.08254168       7.05170657        1      -0.00279516       0.04522448      -0.00486464
In       2.86112656       1.75673693      15.26758047        2       0.00279516      -0.04522448      -0.00486464
In       5.71087870       1.16290238       1.16416734        3       0.00279516       0.04522448       0.00486464
In       2.86112656       1.16290238       7.05170657        4       0.00279516       0.04522448      -0.00486464
In       5.71087870       1.75673693       9.38004124        5       0.00279516      -0.04522448       0.00486464
In       2.83837773       4.08254168       1.16416734        6      -0.00279516       0.04522448       0.00486464
In      -0.01137442       4.67637623      15.26758047        7      -0.00279516      -0.04522448      -0.00486464
In       2.82808124       4.37671353      13.44400668        8      -0.00699607       0.01001174      -0.02188753
In       5.67783338       4.38220438       2.98774113        9      -0.00699607      -0.01001174       0.02188753
In       2.87142305       1.45707423      11.20361504       10       0.00699607       0.01001174       0.02188753
In       0.02167091       1.46256507       5.22813277       11       0.00699607      -0.01001174      -0.02188753
In       2.87142305       1.46256507       2.98774113       12       0.00699607      -0.01001174       0.02188753
In       0.02167091       1.45707423      13.44400668       13       0.00699607       0.01001174      -0.02188753
In       2.82808124       4.38220438       5.22813277       14      -0.00699607      -0.01001174      -0.02188753
In       5.67783338       4.37671353      11.20361504       15      -0.00699607       0.01001174       0.02188753
O        4.89276709       5.15284167      13.11621226       16      -0.00604954      -0.05330043      -0.00628708
O        2.04301495       3.60607624       3.31553555       17      -0.00604954       0.05330043       0.00628708
O        0.80673720       2.23320236      11.53140946       18       0.00604954      -0.05330043       0.00628708
O        3.65648934       0.68643694       4.90033835       19       0.00604954       0.05330043      -0.00628708
O        0.80673720       0.68643694       3.31553555       20       0.00604954       0.05330043       0.00628708
O        3.65648934       2.23320236      13.11621226       21       0.00604954      -0.05330043      -0.00628708
O        4.89276709       3.60607624       4.90033835       22      -0.00604954       0.05330043      -0.00628708
O        2.04301495       5.15284167      11.53140946       23      -0.00604954      -0.05330043       0.00628708
O        4.02233892       3.09392916      10.26002200       24      -0.06194748       0.00779943      -0.00538129
O        1.17258677       5.66498875       6.17172581       25      -0.06194748      -0.00779943       0.00538129
O        1.67716537       0.17428986      14.38759972       26       0.06194748       0.00779943       0.00538129
O        4.52691751       2.74534944       2.04414809       27       0.06194748      -0.00779943      -0.00538129
O        1.67716537       2.74534944       6.17172581       28       0.06194748      -0.00779943       0.00538129
O        4.52691751       0.17428986      10.26002200       29       0.06194748       0.00779943      -0.00538129
O        4.02233892       5.66498875       2.04414809       30      -0.06194748      -0.00779943      -0.00538129
O        1.17258677       3.09392916      14.38759972       31      -0.06194748       0.00779943       0.00538129
O        3.68171661       3.86910777      15.58244389       32       0.04360092       0.01955357       0.00541834
O        0.83196446       4.88981013       0.84930392       33       0.04360092      -0.01955357      -0.00541834
O        2.01778768       0.94946847       9.06517782       34      -0.04360092       0.01955357      -0.00541834
O        4.86753982       1.97017083       7.36656999       35      -0.04360092      -0.01955357       0.00541834
O        2.01778768       1.97017083       0.84930392       36      -0.04360092      -0.01955357      -0.00541834
O        4.86753982       0.94946847      15.58244389       37      -0.04360092       0.01955357       0.00541834
O        3.68171661       4.88981013       7.36656999       38       0.04360092      -0.01955357       0.00541834
O        0.83196446       3.86910777       9.06517782       39       0.04360092       0.01955357      -0.00541834
40
Lattice="5.698683709492498 -6.89584982087946e-43 0.0 7.46275106559067e-43 5.834981275959739 0.0 0.0 0.0 16.44621722698082" Properties=species:S:1:pos:R:3:spacegroup_kinds:I:1:forces:R:3 spacegroup="P 1" unit_cell=conventional occupancy="_JSON {\"0\": {\"In\": 1}, \"1\": {\"In\": 1}, \"2\": {\"In\": 1}, \"3\": {\"In\": 1}, \"4\": {\"In\": 1}, \"5\": {\"In\": 1}, \"6\": {\"In\": 1}, \"7\": {\"In\": 1}, \"8\": {\"In\": 1}, \"9\": {\"In\": 1}, \"10\": {\"In\": 1}, \"11\": {\"In\": 1}, \"12\": {\"In\": 1}, \"13\": {\"In\": 1}, \"14\": {\"In\": 1}, \"15\": {\"In\": 1}, \"16\": {\"O\": 1}, \"17\": {\"O\": 1}, \"18\": {\"O\": 1}, \"19\": {\"O\": 1}, \"20\": {\"O\": 1}, \"21\": {\"O\": 1}, \"22\": {\"O\": 1}, \"23\": {\"O\": 1}, \"24\": {\"O\": 1}, \"25\": {\"O\": 1}, \"26\": {\"O\": 1}, \"27\": {\"O\": 1}, \"28\": {\"O\": 1}, \"29\": {\"O\": 1}, \"30\": {\"O\": 1}, \"31\": {\"O\": 1}, \"32\": {\"O\": 1}, \"33\": {\"O\": 1}, \"34\": {\"O\": 1}, \"35\": {\"O\": 1}, \"36\": {\"O\": 1}, \"37\": {\"O\": 1}, \"38\": {\"O\": 1}, \"39\": {\"O\": 1}}" n_minim_iter=3 energy=-45149.9237289847 stress="0.02870630268756763 -3.7654243625905684e-13 -8.492335371179767e-14 -3.7654243625905684e-13 0.0282519994813799 -3.1149404080083245e-13 -8.492335371179767e-14 -3.1149404080083245e-13 0.02942240114830329" free_energy=-45149.9237289847 pbc="T T T"
In       2.83794193       4.67224479       9.38838087        0       0.00130156      -0.03416710      -0.00799587
In      -0.01139993       4.08022713       7.05783636        1       0.00130156       0.03416710       0.00799587
In       2.86074178       1.75475415      15.28094497        2      -0.00130156      -0.03416710       0.00799587
In       5.71008364       1.16273649       1.16527225        3      -0.00130156       0.03416710      -0.00799587
In       2.86074178       1.16273649       7.05783636        4      -0.00130156       0.03416710       0.00799587
In       5.71008364       1.75475415       9.38838087        5      -0.00130156      -0.03416710      -0.00799587
In       2.83794193       4.08022713       1.16527225        6       0.00130156       0.03416710      -0.00799587
In      -0.01139993       4.67224479      15.28094497        7       0.00130156      -0.03416710       0.00799587
In       2.82755299       4.37363927      13.45550738        8      -0.00805448       0.00749788      -0.02267693
In       5.67689484       4.37883264       2.99070984        9      -0.00805448      -0.00749788       0.02267693
In       2.87113072       1.45614863      11.21381846       10       0.00805448       0.00749788       0.02267693
In       0.02178887       1.46134200       5.23239877       11       0.00805448      -0.00749788      -0.02267693
In       2.87113072       1.46134200       2.99070984       12       0.00805448      -0.00749788       0.02267693
In       0.02178887       1.45614863      13.45550738       13       0.00805448       0.00749788      -0.02267693
In       2.82755299       4.37883264       5.23239877       14      -0.00805448      -0.00749788      -0.02267693
In       5.67689484       4.37363927      11.21381846       15      -0.00805448       0.00749788       0.02267693
O        4.89196630       5.14822361      13.12765714       16      -0.00119109      -0.04866093      -0.00766530
O        2.04262445       3.60424831       3.31856008       17      -0.00119109       0.04866093       0.00766530
O        0.80671741       2.23073297      11.54166870       18       0.00119109      -0.04866093       0.00766530
O        3.65605926       0.68675767       4.90454853       19       0.00119109       0.04866093      -0.00766530
O        0.80671741       0.68675767       3.31856008       20       0.00119109       0.04866093       0.00766530
O        3.65605926       2.23073297      13.12765714       21       0.00119109      -0.04866093      -0.00766530
O        4.89196630       3.60424831       4.90454853       22      -0.00119109       0.04866093      -0.00766530
O        2.04262445       5.14822361      11.54166870       23      -0.00119109      -0.04866093       0.00766530
O        4.02078637       3.09177408      10.26897141       24      -0.04715610       0.00059581      -0.00053178
O        1.17144451       5.66069783       6.17724582       25      -0.04715610      -0.00059581       0.00053178
O        1.67789734       0.17428344      14.40035443       26       0.04715610       0.00059581       0.00053178
O        4.52723920       2.74320719       2.04586280       27       0.04715610      -0.00059581      -0.00053178
O        1.67789734       2.74320719       6.17724582       28       0.04715610      -0.00059581       0.00053178
O        4.52723920       0.17428344      10.26897141       29       0.04715610       0.00059581      -0.00053178
O        4.02078637       5.66069783       2.04586280       30      -0.04715610      -0.00059581      -0.00053178
O        1.17144451       3.09177408      14.40035443       31      -0.04715610       0.00059581       0.00053178
O        3.68186378       3.86655210      15.59625869       32       0.03016178       0.01337150       0.00853393
O        0.83252192       4.88591982       0.84995853       33       0.03016178      -0.01337150      -0.00853393
O        2.01681993       0.94906146       9.07306715       34      -0.03016178       0.01337150      -0.00853393
O        4.86616179       1.96842918       7.37315008       35      -0.03016178      -0.01337150       0.00853393
O        2.01681993       1.96842918       0.84995853       36      -0.03016178      -0.01337150      -0.00853393
O        4.86616179       0.94906146      15.59625869       37      -0.03016178       0.01337150       0.00853393
O        3.68186378       4.88591982       7.37315008       38       0.03016178      -0.01337150       0.00853393
O        0.83252192       3.86655210       9.07306715       39       0.03016178       0.01337150      -0.00853393
40
Lattice="5.701363378596479 -6.9374203155672716e-43 0.0 7.587341397921458e-43 5.840096123709498 0.0 0.0 0.0 16.424090338185426" Properties=species:S:1:pos:R:3:spacegroup_kinds:I:1:forces:R:3 spacegroup="P 1" unit_cell=conventional occupancy="_JSON {\"0\": {\"In\": 1}, \"1\": {\"In\": 1}, \"2\": {\"In\": 1}, \"3\": {\"In\": 1}, \"4\": {\"In\": 1}, \"5\": {\"In\": 1}, \"6\": {\"In\": 1}, \"7\": {\"In\": 1}, \"8\": {\"In\": 1}, \"9\": {\"In\": 1}, \"10\": {\"In\": 1}, \"11\": {\"In\": 1}, \"12\": {\"In\": 1}, \"13\": {\"In\": 1}, \"14\": {\"In\": 1}, \"15\": {\"In\": 1}, \"16\": {\"O\": 1}, \"17\": {\"O\": 1}, \"18\": {\"O\": 1}, \"19\": {\"O\": 1}, \"20\": {\"O\": 1}, \"21\": {\"O\": 1}, \"22\": {\"O\": 1}, \"23\": {\"O\": 1}, \"24\": {\"O\": 1}, \"25\": {\"O\": 1}, \"26\": {\"O\": 1}, \"27\": {\"O\": 1}, \"28\": {\"O\": 1}, \"29\": {\"O\": 1}, \"30\": {\"O\": 1}, \"31\": {\"O\": 1}, \"32\": {\"O\": 1}, \"33\": {\"O\": 1}, \"34\": {\"O\": 1}, \"35\": {\"O\": 1}, \"36\": {\"O\": 1}, \"37\": {\"O\": 1}, \"38\": {\"O\": 1}, \"39\": {\"O\": 1}}" n_minim_iter=4 energy=-45149.92640032196 stress="0.02850248244122833 -2.8796494747526493e-13 9.261550166482026e-14 -2.8796494747526493e-13 0.028554407495568795 -4.758988038282812e-13 9.261550166482026e-14 -4.758988038282812e-13 0.028068196820563072" free_energy=-45149.92640032196 pbc="T T T"
In       2.83920736       4.67363345       9.37591965        0      -0.00216469       0.00530174      -0.01495675
In      -0.01147433       4.08651073       7.04817069        1      -0.00216469      -0.00530174       0.01495675
In       2.86215602       1.75358539      15.26021586        2       0.00216469       0.00530174       0.01495675
In       5.71283771       1.16646267       1.16387448        3       0.00216469      -0.00530174      -0.01495675
In       2.86215602       1.16646267       7.04817069        4       0.00216469      -0.00530174       0.01495675
In       5.71283771       1.75358539       9.37591965        5       0.00216469       0.00530174      -0.01495675
In       2.83920736       4.08651073       1.16387448        6      -0.00216469      -0.00530174      -0.01495675
In      -0.01147433       4.67363345      15.26021586        7      -0.00216469       0.00530174       0.01495675
In       2.82837743       4.37804951      13.43600801        8       0.00004859      -0.01764424       0.00465341
In       5.67905912       4.38209468       2.98808233        9       0.00004859       0.01764424      -0.00465341
In       2.87298595       1.45800145      11.20012750       10      -0.00004859      -0.01764424      -0.00465341
In       0.02230426       1.46204662       5.22396284       11      -0.00004859       0.01764424       0.00465341
In       2.87298595       1.46204662       2.98808233       12      -0.00004859       0.01764424      -0.00465341
In       0.02230426       1.45800145      13.43600801       13      -0.00004859      -0.01764424       0.00465341
In       2.82837743       4.38209468       5.22396284       14       0.00004859       0.01764424       0.00465341
In       5.67905912       4.37804951      11.20012750       15       0.00004859      -0.01764424      -0.00465341
O        4.89393058       5.14939815      13.10955109       16       0.00397976      -0.02879127       0.00851715
O        2.04324889       3.61074603       3.31453924       17       0.00397976       0.02879127      -0.00851715
O        0.80743280       2.22935009      11.52658441       18      -0.00397976      -0.02879127      -0.00851715
O        3.65811449       0.69069797       4.89750592       19      -0.00397976       0.02879127       0.00851715
O        0.80743280       0.69069797       3.31453924       20      -0.00397976       0.02879127      -0.00851715
O        3.65811449       2.22935009      13.10955109       21      -0.00397976      -0.02879127       0.00851715
O        4.89393058       3.61074603       4.89750592       22       0.00397976       0.02879127       0.00851715
O        2.04324889       5.14939815      11.52658441       23       0.00397976      -0.02879127      -0.00851715
O        4.01885980       3.09489784      10.25486478       24      -0.00262401      -0.01031031       0.00507204
O        1.16817811       5.66524635       6.16922556       25      -0.00262401       0.01031031      -0.00507204
O        1.68250358       0.17484978      14.38127073       26       0.00262401      -0.01031031      -0.00507204
O        4.53318527       2.74519828       2.04281961       27       0.00262401       0.01031031       0.00507204
O        1.68250358       2.74519828       6.16922556       28       0.00262401       0.01031031      -0.00507204
O        4.53318527       0.17484978      10.25486478       29       0.00262401      -0.01031031       0.00507204
O        4.01885980       5.66524635       2.04281961       30      -0.00262401       0.01031031       0.00507204
O        1.16817811       3.09489784      14.38127073       31      -0.00262401      -0.01031031      -0.00507204
O        3.68621601       3.87107086      15.57569160       32      -0.00188142      -0.01268721       0.00120476
O        0.83553432       4.88907333       0.84839874       33      -0.00188142       0.01268721      -0.00120476
O        2.01514737       0.95102280       9.06044391       34       0.00188142      -0.01268721      -0.00120476
O        4.86582906       1.96902527       7.36364643       35       0.00188142       0.01268721       0.00120476
O        2.01514737       1.96902527       0.84839874       36       0.00188142       0.01268721      -0.00120476
O        4.86582906       0.95102280      15.57569160       37       0.00188142      -0.01268721       0.00120476
O        3.68621601       4.88907333       7.36364643       38      -0.00188142       0.01268721       0.00120476
O        0.83553432       3.87107086       9.06044391       39      -0.00188142      -0.01268721      -0.00120476
40
Lattice="5.699370947681968 -6.74442394183402e-43 0.0 7.502374507622599e-43 5.836141315220428 0.0 0.0 0.0 16.440965528211812" Properties=species:S:1:pos:R:3:spacegroup_kinds:I:1:forces:R:3 spacegroup="P 1" unit_cell=conventional occupancy="_JSON {\"0\": {\"In\": 1}, \"1\": {\"In\": 1}, \"2\": {\"In\": 1}, \"3\": {\"In\": 1}, \"4\": {\"In\": 1}, \"5\": {\"In\": 1}, \"6\": {\"In\": 1}, \"7\": {\"In\": 1}, \"8\": {\"In\": 1}, \"9\": {\"In\": 1}, \"10\": {\"In\": 1}, \"11\": {\"In\": 1}, \"12\": {\"In\": 1}, \"13\": {\"In\": 1}, \"14\": {\"In\": 1}, \"15\": {\"In\": 1}, \"16\": {\"O\": 1}, \"17\": {\"O\": 1}, \"18\": {\"O\": 1}, \"19\": {\"O\": 1}, \"20\": {\"O\": 1}, \"21\": {\"O\": 1}, \"22\": {\"O\": 1}, \"23\": {\"O\": 1}, \"24\": {\"O\": 1}, \"25\": {\"O\": 1}, \"26\": {\"O\": 1}, \"27\": {\"O\": 1}, \"28\": {\"O\": 1}, \"29\": {\"O\": 1}, \"30\": {\"O\": 1}, \"31\": {\"O\": 1}, \"32\": {\"O\": 1}, \"33\": {\"O\": 1}, \"34\": {\"O\": 1}, \"35\": {\"O\": 1}, \"36\": {\"O\": 1}, \"37\": {\"O\": 1}, \"38\": {\"O\": 1}, \"39\": {\"O\": 1}}" n_minim_iter=5 energy=-45149.92687047145 stress="0.028049822865364636 -1.4910365291224187e-13 -2.86733249627755e-13 -1.4910365291224187e-13 0.027950745962167612 6.785961840264845e-13 -2.86733249627755e-13 6.785961840264845e-13 0.02879110662749831" free_energy=-45149.92687047145 pbc="T T T"
In       2.83816874       4.66998500       9.38490235        0       0.00547328       0.01003517      -0.01961001
In      -0.01151674       4.08422698       7.05606317        1       0.00547328      -0.01003517       0.01961001
In       2.86120221       1.75191434      15.27654594        2      -0.00547328       0.01003517       0.01961001
In       5.71088769       1.16615632       1.16441959        3      -0.00547328      -0.01003517      -0.01961001
In       2.86120221       1.16615632       7.05606317        4      -0.00547328      -0.01003517       0.01961001
In       5.71088769       1.75191434       9.38490235        5      -0.00547328       0.01003517      -0.01961001
In       2.83816874       4.08422698       1.16441959        6       0.00547328      -0.01003517      -0.01961001
In      -0.01151674       4.66998500      15.27654594        7       0.00547328       0.01003517       0.01961001
In       2.82721999       4.37456228      13.44956183        8      -0.00137761      -0.01967494       0.00023423
In       5.67690547       4.37964969       2.99140370        9      -0.00137761       0.01967494      -0.00023423
In       2.87215096       1.45649162      11.21188646       10       0.00137761      -0.01967494      -0.00023423
In       0.02246548       1.46157903       5.22907907       11       0.00137761       0.01967494       0.00023423
In       2.87215096       1.46157903       2.99140370       12       0.00137761       0.01967494      -0.00023423
In       0.02246548       1.45649162      13.44956183       13       0.00137761      -0.01967494       0.00023423
In       2.82721999       4.37964969       5.22907907       14      -0.00137761       0.01967494       0.00023423
In       5.67690547       4.37456228      11.21188646       15      -0.00137761      -0.01967494      -0.00023423
O        4.89232279       5.14388164      13.12318793       16       0.00785153      -0.02241951       0.00600645
O        2.04263731       3.61033033       3.31777760       17       0.00785153       0.02241951      -0.00600645
O        0.80704816       2.22581098      11.53826036       18      -0.00785153      -0.02241951      -0.00600645
O        3.65673363       0.69225968       4.90270517       19      -0.00785153       0.02241951       0.00600645
O        0.80704816       0.69225968       3.31777760       20      -0.00785153       0.02241951      -0.00600645
O        3.65673363       2.22581098      13.12318793       21      -0.00785153      -0.02241951       0.00600645
O        4.89232279       3.61033033       4.90270517       22       0.00785153       0.02241951       0.00600645
O        2.04263731       5.14388164      11.53826036       23       0.00785153      -0.02241951      -0.00600645
O        4.01637198       3.09246069      10.26555722       24       0.01071331      -0.01461165       0.00583527
O        1.16668651       5.66175128       6.17540831       25       0.01071331       0.01461165      -0.00583527
O        1.68299896       0.17439003      14.39589107       26      -0.01071331      -0.01461165      -0.00583527
O        4.53268444       2.74368063       2.04507446       27      -0.01071331       0.01461165       0.00583527
O        1.68299896       2.74368063       6.17540831       28      -0.01071331       0.01461165      -0.00583527
O        4.53268444       0.17439003      10.26555722       29      -0.01071331      -0.01461165       0.00583527
O        4.01637198       5.66175128       2.04507446       30       0.01071331       0.01461165       0.00583527
O        1.16668651       3.09246069      14.39589107       31       0.01071331      -0.01461165      -0.00583527
O        3.68549078       3.86823651      15.59190567       32      -0.01343500      -0.01780557       0.00312708
O        0.83580530       4.88597546       0.84905986       33      -0.01343500       0.01780557      -0.00312708
O        2.01388017       0.95016585       9.06954262       34       0.01343500      -0.01780557      -0.00312708
O        4.86356565       1.96790481       7.37142291       35       0.01343500       0.01780557       0.00312708
O        2.01388017       1.96790481       0.84905986       36       0.01343500       0.01780557      -0.00312708
O        4.86356565       0.95016585      15.59190567       37       0.01343500      -0.01780557       0.00312708
O        3.68549078       4.88597546       7.37142291       38      -0.01343500       0.01780557       0.00312708
O        0.83580530       3.86823651       9.06954262       39      -0.01343500      -0.01780557      -0.00312708
40