40
Lattice="5.387047920151939 -2.8938964553391902e-43 3.9723528091574116e-84 2.789217379448538e-43 5.192185662029414 7.041598110367698e-41 -2.183698423244201e-83 -2.0202294555748125e-40 14.896343484586195" Properties=species:S:1:pos:R:3:spacegroup_kinds:I:1:forces:R:3 spacegroup="P 1" unit_cell=conventional occupancy="_JSON {\"0\": {\"In\": 1}, \"1\": {\"In\": 1}, \"2\": {\"In\": 1}, \"3\": {\"In\": 1}, \"4\": {\"In\": 1}, \"5\": {\"In\": 1}, \"6\": {\"In\": 1}, \"7\": {\"In\": 1}, \"8\": {\"In\": 1}, \"9\": {\"In\": 1}, \"10\": {\"In\": 1}, \"11\": {\"In\": 1}, \"12\": {\"In\": 1}, \"13\": {\"In\": 1}, \"14\": {\"In\": 1}, \"15\": {\"In\": 1}, \"16\": {\"O\": 1}, \"17\": {\"O\": 1}, \"18\": {\"O\": 1}, \"19\": {\"O\": 1}, \"20\": {\"O\": 1}, \"21\": {\"O\": 1}, \"22\": {\"O\": 1}, \"23\": {\"O\": 1}, \"24\": {\"O\": 1}, \"25\": {\"O\": 1}, \"26\": {\"O\": 1}, \"27\": {\"O\": 1}, \"28\": {\"O\": 1}, \"29\": {\"O\": 1}, \"30\": {\"O\": 1}, \"31\": {\"O\": 1}, \"32\": {\"O\": 1}, \"33\": {\"O\": 1}, \"34\": {\"O\": 1}, \"35\": {\"O\": 1}, \"36\": {\"O\": 1}, \"37\": {\"O\": 1}, \"38\": {\"O\": 1}, \"39\": {\"O\": 1}}" n_minim_iter=1 energy=-45140.146116964075 stress="-0.3422026813076722 -4.842306804577067e-13 1.887932736783783e-13 -4.842306804577067e-13 -0.32800322862158227 -6.989413018733673e-13 1.887932736783783e-13 -6.989413018733673e-13 -0.3319306971125535" free_energy=-45140.146116964075 pbc="T T T"
In       2.75961917       3.86541424       8.38842396        0       0.01507021       0.10558680       0.08486566
In       0.06609521       3.92286426       6.50791952        1       0.01507021      -0.10558680      -0.08486566
In       2.62742875       1.26932141      13.95609126        2      -0.01507021       0.10558680      -0.08486566
In       5.32095271       1.32677143       0.94025222        3      -0.01507021      -0.10558680       0.08486566
In       2.62742875       1.32677143       6.50791952        4      -0.01507021      -0.10558680      -0.08486566
In       5.32095271       1.26932141       8.38842396        5      -0.01507021       0.10558680       0.08486566
In       2.75961917       3.92286426       0.94025222        6       0.01507021      -0.10558680       0.08486566
In       0.06609521       3.86541424      13.95609126        7       0.01507021       0.10558680      -0.08486566
In       2.74682585       3.63448653      12.14010940        8       0.02917540      -0.19814242       0.17328278
In       5.44034981       4.15379196       2.75623408        9       0.02917540       0.19814242      -0.17328278
In       2.64022207       1.03839370      10.20440582       10      -0.02917540      -0.19814242      -0.17328278
In      -0.05330189       1.55769913       4.69193766       11      -0.02917540       0.19814242       0.17328278
In       2.64022207       1.55769913       2.75623408       12      -0.02917540       0.19814242      -0.17328278
In      -0.05330189       1.03839370      12.14010940       13      -0.02917540      -0.19814242       0.17328278
In       2.74682585       4.15379196       4.69193766       14       0.02917540       0.19814242       0.17328278
In       5.44034981       3.63448653      10.20440582       15       0.02917540      -0.19814242      -0.17328278
O        4.69514821       4.23703472      11.98576336       16      -0.05573999       0.04551326      -0.07655446
O        2.00162425       3.55124377       2.91058013       17      -0.05573999      -0.04551326       0.07655446
O        0.69189971       1.64094189      10.35875187       18       0.05573999       0.04551326       0.07655446
O        3.38542367       0.95515094       4.53759161       19       0.05573999      -0.04551326      -0.07655446
O        0.69189971       0.95515094       2.91058013       20       0.05573999      -0.04551326       0.07655446
O        3.38542367       1.64094189      11.98576336       21       0.05573999       0.04551326      -0.07655446
O        4.69514821       3.55124377       4.53759161       22      -0.05573999      -0.04551326      -0.07655446
O        2.00162425       4.23703472      10.35875187       23      -0.05573999       0.04551326       0.07655446
O        3.84823054       2.46834415       9.36187499       24      -0.09789101      -0.02467130       0.03349967
O        1.15470658       5.31993434       5.53446850       25      -0.09789101       0.02467130      -0.03349967
O        1.53881738      -0.12774868      12.98264024       26       0.09789101      -0.02467130      -0.03349967
O        4.23234134       2.72384151       1.91370324       27       0.09789101       0.02467130       0.03349967
O        1.53881738       2.72384151       5.53446850       28       0.09789101       0.02467130      -0.03349967
O        4.23234134      -0.12774868       9.36187499       29       0.09789101      -0.02467130       0.03349967
O        3.84823054       5.31993434       1.91370324       30      -0.09789101       0.02467130       0.03349967
O        1.15470658       2.46834415      12.98264024       31      -0.09789101      -0.02467130      -0.03349967
O        3.53215057       3.19476813      14.09033766       32       0.03007979       0.03084527      -0.02133989
O        0.83862661       4.59351037       0.80600582       33       0.03007979      -0.03084527       0.02133989
O        1.85489735       0.59867530       8.25417756       34      -0.03007979       0.03084527       0.02133989
O        4.54842131       1.99741753       6.64216592       35      -0.03007979      -0.03084527      -0.02133989
O        1.85489735       1.99741753       0.80600582       36      -0.03007979      -0.03084527       0.02133989
O        4.54842131       0.59867530      14.09033766       37      -0.03007979       0.03084527      -0.02133989
O        3.53215057       4.59351037       6.64216592       38       0.03007979      -0.03084527      -0.02133989
O        0.83862661       3.19476813       8.25417756       39       0.03007979       0.03084527       0.02133989
40
Lattice="5.404615689611269 -2.9243457812056848e-43 9.068416398882572e-83 2.7635292357780464e-43 5.179678758374919 -1.3974477514064125e-39 -2.1149202484472862e-83 -4.4847775751112105e-39 14.883774679104922" Properties=species:S:1:pos:R:3:spacegroup_kinds:I:1:forces:R:3 spacegroup="P 1" unit_cell=conventional occupancy="_JSON {\"0\": {\"In\": 1}, \"1\": {\"In\": 1}, \"2\": {\"In\": 1}, \"3\": {\"In\": 1}, \"4\": {\"In\": 1}, \"5\": {\"In\": 1}, \"6\": {\"In\": 1}, \"7\": {\"In\": 1}, \"8\": {\"In\": 1}, \"9\": {\"In\": 1}, \"10\": {\"In\": 1}, \"11\": {\"In\": 1}, \"12\": {\"In\": 1}, \"13\": {\"In\": 1}, \"14\": {\"In\": 1}, \"15\": {\"In\": 1}, \"16\": {\"O\": 1}, \"17\": {\"O\": 1}, \"18\": {\"O\": 1}, \"19\": {\"O\": 1}, \"20\": {\"O\": 1}, \"21\": {\"O\": 1}, \"22\": {\"O\": 1}, \"23\": {\"O\": 1}, \"24\": {\"O\": 1}, \"25\": {\"O\": 1}, \"26\": {\"O\": 1}, \"27\": {\"O\": 1}, \"28\": {\"O\": 1}, \"29\": {\"O\": 1}, \"30\": {\"O\": 1}, \"31\": {\"O\": 1}, \"32\": {\"O\": 1}, \"33\": {\"O\": 1}, \"34\": {\"O\": 1}, \"35\": {\"O\": 1}, \"36\": {\"O\": 1}, \"37\": {\"O\": 1}, \"38\": {\"O\": 1}, \"39\": {\"O\": 1}}" n_minim_iter=2 energy=-45140.1558276202 stress="-0.33197556720592114 -6.347360063324783e-14 -3.436751796179709e-13 -6.347360063324783e-14 -0.33192969620357 3.944437748283438e-14 -3.436751796179709e-13 3.944437748283438e-14 -0.3328977346588118" free_energy=-45140.1558276202 pbc="T T T"
In       2.76863308       3.85620415       8.38142745        0      -0.02385739       0.05719782       0.09051803
In       0.06632524       3.91331398       6.50234723        1      -0.02385739      -0.05719782      -0.09051803
In       2.63598261       1.26636477      13.94423457        2       0.02385739       0.05719782      -0.09051803
In       5.33829045       1.32347460       0.93954011        3       0.02385739      -0.05719782       0.09051803
In       2.63598261       1.32347460       6.50234723        4       0.02385739      -0.05719782      -0.09051803
In       5.33829045       1.26636477       8.38142745        5       0.02385739       0.05719782       0.09051803
In       2.76863308       3.91331398       0.93954011        6      -0.02385739      -0.05719782       0.09051803
In       0.06632524       3.85620415      13.94423457        7      -0.02385739       0.05719782      -0.09051803
In       2.75581160       3.62554245      12.13003203        8       0.06883735      -0.15460961       0.18410625
In       5.45811945       4.14397569       2.75374265        9       0.06883735       0.15460961      -0.18410625
In       2.64880409       1.03570307      10.19562999       10      -0.06883735      -0.15460961      -0.18410625
In      -0.05350376       1.55413631       4.68814469       11      -0.06883735       0.15460961       0.18410625
In       2.64880409       1.55413631       2.75374265       12      -0.06883735       0.15460961      -0.18410625
In      -0.05350376       1.03570307      12.13003203       13      -0.06883735      -0.15460961       0.18410625
In       2.75581160       4.14397569       4.68814469       14       0.06883735       0.15460961       0.18410625
In       5.45811945       3.62554245      10.19562999       15       0.06883735      -0.15460961      -0.18410625
O        4.71040605       4.22687207      11.97557708       16      -0.11877737       0.00117966      -0.08064452
O        2.00809820       3.54264607       2.90819760       17      -0.11877737      -0.00117966       0.08064452
O        0.69420964       1.63703269      10.35008494       18       0.11877737       0.00117966       0.08064452
O        3.39651749       0.95280669       4.53368974       19       0.11877737      -0.00117966      -0.08064452
O        0.69420964       0.95280669       2.90819760       20       0.11877737      -0.00117966       0.08064452
O        3.39651749       1.63703269      11.97557708       21       0.11877737       0.00117966      -0.08064452
O        4.71040605       3.54264607       4.53368974       22      -0.11877737      -0.00117966      -0.08064452
O        2.00809820       4.22687207      10.35008494       23      -0.11877737       0.00117966       0.08064452
O        3.86068598       2.46237484       9.35400796       24      -0.08005088      -0.03318544       0.04093412
O        1.15837813       5.30714330       5.52976672       25      -0.08005088       0.03318544      -0.04093412
O        1.54392971      -0.12746454      12.97165406       26       0.08005088      -0.03318544      -0.04093412
O        4.24623756       2.71730392       1.91212062       27       0.08005088       0.03318544       0.04093412
O        1.54392971       2.71730392       5.52976672       28       0.08005088       0.03318544      -0.04093412
O        4.24623756      -0.12746454       9.35400796       29       0.08005088      -0.03318544       0.04093412
O        3.86068598       5.30714330       1.91212062       30      -0.08005088       0.03318544       0.04093412
O        1.15837813       2.46237484      12.97165406       31      -0.08005088      -0.03318544      -0.04093412
O        3.54369822       3.18710207      14.07842850       32       0.07385556       0.06374303      -0.01994215
O        0.84139037       4.58241607       0.80534618       33       0.07385556      -0.06374303       0.01994215
O        1.86091747       0.59726269       8.24723352       34      -0.07385556       0.06374303       0.01994215
O        4.56322532       1.99257669       6.63654116       35      -0.07385556      -0.06374303      -0.01994215
O        1.86091747       1.99257669       0.80534618       36      -0.07385556      -0.06374303       0.01994215
O        4.56322532       0.59726269      14.07842850       37      -0.07385556       0.06374303      -0.01994215
O        3.54369822       4.58241607       6.63654116       38       0.07385556      -0.06374303      -0.01994215
O        0.84139037       3.18710207       8.24723352       39       0.07385556       0.06374303       0.01994215
40
Lattice="5.403287781959832 -2.92407164008598e-43 8.4218823352279e-83 2.7586697749697465e-43 5.17147243602112 -1.2860228613274238e-39 -2.142947579476906e-83 -4.1508158173564843e-39 14.91105654327872" Properties=species:S:1:pos:R:3:spacegroup_kinds:I:1:forces:R:3 spacegroup="P 1" unit_cell=conventional occupancy="_JSON {\"0\": {\"In\": 1}, \"1\": {\"In\": 1}, \"2\": {\"In\": 1}, \"3\": {\"In\": 1}, \"4\": {\"In\": 1}, \"5\": {\"In\": 1}, \"6\": {\"In\": 1}, \"7\": {\"In\": 1}, \"8\": {\"In\": 1}, \"9\": {\"In\": 1}, \"10\": {\"In\": 1}, \"11\": {\"In\": 1}, \"12\": {\"In\": 1}, \"13\": {\"In\": 1}, \"14\": {\"In\": 1}, \"15\": {\"In\": 1}, \"16\": {\"O\": 1}, \"17\": {\"O\": 1}, \"18\": {\"O\": 1}, \"19\": {\"O\": 1}, \"20\": {\"O\": 1}, \"21\": {\"O\": 1}, \"22\": {\"O\": 1}, \"23\": {\"O\": 1}, \"24\": {\"O\": 1}, \"25\": {\"O\": 1}, \"26\": {\"O\": 1}, \"27\": {\"O\": 1}, \"28\": {\"O\": 1}, \"29\": {\"O\": 1}, \"30\": {\"O\": 1}, \"31\": {\"O\": 1}, \"32\": {\"O\": 1}, \"33\": {\"O\": 1}, \"34\": {\"O\": 1}, \"35\": {\"O\": 1}, \"36\": {\"O\": 1}, \"37\": {\"O\": 1}, \"38\": {\"O\": 1}, \"39\": {\"O\": 1}}" n_minim_iter=3 energy=-45140.159781183786 stress="-0.3322419682705508 6.843511029065888e-13 6.456810536836246e-13 6.843511029065888e-13 -0.33439972729083317 -7.178976890253596e-13 6.456810536836246e-13 -7.178976890253596e-13 -0.3274026545478421" free_energy=-45140.159781183786 pbc="T T T"
In       2.76777216       3.85055081       8.39750052        0       0.01392375       0.06363897       0.08174349
In       0.06612826       3.90665785       6.51355602        1       0.01392375      -0.06363897      -0.08174349
In       2.63551563       1.26481459      13.96908429        2      -0.01392375       0.06363897      -0.08174349
In       5.33715952       1.32092163       0.94197225        3      -0.01392375      -0.06363897       0.08174349
In       2.63551563       1.32092163       6.51355602        4      -0.01392375      -0.06363897      -0.08174349
In       5.33715952       1.26481459       8.39750052        5      -0.01392375       0.06363897       0.08174349
In       2.76777216       3.90665785       0.94197225        6       0.01392375      -0.06363897       0.08174349
In       0.06612826       3.85055081      13.96908429        7       0.01392375       0.06363897      -0.08174349
In       2.75567053       3.61858291      12.15371045        8       0.02863572      -0.10548401       0.10910556
In       5.45731442       4.13862574       2.75734609        9       0.02863572       0.10548401      -0.10910556
In       2.64761725       1.03284670      10.21287436       10      -0.02863572      -0.10548401      -0.10910556
In      -0.05402664       1.55288952       4.69818218       11      -0.02863572       0.10548401       0.10910556
In       2.64761725       1.55288952       2.75734609       12      -0.02863572       0.10548401      -0.10910556
In      -0.05402664       1.03284670      12.15371045       13      -0.02863572      -0.10548401       0.10910556
In       2.75567053       4.13862574       4.69818218       14       0.02863572       0.10548401       0.10910556
In       5.45731442       3.61858291      10.21287436       15       0.02863572      -0.10548401      -0.10910556
O        4.70832271       4.22019342      11.99689552       16      -0.08219108      -0.03881633      -0.09906001
O        2.00667882       3.53701523       2.91416102       17      -0.08219108       0.03881633       0.09906001
O        0.69496507       1.63445721      10.36968929       18       0.08219108      -0.03881633       0.09906001
O        3.39660896       0.95127901       4.54136725       19       0.08219108       0.03881633      -0.09906001
O        0.69496507       0.95127901       2.91416102       20       0.08219108       0.03881633       0.09906001
O        3.39660896       1.63445721      11.99689552       21       0.08219108      -0.03881633      -0.09906001
O        4.70832271       3.53701523       4.54136725       22      -0.08219108       0.03881633      -0.09906001
O        2.00667882       4.22019342      10.36968929       23      -0.08219108      -0.03881633       0.09906001
O        3.85910112       2.45821632       9.37147387       24      -0.06613039      -0.03604329       0.03768304
O        1.15745723       5.29899233       5.53958267       25      -0.06613039       0.03604329      -0.03768304
O        1.54418666      -0.12751990      12.99511094       26       0.06613039      -0.03604329      -0.03768304
O        4.24583055       2.71325611       1.91594560       27       0.06613039       0.03604329       0.03768304
O        1.54418666       2.71325611       5.53958267       28       0.06613039       0.03604329      -0.03768304
O        4.24583055      -0.12751990       9.37147387       29       0.06613039      -0.03604329       0.03768304
O        3.85910112       5.29899233       1.91594560       30      -0.06613039       0.03604329       0.03768304
O        1.15745723       2.45821632      12.99511094       31      -0.06613039      -0.03604329      -0.03768304
O        3.54340239       3.18254355      14.10407722       32       0.04246120       0.06442917       0.01728214
O        0.84175850       4.57466510       0.80697932       33       0.04246120      -0.06442917      -0.01728214
O        1.85988539       0.59680733       8.26250759       34      -0.04246120       0.06442917      -0.01728214
O        4.56152929       1.98892889       6.64854895       35      -0.04246120      -0.06442917       0.01728214
O        1.85988539       1.98892889       0.80697932       36      -0.04246120      -0.06442917      -0.01728214
O        4.56152929       0.59680733      14.10407722       37      -0.04246120       0.06442917       0.01728214
O        3.54340239       4.57466510       6.64854895       38       0.04246120      -0.06442917       0.01728214
O        0.84175850       3.18254355       8.26250759       39       0.04246120       0.06442917      -0.01728214
40
Lattice="5.411425768367312 -2.929212138078008e-43 1.070650009645088e-82 2.7640221923427016e-43 5.182784364603816 -1.688102984712968e-39 -2.0680792581396157e-83 -5.324589025722039e-39 14.856136631247274" Properties=species:S:1:pos:R:3:spacegroup_kinds:I:1:forces:R:3 spacegroup="P 1" unit_cell=conventional occupancy="_JSON {\"0\": {\"In\": 1}, \"1\": {\"In\": 1}, \"2\": {\"In\": 1}, \"3\": {\"In\": 1}, \"4\": {\"In\": 1}, \"5\": {\"In\": 1}, \"6\": {\"In\": 1}, \"7\": {\"In\": 1}, \"8\": {\"In\": 1}, \"9\": {\"In\": 1}, \"10\": {\"In\": 1}, \"11\": {\"In\": 1}, \"12\": {\"In\": 1}, \"13\": {\"In\": 1}, \"14\": {\"In\": 1}, \"15\": {\"In\": 1}, \"16\": {\"O\": 1}, \"17\": {\"O\": 1}, \"18\": {\"O\": 1}, \"19\": {\"O\": 1}, \"20\": {\"O\": 1}, \"21\": {\"O\": 1}, \"22\": {\"O\": 1}, \"23\": {\"O\": 1}, \"24\": {\"O\": 1}, \"25\": {\"O\": 1}, \"26\": {\"O\": 1}, \"27\": {\"O\": 1}, \"28\": {\"O\": 1}, \"29\": {\"O\": 1}, \"30\": {\"O\": 1}, \"31\": {\"O\": 1}, \"32\": {\"O\": 1}, \"33\": {\"O\": 1}, \"34\": {\"O\": 1}, \"35\": {\"O\": 1}, \"36\": {\"O\": 1}, \"37\": {\"O\": 1}, \"38\": {\"O\": 1}, \"39\": {\"O\": 1}}" n_minim_iter=4 energy=-45140.179068394646 stress="-0.325706551670766 5.683260335644156e-13 1.4472530914624253e-13 5.683260335644156e-13 -0.3269465724564963 -1.0923925189701138e-12 1.4472530914624253e-13 -1.0923925189701138e-12 -0.32687988032567017" free_energy=-45140.179068394646 pbc="T T T"
In       2.77116790       3.86167790       8.37063433        0       0.03254374       0.07432958       0.05906448
In       0.06545501       3.91249865       6.48550230        1       0.03254374      -0.07432958      -0.05906448
In       2.64025787       1.27028572      13.91357062        2      -0.03254374       0.07432958      -0.05906448
In       5.34597076       1.32110647       0.94256601        3      -0.03254374      -0.07432958       0.05906448
In       2.64025787       1.32110647       6.48550230        4      -0.03254374      -0.07432958      -0.05906448
In       5.34597076       1.27028572       8.37063433        5      -0.03254374       0.07432958       0.05906448
In       2.77116790       3.91249865       0.94256601        6       0.03254374      -0.07432958       0.05906448
In       0.06545501       3.86167790      13.91357062        7       0.03254374       0.07432958      -0.05906448
In       2.76265195       3.61977746      12.11677252        8      -0.10351994      -0.04904852      -0.11188337
In       5.46836483       4.15439909       2.73936411        9      -0.10351994       0.04904852       0.11188337
In       2.64877382       1.02838528      10.16743243       10       0.10351994      -0.04904852       0.11188337
In      -0.05693907       1.56300690       4.68870421       11       0.10351994       0.04904852      -0.11188337
In       2.64877382       1.56300690       2.73936411       12       0.10351994       0.04904852       0.11188337
In      -0.05693907       1.02838528      12.11677252       13       0.10351994      -0.04904852      -0.11188337
In       2.76265195       4.15439909       4.68870421       14      -0.10351994       0.04904852      -0.11188337
In       5.46836483       3.61977746      10.16743243       15      -0.10351994      -0.04904852       0.11188337
O        4.71027009       4.22921398      11.94888675       16       0.02106162      -0.02627366      -0.16078933
O        2.00455721       3.54496257       2.90724989       17       0.02106162       0.02627366       0.16078933
O        0.70115568       1.63782179      10.33531820       18      -0.02106162      -0.02627366       0.16078933
O        3.40686856       0.95357039       4.52081843       19      -0.02106162       0.02627366      -0.16078933
O        0.70115568       0.95357039       2.90724989       20      -0.02106162       0.02627366       0.16078933
O        3.40686856       1.63782179      11.94888675       21      -0.02106162      -0.02627366      -0.16078933
O        4.71027009       3.54496257       4.52081843       22       0.02106162       0.02627366      -0.16078933
O        2.00455721       4.22921398      10.33531820       23       0.02106162      -0.02627366       0.16078933
O        3.86130690       2.46206503       9.33879560       24      -0.00462164      -0.03359374       0.04092045
O        1.15559402       5.31211152       5.51734103       25      -0.00462164       0.03359374      -0.04092045
O        1.55011887      -0.12932715      12.94540935       26       0.00462164      -0.03359374      -0.04092045
O        4.25583175       2.72071933       1.91072728       27       0.00462164       0.03359374       0.04092045
O        1.55011887       2.72071933       5.51734103       28       0.00462164       0.03359374      -0.04092045
O        4.25583175      -0.12932715       9.33879560       29       0.00462164      -0.03359374       0.04092045
O        3.86130690       5.31211152       1.91072728       30      -0.00462164       0.03359374       0.04092045
O        1.15559402       2.46206503      12.94540935       31      -0.00462164      -0.03359374      -0.04092045
O        3.55186638       3.19238846      14.05150277       32      -0.00280844      -0.02440966       0.09679913
O        0.84615350       4.58178809       0.80463386       33      -0.00280844       0.02440966      -0.09679913
O        1.85955938       0.60099627       8.23270218       34       0.00280844      -0.02440966      -0.09679913
O        4.56527227       1.99039591       6.62343445       35       0.00280844       0.02440966       0.09679913
O        1.85955938       1.99039591       0.80463386       36       0.00280844       0.02440966      -0.09679913
O        4.56527227       0.60099627      14.05150277       37       0.00280844      -0.02440966       0.09679913
O        3.55186638       4.58178809       6.62343445       38      -0.00280844       0.02440966       0.09679913
O        0.84615350       3.19238846       8.23270218       39      -0.00280844      -0.02440966      -0.09679913
40
Lattice="5.406315506847472 -2.9269020162027903e-43 1.1419943939362304e-82 2.766169829647997e-43 5.18748919862268 -1.8117735259661447e-39 -2.0621472592726644e-83 -5.683932248759104e-39 14.856692608736207" Properties=species:S:1:pos:R:3:spacegroup_kinds:I:1:forces:R:3 spacegroup="P 1" unit_cell=conventional occupancy="_JSON {\"0\": {\"In\": 1}, \"1\": {\"In\": 1}, \"2\": {\"In\": 1}, \"3\": {\"In\": 1}, \"4\": {\"In\": 1}, \"5\": {\"In\": 1}, \"6\": {\"In\": 1}, \"7\": {\"In\": 1}, \"8\": {\"In\": 1}, \"9\": {\"In\": 1}, \"10\": {\"In\": 1}, \"11\": {\"In\": 1}, \"12\": {\"In\": 1}, \"13\": {\"In\": 1}, \"14\": {\"In\": 1}, \"15\": {\"In\": 1}, \"16\": {\"O\": 1}, \"17\": {\"O\": 1}, \"18\": {\"O\": 1}, \"19\": {\"O\": 1}, \"20\": {\"O\": 1}, \"21\": {\"O\": 1}, \"22\": {\"O\": 1}, \"23\": {\"O\": 1}, \"24\": {\"O\": 1}, \"25\": {\"O\": 1}, \"26\": {\"O\": 1}, \"27\": {\"O\": 1}, \"28\": {\"O\": 1}, \"29\": {\"O\": 1}, \"30\": {\"O\": 1}, \"31\": {\"O\": 1}, \"32\": {\"O\": 1}, \"33\": {\"O\": 1}, \"34\": {\"O\": 1}, \"35\": {\"O\": 1}, \"36\": {\"O\": 1}, \"37\": {\"O\": 1}, \"38\": {\"O\": 1}, \"39\": {\"O\": 1}}" n_minim_iter=5 energy=-45140.19114416104 stress="-0.32407492052225595 -2.5883827264091664e-13 1.3002639513127883e-13 -2.5883827264091664e-13 -0.3232705205028938 -5.518136033289841e-13 1.3002639513127883e-13 -5.518136033289841e-13 -0.32300840688375865" free_energy=-45140.19114416104 pbc="T T T"
In       2.76943707       3.86986524       8.37572926        0      -0.00015350      -0.00067096       0.03638426
In       0.06627932       3.91136856       6.48096335        1      -0.00015350       0.00067096      -0.03638426
In       2.63687843       1.27612064      13.90930965        2       0.00015350      -0.00067096      -0.03638426
In       5.34003619       1.31762396       0.94738295        3       0.00015350       0.00067096       0.03638426
In       2.63687843       1.31762396       6.48096335        4       0.00015350       0.00067096      -0.03638426
In       5.34003619       1.27612064       8.37572926        5       0.00015350      -0.00067096       0.03638426
In       2.76943707       3.91136856       0.94738295        6      -0.00015350       0.00067096       0.03638426
In       0.06627932       3.86986524      13.90930965        7      -0.00015350      -0.00067096      -0.03638426
In       2.75771875       3.61682660      12.11787509        8      -0.00665306      -0.04450951      -0.02027847
In       5.46087650       4.16440720       2.73881752        9      -0.00665306       0.04450951       0.02027847
In       2.64859676       1.02308200      10.16716382       10       0.00665306      -0.04450951       0.02027847
In      -0.05456099       1.57066260       4.68952879       11       0.00665306       0.04450951      -0.02027847
In       2.64859676       1.57066260       2.73881752       12       0.00665306       0.04450951       0.02027847
In      -0.05456099       1.02308200      12.11787509       13       0.00665306      -0.04450951      -0.02027847
In       2.75771875       4.16440720       4.68952879       14      -0.00665306       0.04450951      -0.02027847
In       5.46087650       3.61682660      10.16716382       15      -0.00665306      -0.04450951       0.02027847
O        4.70359387       4.23205894      11.94083970       16       0.00034433       0.01476940       0.03886354
O        2.00043612       3.54917486       2.91585291       17       0.00034433      -0.01476940      -0.03886354
O        0.70272163       1.63831434      10.34419922       18      -0.00034433       0.01476940      -0.03886354
O        3.40587939       0.95543026       4.51249339       19      -0.00034433      -0.01476940       0.03886354
O        0.70272163       0.95543026       2.91585291       20      -0.00034433      -0.01476940      -0.03886354
O        3.40587939       1.63831434      11.94083970       21      -0.00034433       0.01476940       0.03886354
O        4.70359387       3.54917486       4.51249339       22       0.00034433      -0.01476940       0.03886354
O        2.00043612       4.23205894      10.34419922       23       0.00034433       0.01476940      -0.03886354
O        3.85516002       2.46208529       9.34183220       24       0.00786395       0.00760600       0.02102192
O        1.15200227       5.31914851       5.51486041       25       0.00786395      -0.00760600      -0.02102192
O        1.55115549      -0.13165931      12.94320672       26      -0.00786395       0.00760600      -0.02102192
O        4.25431324       2.72540391       1.91348589       27      -0.00786395      -0.00760600       0.02102192
O        1.55115549       2.72540391       5.51486041       28      -0.00786395      -0.00760600      -0.02102192
O        4.25431324      -0.13165931       9.34183220       29      -0.00786395       0.00760600       0.02102192
O        3.85516002       5.31914851       1.91348589       30       0.00786395      -0.00760600       0.02102192
O        1.15200227       2.46208529      12.94320672       31       0.00786395       0.00760600      -0.02102192
O        3.55023441       3.19607293      14.05530208       32      -0.01124178      -0.05740681      -0.00707539
O        0.84707665       4.58516087       0.80139052       33      -0.01124178       0.05740681       0.00707539
O        1.85608110       0.60232833       8.22973683       34       0.01124178      -0.05740681       0.00707539
O        4.55923885       1.99141627       6.62695578       35       0.01124178       0.05740681      -0.00707539
O        1.85608110       1.99141627       0.80139052       36       0.01124178       0.05740681       0.00707539
O        4.55923885       0.60232833      14.05530208       37       0.01124178      -0.05740681      -0.00707539
O        3.55023441       4.58516087       6.62695578       38      -0.01124178       0.05740681      -0.00707539
O        0.84707665       3.19607293       8.22973683       39      -0.01124178      -0.05740681       0.00707539
40