20
Lattice="5.704045826861935 -1.1969907213429826e-59 -5.256441379940099e-44 -1.3221727704523522e-59 5.901702981375051 -3.721728524007565e-17 -3.7009464769725056e-44 -7.248879939172746e-17 8.763176940779017" Properties=species:S:1:pos:R:3:spacegroup_kinds:I:1:forces:R:3 spacegroup="P 1" unit_cell=conventional occupancy="_JSON {\"0\": {\"In\": 1}, \"1\": {\"In\": 1}, \"2\": {\"In\": 1}, \"3\": {\"In\": 1}, \"4\": {\"In\": 1}, \"5\": {\"In\": 1}, \"6\": {\"In\": 1}, \"7\": {\"In\": 1}, \"8\": {\"O\": 1}, \"9\": {\"O\": 1}, \"10\": {\"O\": 1}, \"11\": {\"O\": 1}, \"12\": {\"O\": 1}, \"13\": {\"O\": 1}, \"14\": {\"O\": 1}, \"15\": {\"O\": 1}, \"16\": {\"O\": 1}, \"17\": {\"O\": 1}, \"18\": {\"O\": 1}, \"19\": {\"O\": 1}}" n_minim_iter=12 energy=-22572.682964669075 stress="0.08946470758093074 -6.331192777819291e-16 -1.6795262929297815e-13 -6.331192777819291e-16 0.08947523163241466 -9.354477495655977e-14 -1.6795262929297815e-13 -9.354477495655977e-14 0.08947675703744618" free_energy=-22572.682964669075 pbc="T T T"
In       1.37770570       3.16735201       1.05586166        0       0.00110160      -0.00057653       0.00128841
In       1.47431722       0.21650052       3.32572681        1      -0.00110160      -0.00057653      -0.00128841
In       1.47431722       2.73435097       5.43745014        2      -0.00110160       0.00057653       0.00128841
In       1.37770570       5.68520246       7.70731528        3       0.00110160       0.00057653      -0.00128841
In       4.32634013       2.73435097       7.70731528        4      -0.00110160       0.00057653      -0.00128841
In       4.22972861       5.68520246       5.43745014        5       0.00110160       0.00057653       0.00128841
In       4.22972861       3.16735201       3.32572681        6       0.00110160      -0.00057653      -0.00128841
In       4.32634013       0.21650052       1.05586166        7      -0.00110160      -0.00057653       0.00128841
O        2.23734307       3.48638750       7.40223450        8       0.00130802      -0.00012495      -0.00039109
O        0.61467984       0.53553601       5.74253091        9      -0.00130802      -0.00012495       0.00039109
O        0.61467984       2.41531548       3.02064603       10      -0.00130802       0.00012495      -0.00039109
O        2.23734307       5.36616697       1.36094244       11       0.00130802       0.00012495       0.00039109
O        3.46670275       2.41531548       1.36094244       12      -0.00130802       0.00012495       0.00039109
O        5.08936599       5.36616697       3.02064603       13       0.00130802       0.00012495      -0.00039109
O        5.08936599       3.48638750       5.74253091       14       0.00130802      -0.00012495       0.00039109
O        3.46670275       0.53553601       7.40223450       15      -0.00130802      -0.00012495      -0.00039109
O        5.42431125       4.42627724       0.00000000       16       0.00191121       0.00000000       0.00000000
O        3.13175749       1.47542575       4.38158847       17      -0.00191121      -0.00000000       0.00000000
O        0.27973457       1.47542575       0.00000000       18      -0.00191121       0.00000000       0.00000000
O        2.57228834       4.42627724       4.38158847       19       0.00191121      -0.00000000       0.00000000
