20
Lattice="5.757945068148639 5.728748541436403e-61 -1.4245732467632688e-43 -2.667141415862421e-61 5.876608623210992 2.6358103315100383e-17 1.8833633964348086e-43 -9.035889737979231e-18 8.528690063684252" Properties=species:S:1:pos:R:3:spacegroup_kinds:I:1:forces:R:3 spacegroup="P 1" unit_cell=conventional occupancy="_JSON {\"0\": {\"In\": 1}, \"1\": {\"In\": 1}, \"2\": {\"In\": 1}, \"3\": {\"In\": 1}, \"4\": {\"In\": 1}, \"5\": {\"In\": 1}, \"6\": {\"In\": 1}, \"7\": {\"In\": 1}, \"8\": {\"O\": 1}, \"9\": {\"O\": 1}, \"10\": {\"O\": 1}, \"11\": {\"O\": 1}, \"12\": {\"O\": 1}, \"13\": {\"O\": 1}, \"14\": {\"O\": 1}, \"15\": {\"O\": 1}, \"16\": {\"O\": 1}, \"17\": {\"O\": 1}, \"18\": {\"O\": 1}, \"19\": {\"O\": 1}}" n_minim_iter=9 energy=-22573.259568292557 stress="0.0882527022404585 -1.25581055651549e-13 2.0140665830572039e-13 -1.25581055651549e-13 0.08774635764025246 3.157277493937058e-14 2.0140665830572039e-13 3.157277493937058e-14 0.08814107737717713" free_energy=-22573.259568292557 pbc="T T T"
In       1.40656803       3.13130134       1.00655825        0      -0.00077785      -0.00399421       0.00880287
In       1.47240450       0.19299703       3.25778678        1       0.00077785      -0.00399421      -0.00880287
In       1.47240450       2.74530728       5.27090328        2       0.00077785       0.00399421       0.00880287
In       1.40656803       5.68361159       7.52213181        3      -0.00077785       0.00399421      -0.00880287
In       4.35137704       2.74530728       7.52213181        4       0.00077785       0.00399421      -0.00880287
In       4.28554056       5.68361159       5.27090328        5      -0.00077785       0.00399421       0.00880287
In       4.28554056       3.13130134       3.25778678        6      -0.00077785      -0.00399421      -0.00880287
In       4.35137704       0.19299703       1.00655825        7       0.00077785      -0.00399421       0.00880287
O        2.25492993       3.49469822       7.22734370        8      -0.00066290      -0.00409735       0.00567867
O        0.62404261       0.55639390       5.56569139        9       0.00066290      -0.00409735      -0.00567867
O        0.62404261       2.38191041       2.96299867       10       0.00066290       0.00409735       0.00567867
O        2.25492993       5.32021472       1.30134636       11      -0.00066290       0.00409735      -0.00567867
O        3.50301514       2.38191041       1.30134636       12       0.00066290       0.00409735      -0.00567867
O        5.13390246       5.32021472       2.96299867       13      -0.00066290       0.00409735       0.00567867
O        5.13390246       3.49469822       5.56569139       14      -0.00066290      -0.00409735      -0.00567867
O        3.50301514       0.55639390       7.22734370       15       0.00066290      -0.00409735       0.00567867
O        5.47924090       4.40745647       0.00000000       16      -0.00031712      -0.00000000       0.00000000
O        3.15767670       1.46915216       4.26434503       17       0.00031712       0.00000000       0.00000000
O        0.27870417       1.46915216       0.00000000       18       0.00031712       0.00000000       0.00000000
O        2.60026837       4.40745647       4.26434503       19      -0.00031712      -0.00000000      -0.00000000
