20
Lattice="5.685219246526309 6.720920420809726e-61 -5.022539087212885e-44 -9.72944954228052e-60 6.006370113174528 1.2823383997252882e-16 -5.803589102218282e-43 -1.8057315815431502e-16 9.20239511622775" Properties=species:S:1:pos:R:3:spacegroup_kinds:I:1:forces:R:3 spacegroup="P 1" unit_cell=conventional occupancy="_JSON {\"0\": {\"In\": 1}, \"1\": {\"In\": 1}, \"2\": {\"In\": 1}, \"3\": {\"In\": 1}, \"4\": {\"In\": 1}, \"5\": {\"In\": 1}, \"6\": {\"In\": 1}, \"7\": {\"In\": 1}, \"8\": {\"O\": 1}, \"9\": {\"O\": 1}, \"10\": {\"O\": 1}, \"11\": {\"O\": 1}, \"12\": {\"O\": 1}, \"13\": {\"O\": 1}, \"14\": {\"O\": 1}, \"15\": {\"O\": 1}, \"16\": {\"O\": 1}, \"17\": {\"O\": 1}, \"18\": {\"O\": 1}, \"19\": {\"O\": 1}}" n_minim_iter=7 energy=-22570.74802255605 stress="0.11931475173294412 -3.460044938624396e-13 -8.134501842994354e-16 -3.460044938624396e-13 0.11909931536869213 -4.964521201536598e-14 -8.134501842994354e-16 -4.964521201536598e-14 0.11891439571847538" free_energy=-22570.74802255605 pbc="T T T"
In       1.35098322       3.24507765       1.13124299        0      -0.00309665      -0.00108847       0.00676950
In       1.49162640       0.24189259       3.46995457        1       0.00309665      -0.00108847      -0.00676950
In       1.49162640       2.76129246       5.73244054        2       0.00309665       0.00108847       0.00676950
In       1.35098322       5.76447752       8.07115213        3      -0.00309665       0.00108847      -0.00676950
In       4.33423602       2.76129246       8.07115213        4       0.00309665       0.00108847      -0.00676950
In       4.19359284       5.76447752       5.73244054        5      -0.00309665       0.00108847       0.00676950
In       4.19359284       3.24507765       3.46995457        6      -0.00309665      -0.00108847      -0.00676950
In       4.33423602       0.24189259       1.13124299        7       0.00309665      -0.00108847       0.00676950
O        2.23398565       3.51754088       7.74822750        8      -0.00174498      -0.00532609       0.00469760
O        0.60862397       0.51435583       6.05536517        9       0.00174498      -0.00532609      -0.00469760
O        0.60862397       2.48882923       3.14702994       10       0.00174498       0.00532609       0.00469760
O        2.23398565       5.49201429       1.45416762       11      -0.00174498       0.00532609      -0.00469760
O        3.45123360       2.48882923       1.45416762       12       0.00174498       0.00532609      -0.00469760
O        5.07659527       5.49201429       3.14702994       13      -0.00174498       0.00532609       0.00469760
O        5.07659527       3.51754088       6.05536517       14      -0.00174498      -0.00532609      -0.00469760
O        3.45123360       0.51435583       7.74822750       15       0.00174498      -0.00532609       0.00469760
O        5.41440122       4.50477758       0.00000000       16      -0.00441583      -0.00000000      -0.00000000
O        3.11342765       1.50159253       4.60119756       17       0.00441583       0.00000000      -0.00000000
O        0.27081802       1.50159253       0.00000000       18       0.00441583      -0.00000000      -0.00000000
O        2.57179160       4.50477758       4.60119756       19      -0.00441583      -0.00000000      -0.00000000
