20
Lattice="5.453525454254894 1.2694927992457687e-60 -1.798451504363446e-43 3.3301333926736045e-60 5.596432964798371 -2.058215660872944e-16 -2.176553189267537e-43 3.3070511803034063e-16 7.7745843057986574" Properties=species:S:1:pos:R:3:spacegroup_kinds:I:1:forces:R:3 spacegroup="P 1" unit_cell=conventional occupancy="_JSON {\"0\": {\"In\": 1}, \"1\": {\"In\": 1}, \"2\": {\"In\": 1}, \"3\": {\"In\": 1}, \"4\": {\"In\": 1}, \"5\": {\"In\": 1}, \"6\": {\"In\": 1}, \"7\": {\"In\": 1}, \"8\": {\"O\": 1}, \"9\": {\"O\": 1}, \"10\": {\"O\": 1}, \"11\": {\"O\": 1}, \"12\": {\"O\": 1}, \"13\": {\"O\": 1}, \"14\": {\"O\": 1}, \"15\": {\"O\": 1}, \"16\": {\"O\": 1}, \"17\": {\"O\": 1}, \"18\": {\"O\": 1}, \"19\": {\"O\": 1}}" n_minim_iter=8 energy=-22574.14940185774 stress="-0.08765632070082974 1.3269652374842564e-13 2.01787929376701e-13 1.3269652374842564e-13 -0.0877401926085724 1.72371865234901e-13 2.01787929376701e-13 1.72371865234901e-13 -0.08752302806218244" free_energy=-22574.14940185774 pbc="T T T"
In       1.35731967       2.96680833       0.90154711        0       0.00046089       0.00330455       0.00534722
In       1.36944306       0.16859185       2.98574504        1      -0.00046089       0.00330455      -0.00534722
In       1.36944306       2.62962463       4.78883926        2      -0.00046089      -0.00330455       0.00534722
In       1.35731967       5.42784112       6.87303720        3       0.00046089      -0.00330455      -0.00534722
In       4.09620579       2.62962463       6.87303720        4      -0.00046089      -0.00330455      -0.00534722
In       4.08408239       5.42784112       4.78883926        5       0.00046089      -0.00330455       0.00534722
In       4.08408239       2.96680833       2.98574504        6       0.00046089       0.00330455      -0.00534722
In       4.09620579       0.16859185       0.90154711        7      -0.00046089       0.00330455       0.00534722
O        2.12093224       3.39232978       6.61759174        8      -0.00047296      -0.00599531      -0.00603490
O        0.60583049       0.59411330       5.04428472        9       0.00047296      -0.00599531       0.00603490
O        0.60583049       2.20410319       2.73029958       10       0.00047296       0.00599531      -0.00603490
O        2.12093224       5.00231967       1.15699257       11      -0.00047296       0.00599531       0.00603490
O        3.33259322       2.20410319       1.15699257       12       0.00047296       0.00599531       0.00603490
O        4.84769497       5.00231967       2.73029958       13      -0.00047296       0.00599531      -0.00603490
O        4.84769497       3.39232978       5.04428472       14      -0.00047296      -0.00599531       0.00603490
O        3.33259322       0.59411330       6.61759174       15       0.00047296      -0.00599531      -0.00603490
O        5.22191066       4.19732472       0.00000000       16       0.00118544       0.00000000      -0.00000000
O        2.95837752       1.39910824       3.88729215       17      -0.00118544       0.00000000       0.00000000
O        0.23161480       1.39910824       0.00000000       18      -0.00118544      -0.00000000       0.00000000
O        2.49514793       4.19732472       3.88729215       19       0.00118544      -0.00000000      -0.00000000
