20
Lattice="5.4973378044659515 -2.7699938606586976e-60 -4.95301464322096e-45 2.592990704316445e-60 5.608401074676096 -2.585679251422527e-16 7.121531494759262e-45 3.644112690289305e-16 7.904168901543162" Properties=species:S:1:pos:R:3:spacegroup_kinds:I:1:forces:R:3 spacegroup="P 1" unit_cell=conventional occupancy="_JSON {\"0\": {\"In\": 1}, \"1\": {\"In\": 1}, \"2\": {\"In\": 1}, \"3\": {\"In\": 1}, \"4\": {\"In\": 1}, \"5\": {\"In\": 1}, \"6\": {\"In\": 1}, \"7\": {\"In\": 1}, \"8\": {\"O\": 1}, \"9\": {\"O\": 1}, \"10\": {\"O\": 1}, \"11\": {\"O\": 1}, \"12\": {\"O\": 1}, \"13\": {\"O\": 1}, \"14\": {\"O\": 1}, \"15\": {\"O\": 1}, \"16\": {\"O\": 1}, \"17\": {\"O\": 1}, \"18\": {\"O\": 1}, \"19\": {\"O\": 1}}" n_minim_iter=1 energy=-22574.602454646145 stress="-0.058667873547853515 -5.1844756957349735e-14 -2.5524300633633404e-14 -5.1844756957349735e-14 -0.060135057464275304 4.073357333774637e-13 -2.5524300633633404e-14 4.073357333774637e-13 -0.053585310906784436" free_energy=-22574.602454646145 pbc="T T T"
In       1.36634297       2.96679036       0.90564601        0       0.01584824       0.03919962       0.00749274
In       1.38232594       0.16258982       3.04643845        1      -0.01584824       0.03919962      -0.00749274
In       1.38232594       2.64161072       4.85773046        2      -0.01584824      -0.03919962       0.00749274
In       1.36634297       5.44581125       6.99852290        3       0.01584824      -0.03919962      -0.00749274
In       4.13099484       2.64161072       6.99852290        4      -0.01584824      -0.03919962      -0.00749274
In       4.11501187       5.44581125       4.85773046        5       0.01584824      -0.03919962       0.00749274
In       4.11501187       2.96679036       3.04643845        6       0.01584824       0.03919962      -0.00749274
In       4.13099484       0.16258982       0.90564601        7      -0.01584824       0.03919962       0.00749274
O        2.14264263       3.39195498       6.71519654        8      -0.03684575       0.03362741       0.03587787
O        0.60602627       0.58775444       5.14105681        9       0.03684575       0.03362741      -0.03587787
O        0.60602627       2.21644610       2.76311209       10       0.03684575      -0.03362741       0.03587787
O        2.14264263       5.02064663       1.18897236       11      -0.03684575      -0.03362741      -0.03587787
O        3.35469517       2.21644610       1.18897236       12       0.03684575      -0.03362741      -0.03587787
O        4.89131153       5.02064663       2.76311209       13      -0.03684575      -0.03362741       0.03587787
O        4.89131153       3.39195498       5.14105681       14      -0.03684575       0.03362741      -0.03587787
O        3.35469517       0.58775444       6.71519654       15       0.03684575       0.03362741       0.03587787
O        5.26780733       4.20630081      -0.00000000       16       0.04681549       0.00000000       0.00000000
O        2.97819938       1.40210027       3.95208445       17      -0.04681549       0.00000000      -0.00000000
O        0.22953048       1.40210027      -0.00000000       18      -0.04681549      -0.00000000      -0.00000000
O        2.51913842       4.20630081       3.95208445       19       0.04681549      -0.00000000       0.00000000
20
Lattice="5.50408086453998 -2.792146966084606e-60 -4.9944949170540886e-45 2.5652645092610324e-60 5.623666966064028 -2.7820781750732086e-16 7.042835649585238e-45 3.3675424809495985e-16 7.873055280059264" Properties=species:S:1:pos:R:3:spacegroup_kinds:I:1:forces:R:3 spacegroup="P 1" unit_cell=conventional occupancy="_JSON {\"0\": {\"In\": 1}, \"1\": {\"In\": 1}, \"2\": {\"In\": 1}, \"3\": {\"In\": 1}, \"4\": {\"In\": 1}, \"5\": {\"In\": 1}, \"6\": {\"In\": 1}, \"7\": {\"In\": 1}, \"8\": {\"O\": 1}, \"9\": {\"O\": 1}, \"10\": {\"O\": 1}, \"11\": {\"O\": 1}, \"12\": {\"O\": 1}, \"13\": {\"O\": 1}, \"14\": {\"O\": 1}, \"15\": {\"O\": 1}, \"16\": {\"O\": 1}, \"17\": {\"O\": 1}, \"18\": {\"O\": 1}, \"19\": {\"O\": 1}}" n_minim_iter=2 energy=-22574.605521939782 stress="-0.056155865878945145 8.480994868927212e-13 2.793802353565703e-13 8.480994868927212e-13 -0.05681906669714815 2.868290337633162e-13 2.793802353565703e-13 2.868290337633162e-13 -0.056854560709572066" free_energy=-22574.605521939782 pbc="T T T"
In       1.36808516       2.97502994       0.90211221        0       0.04067686       0.05726520      -0.00962441
In       1.38395527       0.16319645       3.03441543        1      -0.04067686       0.05726520       0.00962441
In       1.38395527       2.64863703       4.83863985        2      -0.04067686      -0.05726520      -0.00962441
In       1.36808516       5.46047051       6.97094307        3       0.04067686      -0.05726520       0.00962441
In       4.13599570       2.64863703       6.97094307        4      -0.04067686      -0.05726520       0.00962441
In       4.12012559       5.46047051       4.83863985        5       0.04067686      -0.05726520      -0.00962441
In       4.12012559       2.97502994       3.03441543        6       0.04067686       0.05726520       0.00962441
In       4.13599570       0.16319645       0.90211221        7      -0.04067686       0.05726520      -0.00962441
O        2.14511682       3.40132852       6.68891230        8      -0.01947062       0.04264418       0.05538538
O        0.60692361       0.58949503       5.12067062        9       0.01947062       0.04264418      -0.05538538
O        0.60692361       2.22233845       2.75238466       10       0.01947062      -0.04264418       0.05538538
O        2.14511682       5.03417193       1.18414298       11      -0.01947062      -0.04264418      -0.05538538
O        3.35896404       2.22233845       1.18414298       12       0.01947062      -0.04264418      -0.05538538
O        4.89715725       5.03417193       2.75238466       13      -0.01947062      -0.04264418       0.05538538
O        4.89715725       3.40132852       5.12067062       14      -0.01947062       0.04264418      -0.05538538
O        3.35896404       0.58949503       6.68891230       15       0.01947062       0.04264418       0.05538538
O        5.27446449       4.21775022      -0.00000000       16       0.04039227      -0.00000000      -0.00000000
O        2.98165680       1.40591674       3.93652764       17      -0.04039227      -0.00000000      -0.00000000
O        0.22961637       1.40591674      -0.00000000       18      -0.04039227       0.00000000       0.00000000
O        2.52242406       4.21775022       3.93652764       19       0.04039227      -0.00000000      -0.00000000
20
Lattice="5.496973655449182 -3.837208108944149e-61 -2.2009651174116748e-44 2.7307696245011984e-60 5.631489345520019 -2.8407865875883866e-16 -1.1178156051716536e-45 3.289246783085252e-16 7.872284449486615" Properties=species:S:1:pos:R:3:spacegroup_kinds:I:1:forces:R:3 spacegroup="P 1" unit_cell=conventional occupancy="_JSON {\"0\": {\"In\": 1}, \"1\": {\"In\": 1}, \"2\": {\"In\": 1}, \"3\": {\"In\": 1}, \"4\": {\"In\": 1}, \"5\": {\"In\": 1}, \"6\": {\"In\": 1}, \"7\": {\"In\": 1}, \"8\": {\"O\": 1}, \"9\": {\"O\": 1}, \"10\": {\"O\": 1}, \"11\": {\"O\": 1}, \"12\": {\"O\": 1}, \"13\": {\"O\": 1}, \"14\": {\"O\": 1}, \"15\": {\"O\": 1}, \"16\": {\"O\": 1}, \"17\": {\"O\": 1}, \"18\": {\"O\": 1}, \"19\": {\"O\": 1}}" n_minim_iter=3 energy=-22574.606499163812 stress="-0.05723613540470671 -1.999115659166167e-14 4.4171162423756437e-13 -1.999115659166167e-14 -0.05553898393552281 8.64537187710969e-13 4.4171162423756437e-13 8.64537187710969e-13 -0.05628846207130837" free_energy=-22574.606499163812 pbc="T T T"
In       1.36691944       2.98003589       0.90189431        0       0.01732531       0.04705537      -0.00487217
In       1.38156739       0.16429122       3.03424791        1      -0.01732531       0.04705537       0.00487217
In       1.38156739       2.65145346       4.83803654        2      -0.01732531      -0.04705537      -0.00487217
In       1.36691944       5.46719813       6.97039014        3       0.01732531      -0.04705537       0.00487217
In       4.13005422       2.65145346       6.97039014        4      -0.01732531      -0.04705537       0.00487217
In       4.11540627       5.46719813       4.83803654        5       0.01732531      -0.04705537      -0.00487217
In       4.11540627       2.98003589       3.03424791        6       0.01732531       0.04705537       0.00487217
In       4.13005422       0.16429122       0.90189431        7      -0.01732531       0.04705537      -0.00487217
O        2.14202977       3.40671038       6.68908255        8      -0.02381286       0.03797554       0.03540273
O        0.60645706       0.59096571       5.11934412        9       0.02381286       0.03797554      -0.03540273
O        0.60645706       2.22477896       2.75294033       10       0.02381286      -0.03797554       0.03540273
O        2.14202977       5.04052364       1.18320190       11      -0.02381286      -0.03797554      -0.03540273
O        3.35494389       2.22477896       1.18320190       12       0.02381286      -0.03797554      -0.03540273
O        4.89051659       5.04052364       2.75294033       13      -0.02381286      -0.03797554       0.03540273
O        4.89051659       3.40671038       5.11934412       14      -0.02381286       0.03797554      -0.03540273
O        3.35494389       0.59096571       6.68908255       15       0.02381286       0.03797554       0.03540273
O        5.26828180       4.22361701      -0.00000000       16       0.02033491      -0.00000000       0.00000000
O        2.97717869       1.40787234       3.93614222       17      -0.02033491      -0.00000000       0.00000000
O        0.22869186       1.40787234      -0.00000000       18      -0.02033491       0.00000000       0.00000000
O        2.51979497       4.22361701       3.93614222       19       0.02033491       0.00000000       0.00000000
20
Lattice="5.502374261984383 -7.432663083722039e-60 -3.3357258114514575e-44 -1.3940416103045282e-61 5.629278215611854 -2.9706874597124283e-16 3.149881654192854e-44 3.102538379252851e-16 7.86764689245188" Properties=species:S:1:pos:R:3:spacegroup_kinds:I:1:forces:R:3 spacegroup="P 1" unit_cell=conventional occupancy="_JSON {\"0\": {\"In\": 1}, \"1\": {\"In\": 1}, \"2\": {\"In\": 1}, \"3\": {\"In\": 1}, \"4\": {\"In\": 1}, \"5\": {\"In\": 1}, \"6\": {\"In\": 1}, \"7\": {\"In\": 1}, \"8\": {\"O\": 1}, \"9\": {\"O\": 1}, \"10\": {\"O\": 1}, \"11\": {\"O\": 1}, \"12\": {\"O\": 1}, \"13\": {\"O\": 1}, \"14\": {\"O\": 1}, \"15\": {\"O\": 1}, \"16\": {\"O\": 1}, \"17\": {\"O\": 1}, \"18\": {\"O\": 1}, \"19\": {\"O\": 1}}" n_minim_iter=4 energy=-22574.607627753314 stress="-0.05576501000175873 3.5150699161038684e-13 -3.048623297988316e-13 3.5150699161038684e-13 -0.05610675847759115 5.949207934481016e-14 -3.048623297988316e-13 5.949207934481016e-14 -0.056108176535504636" free_energy=-22574.607627753314 pbc="T T T"
In       1.36931842       2.98067458       0.90112475        0       0.00226954      -0.00393767       0.01994500
In       1.38186871       0.16603547       3.03269869        1      -0.00226954      -0.00393767      -0.01994500
In       1.38186871       2.64860364       4.83494820        2      -0.00226954       0.00393767       0.01994500
In       1.36931842       5.46324275       6.96652214        3       0.00226954       0.00393767      -0.01994500
In       4.13305584       2.64860364       6.96652214        4      -0.00226954       0.00393767      -0.01994500
In       4.12050556       5.46324275       4.83494820        5       0.00226954       0.00393767       0.01994500
In       4.12050556       2.98067458       3.03269869        6       0.00226954      -0.00393767      -0.01994500
In       4.13305584       0.16603547       0.90112475        7      -0.00226954      -0.00393767       0.01994500
O        2.14338501       3.40676426       6.68673579        8      -0.00963863       0.01035098       0.00351409
O        0.60780212       0.59212515       5.11473455        9       0.00963863       0.01035098      -0.00351409
O        0.60780212       2.22251395       2.75291234       10       0.00963863      -0.01035098       0.00351409
O        2.14338501       5.03715306       1.18091110       11      -0.00963863      -0.01035098      -0.00351409
O        3.35898925       2.22251395       1.18091110       12       0.00963863      -0.01035098      -0.00351409
O        4.89457215       5.03715306       2.75291234       13      -0.00963863      -0.01035098       0.00351409
O        4.89457215       3.40676426       5.11473455       14      -0.00963863       0.01035098      -0.00351409
O        3.35898925       0.59212515       6.68673579       15       0.00963863       0.01035098       0.00351409
O        5.27459754       4.22195866      -0.00000000       16      -0.01149069       0.00000000      -0.00000000
O        2.97896385       1.40731955       3.93382345       17       0.01149069       0.00000000      -0.00000000
O        0.22777672       1.40731955      -0.00000000       18       0.01149069       0.00000000      -0.00000000
O        2.52341041       4.22195866       3.93382345       19      -0.01149069      -0.00000000      -0.00000000
20
Lattice="5.498384266961738 -5.0106131207670634e-61 -1.0651498028851449e-44 5.607353322580253e-61 5.632056102467411 -2.9111374829134757e-16 -6.637778159136626e-44 3.1889739871483573e-16 7.869472824299487" Properties=species:S:1:pos:R:3:spacegroup_kinds:I:1:forces:R:3 spacegroup="P 1" unit_cell=conventional occupancy="_JSON {\"0\": {\"In\": 1}, \"1\": {\"In\": 1}, \"2\": {\"In\": 1}, \"3\": {\"In\": 1}, \"4\": {\"In\": 1}, \"5\": {\"In\": 1}, \"6\": {\"In\": 1}, \"7\": {\"In\": 1}, \"8\": {\"O\": 1}, \"9\": {\"O\": 1}, \"10\": {\"O\": 1}, \"11\": {\"O\": 1}, \"12\": {\"O\": 1}, \"13\": {\"O\": 1}, \"14\": {\"O\": 1}, \"15\": {\"O\": 1}, \"16\": {\"O\": 1}, \"17\": {\"O\": 1}, \"18\": {\"O\": 1}, \"19\": {\"O\": 1}}" n_minim_iter=5 energy=-22574.6077987176 stress="-0.056354629035841985 -8.324371890108664e-14 6.210713703964526e-14 -8.324371890108664e-14 -0.05560515848376549 -4.5169078556537557e-13 6.210713703964526e-14 -4.5169078556537557e-13 -0.05563379957200415" free_energy=-22574.6077987176 pbc="T T T"
In       1.36862094       2.98242827       0.90218831        0      -0.00890509      -0.00662006       0.01200152
In       1.38057120       0.16640022       3.03254810        1       0.00890509      -0.00662006      -0.01200152
In       1.38057120       2.64962783       4.83692472        2       0.00890509       0.00662006       0.01200152
In       1.36862094       5.46565588       6.96728452        3      -0.00890509       0.00662006      -0.01200152
In       4.12976333       2.64962783       6.96728452        4       0.00890509       0.00662006      -0.01200152
In       4.11781307       5.46565588       4.83692472        5      -0.00890509       0.00662006       0.01200152
In       4.11781307       2.98242827       3.03254810        6      -0.00890509      -0.00662006      -0.01200152
In       4.12976333       0.16640022       0.90218831        7       0.00890509      -0.00662006       0.01200152
O        2.14115540       3.40928825       6.68880794        8      -0.00686830       0.00483384      -0.00106340
O        0.60803674       0.59326020       5.11540130        9       0.00686830       0.00483384       0.00106340
O        0.60803674       2.22276785       2.75407153       10       0.00686830      -0.00483384      -0.00106340
O        2.14115540       5.03879590       1.18066488       11      -0.00686830      -0.00483384       0.00106340
O        3.35722887       2.22276785       1.18066488       12       0.00686830      -0.00483384       0.00106340
O        4.89034753       5.03879590       2.75407153       13      -0.00686830      -0.00483384      -0.00106340
O        4.89034753       3.40928825       5.11540130       14      -0.00686830       0.00483384       0.00106340
O        3.35722887       0.59326020       6.68880794       15       0.00686830       0.00483384      -0.00106340
O        5.27049967       4.22404208      -0.00000000       16      -0.01781563      -0.00000000      -0.00000000
O        2.97707673       1.40801403       3.93473641       17       0.01781563      -0.00000000      -0.00000000
O        0.22788459       1.40801403      -0.00000000       18       0.01781563       0.00000000       0.00000000
O        2.52130754       4.22404208       3.93473641       19      -0.01781563      -0.00000000       0.00000000
20
Lattice="5.500700027138148 -4.895301302422743e-61 -1.0774867180890928e-44 5.5985913560061486e-61 5.629901020995753 -2.959105655714313e-16 -6.709379408208381e-44 3.1199927708626353e-16 7.8691709292582335" Properties=species:S:1:pos:R:3:spacegroup_kinds:I:1:forces:R:3 spacegroup="P 1" unit_cell=conventional occupancy="_JSON {\"0\": {\"In\": 1}, \"1\": {\"In\": 1}, \"2\": {\"In\": 1}, \"3\": {\"In\": 1}, \"4\": {\"In\": 1}, \"5\": {\"In\": 1}, \"6\": {\"In\": 1}, \"7\": {\"In\": 1}, \"8\": {\"O\": 1}, \"9\": {\"O\": 1}, \"10\": {\"O\": 1}, \"11\": {\"O\": 1}, \"12\": {\"O\": 1}, \"13\": {\"O\": 1}, \"14\": {\"O\": 1}, \"15\": {\"O\": 1}, \"16\": {\"O\": 1}, \"17\": {\"O\": 1}, \"18\": {\"O\": 1}, \"19\": {\"O\": 1}}" n_minim_iter=6 energy=-22574.607992027348 stress="-0.055770912781085626 4.325638550255572e-13 7.72109090364152e-14 4.325638550255572e-13 -0.055823442490447336 4.611750036883003e-13 7.72109090364152e-14 4.611750036883003e-13 -0.05579520692813215" free_energy=-22574.607992027348 pbc="T T T"
In       1.36912251       2.98096851       0.90357248        0      -0.00183771      -0.00222153      -0.00321059
In       1.38122750       0.16601800       3.03101299        1       0.00183771      -0.00222153       0.00321059
In       1.38122750       2.64893251       4.83815794        2       0.00183771       0.00222153      -0.00321059
In       1.36912251       5.46388302       6.96559845        3      -0.00183771       0.00222153       0.00321059
In       4.13157751       2.64893251       6.96559845        4       0.00183771       0.00222153       0.00321059
In       4.11947253       5.46388302       4.83815794        5      -0.00183771       0.00222153      -0.00321059
In       4.11947253       2.98096851       3.03101299        6      -0.00183771      -0.00222153       0.00321059
In       4.13157751       0.16601800       0.90357248        7       0.00183771      -0.00222153      -0.00321059
O        2.14129107       3.40878960       6.68884874        8       0.00362580      -0.00040482       0.00874216
O        0.60905894       0.59383909       5.11490765        9      -0.00362580      -0.00040482      -0.00874216
O        0.60905894       2.22111142       2.75426328       10      -0.00362580       0.00040482       0.00874216
O        2.14129107       5.03606193       1.18032218       11       0.00362580       0.00040482      -0.00874216
O        3.35940895       2.22111142       1.18032218       12      -0.00362580       0.00040482      -0.00874216
O        4.89164109       5.03606193       2.75426328       13       0.00362580       0.00040482       0.00874216
O        4.89164109       3.40878960       5.11490765       14       0.00362580      -0.00040482      -0.00874216
O        3.35940895       0.59383909       6.68884874       15      -0.00362580      -0.00040482       0.00874216
O        5.27158488       4.22242577      -0.00000000       16      -0.00855891       0.00000000      -0.00000000
O        2.97946516       1.40747526       3.93458546       17       0.00855891      -0.00000000       0.00000000
O        0.22911515       1.40747526      -0.00000000       18       0.00855891       0.00000000       0.00000000
O        2.52123487       4.22242577       3.93458546       19      -0.00855891       0.00000000      -0.00000000
