20
Lattice="5.682000342644976 -4.1065695764727067e-60 -5.3036204809570186e-42 8.412346848036668e-58 5.936944260234177 1.2546800887581934e-15 1.3506862100083586e-44 2.2935741787038664e-15 5.893340995272234" Properties=species:S:1:pos:R:3:spacegroup_kinds:I:1:forces:R:3 spacegroup="P 1" unit_cell=conventional occupancy="_JSON {\"0\": {\"In\": 1}, \"1\": {\"In\": 1}, \"2\": {\"In\": 1}, \"3\": {\"In\": 1}, \"4\": {\"In\": 1}, \"5\": {\"In\": 1}, \"6\": {\"In\": 1}, \"7\": {\"In\": 1}, \"8\": {\"O\": 1}, \"9\": {\"O\": 1}, \"10\": {\"O\": 1}, \"11\": {\"O\": 1}, \"12\": {\"O\": 1}, \"13\": {\"O\": 1}, \"14\": {\"O\": 1}, \"15\": {\"O\": 1}, \"16\": {\"O\": 1}, \"17\": {\"O\": 1}, \"18\": {\"O\": 1}, \"19\": {\"O\": 1}}" n_minim_iter=45 energy=-22573.95863128862 stress="-0.09435273018566154 1.2915577057612364e-13 -9.290322963219715e-14 1.2915577057612364e-13 -0.0943245630094804 1.1839422955936953e-13 -9.290322963219715e-14 1.1839422955936953e-13 -0.09485951698568838" free_energy=-22573.95863128862 pbc="T T T"
In       1.49497880       3.26868969       0.66719960        0       0.00170236       0.00330170      -0.00153644
In       1.34602137       0.30021756       2.27947090        1      -0.00170236       0.00330170       0.00153644
In       1.34602137       2.66825457       3.61387010        2      -0.00170236      -0.00330170      -0.00153644
In       1.49497880       5.63672670       5.22614140        3       0.00170236      -0.00330170       0.00153644
In       4.18702154       2.66825457       5.22614140        4      -0.00170236      -0.00330170       0.00153644
In       4.33597897       5.63672670       3.61387010        5       0.00170236      -0.00330170      -0.00153644
In       4.33597897       3.26868969       2.27947090        6       0.00170236       0.00330170       0.00153644
In       4.18702154       0.30021756       0.66719960        7      -0.00170236       0.00330170      -0.00153644
O        2.74977364       4.01775931       4.53405442        8      -0.00009371       0.00507588       0.00087105
O        0.09122653       1.04928718       4.30595707        9       0.00009371       0.00507588      -0.00087105
O        0.09122653       1.91918495       1.58738392       10       0.00009371      -0.00507588       0.00087105
O        2.74977364       4.88765708       1.35928657       11      -0.00009371      -0.00507588      -0.00087105
O        2.93222670       1.91918495       1.35928657       12       0.00009371      -0.00507588      -0.00087105
O        5.59077382       4.88765708       1.58738392       13      -0.00009371      -0.00507588       0.00087105
O        5.59077382       4.01775931       4.30595707       14      -0.00009371       0.00507588      -0.00087105
O        2.93222670       1.04928718       4.53405442       15       0.00009371       0.00507588       0.00087105
O        5.43437679       4.45270820       0.00000000       16      -0.00334308       0.00000000      -0.00000000
O        3.08862373       1.48423607       2.94667050       17       0.00334308       0.00000000      -0.00000000
O        0.24762355       1.48423607       0.00000000       18       0.00334308      -0.00000000       0.00000000
O        2.59337662       4.45270820       2.94667050       19      -0.00334308       0.00000000       0.00000000
