20
Lattice="5.723634055365113 6.766333422840205e-61 -5.056476191580249e-44 -9.795191060428983e-60 6.0469549261267606 1.2910031112088784e-16 -5.842803731641219e-43 -1.8179328407226542e-16 9.264575347793143" Properties=species:S:1:pos:R:3:spacegroup_kinds:I:1:forces:R:3 spacegroup="P 1" unit_cell=conventional occupancy="_JSON {\"0\": {\"In\": 1}, \"1\": {\"In\": 1}, \"2\": {\"In\": 1}, \"3\": {\"In\": 1}, \"4\": {\"In\": 1}, \"5\": {\"In\": 1}, \"6\": {\"In\": 1}, \"7\": {\"In\": 1}, \"8\": {\"O\": 1}, \"9\": {\"O\": 1}, \"10\": {\"O\": 1}, \"11\": {\"O\": 1}, \"12\": {\"O\": 1}, \"13\": {\"O\": 1}, \"14\": {\"O\": 1}, \"15\": {\"O\": 1}, \"16\": {\"O\": 1}, \"17\": {\"O\": 1}, \"18\": {\"O\": 1}, \"19\": {\"O\": 1}}" n_minim_iter=7 energy=-22570.74802255605 stress="0.11931475173294412 -3.460044938624396e-13 -8.134501842994354e-16 -3.460044938624396e-13 0.11909931536869213 -4.964521201536598e-14 -8.134501842994354e-16 -4.964521201536598e-14 0.11891439571847538" free_energy=-22570.74802255605 pbc="T T T"
In       1.36011176       3.26700452       1.13888675        0      -0.00309665      -0.00108847       0.00676950
In       1.50170526       0.24352705       3.49340092        1       0.00309665      -0.00108847      -0.00676950
In       1.50170526       2.77995041       5.77117442        2       0.00309665       0.00108847       0.00676950
In       1.36011176       5.80342787       8.12568860        3      -0.00309665       0.00108847      -0.00676950
In       4.36352229       2.77995041       8.12568860        4       0.00309665       0.00108847      -0.00676950
In       4.22192879       5.80342787       5.77117442        5      -0.00309665       0.00108847       0.00676950
In       4.22192879       3.26700452       3.49340092        6      -0.00309665      -0.00108847      -0.00676950
In       4.36352229       0.24352705       1.13888675        7       0.00309665      -0.00108847       0.00676950
O        2.24908061       3.54130877       7.80058198        8      -0.00174498      -0.00532609       0.00469760
O        0.61273642       0.51783131       6.09628104        9       0.00174498      -0.00532609      -0.00469760
O        0.61273642       2.50564615       3.16829430       10       0.00174498       0.00532609       0.00469760
O        2.24908061       5.52912362       1.46399337       11      -0.00174498       0.00532609      -0.00469760
O        3.47455345       2.50564615       1.46399337       12       0.00174498       0.00532609      -0.00469760
O        5.11089763       5.52912362       3.16829430       13      -0.00174498       0.00532609       0.00469760
O        5.11089763       3.54130877       6.09628104       14      -0.00174498      -0.00532609      -0.00469760
O        3.47455345       0.51783131       7.80058198       15       0.00174498      -0.00532609       0.00469760
O        5.45098612       4.53521619       0.00000000       16      -0.00441583      -0.00000000      -0.00000000
O        3.13446496       1.51173873       4.63228767       17       0.00441583       0.00000000      -0.00000000
O        0.27264793       1.51173873       0.00000000       18       0.00441583      -0.00000000      -0.00000000
O        2.58916910       4.53521619       4.63228767       19      -0.00441583      -0.00000000      -0.00000000
