20
Lattice="5.1819884517981745 -1.4071869921849178e-59 5.840958363275983e-44 6.614543895944997e-60 5.441122649137847 -1.615902237220411e-16 -8.972754995984273e-44 3.8482378885425173e-16 7.2782861452303536" Properties=species:S:1:pos:R:3:spacegroup_kinds:I:1:forces:R:3 spacegroup="P 1" unit_cell=conventional occupancy="_JSON {\"0\": {\"In\": 1}, \"1\": {\"In\": 1}, \"2\": {\"In\": 1}, \"3\": {\"In\": 1}, \"4\": {\"In\": 1}, \"5\": {\"In\": 1}, \"6\": {\"In\": 1}, \"7\": {\"In\": 1}, \"8\": {\"O\": 1}, \"9\": {\"O\": 1}, \"10\": {\"O\": 1}, \"11\": {\"O\": 1}, \"12\": {\"O\": 1}, \"13\": {\"O\": 1}, \"14\": {\"O\": 1}, \"15\": {\"O\": 1}, \"16\": {\"O\": 1}, \"17\": {\"O\": 1}, \"18\": {\"O\": 1}, \"19\": {\"O\": 1}}" n_minim_iter=12 energy=-22570.13731968566 stress="-0.23934209689744013 5.597920880479173e-14 -4.4866833290272114e-13 5.597920880479173e-14 -0.23928384478730882 -3.427683243421412e-13 -4.4866833290272114e-13 -3.427683243421412e-13 -0.2391810194167888" free_energy=-22570.13731968566 pbc="T T T"
In       1.27948565       2.94912748       0.93479064        0       0.00120098       0.00127247      -0.00160995
In       1.31150858       0.22856615       2.70435243        1      -0.00120098       0.00127247       0.00160995
In       1.31150858       2.49199517       4.57393371        2      -0.00120098      -0.00127247      -0.00160995
In       1.27948565       5.21255650       6.34349550        3       0.00120098      -0.00127247       0.00160995
In       3.90250280       2.49199517       6.34349550        4      -0.00120098      -0.00127247       0.00160995
In       3.87047988       5.21255650       4.57393371        5       0.00120098      -0.00127247      -0.00160995
In       3.87047988       2.94912748       2.70435243        6       0.00120098       0.00127247       0.00160995
In       3.90250280       0.22856615       0.93479064        7      -0.00120098       0.00127247      -0.00160995
O        2.02004737       3.28190668       6.27753703        8      -0.00018435       0.00118691       0.00100819
O        0.57094685       0.56134536       4.63989218        9       0.00018435       0.00118691      -0.00100819
O        0.57094685       2.15921596       2.63839396       10       0.00018435      -0.00118691       0.00100819
O        2.02004737       4.87977729       1.00074911       11      -0.00018435      -0.00118691      -0.00100819
O        3.16194108       2.15921596       1.00074911       12       0.00018435      -0.00118691      -0.00100819
O        4.61104160       4.87977729       2.63839396       13      -0.00018435      -0.00118691       0.00100819
O        4.61104160       3.28190668       4.63989218       14      -0.00018435       0.00118691      -0.00100819
O        3.16194108       0.56134536       6.27753703       15       0.00018435       0.00118691       0.00100819
O        4.85358853       4.08084199       0.00000000       16      -0.00173725      -0.00000000      -0.00000000
O        2.91939415       1.36028066       3.63914307       17       0.00173725       0.00000000       0.00000000
O        0.32839992       1.36028066       0.00000000       18       0.00173725      -0.00000000      -0.00000000
O        2.26259430       4.08084199       3.63914307       19      -0.00173725       0.00000000      -0.00000000
