20
Lattice="5.683640790054914 -1.1306602093088134e-62 3.770312318082794e-44 3.844517025378321e-62 5.757719905363515 -9.021258441481738e-18 -9.262673886261854e-44 -1.5181708679859583e-17 8.23068986804563" Properties=species:S:1:pos:R:3:spacegroup_kinds:I:1:forces:R:3 spacegroup="P 1" unit_cell=conventional occupancy="_JSON {\"0\": {\"In\": 1}, \"1\": {\"In\": 1}, \"2\": {\"In\": 1}, \"3\": {\"In\": 1}, \"4\": {\"In\": 1}, \"5\": {\"In\": 1}, \"6\": {\"In\": 1}, \"7\": {\"In\": 1}, \"8\": {\"O\": 1}, \"9\": {\"O\": 1}, \"10\": {\"O\": 1}, \"11\": {\"O\": 1}, \"12\": {\"O\": 1}, \"13\": {\"O\": 1}, \"14\": {\"O\": 1}, \"15\": {\"O\": 1}, \"16\": {\"O\": 1}, \"17\": {\"O\": 1}, \"18\": {\"O\": 1}, \"19\": {\"O\": 1}}" n_minim_iter=5 energy=-22574.875582783632 stress="0.025763735850137318 -1.1127679724901042e-13 -8.862166609476571e-13 -1.1127679724901042e-13 0.02576278427872618 1.457742653054087e-13 -8.862166609476571e-13 1.457742653054087e-13 0.025712491950568673" free_energy=-22574.875582783632 pbc="T T T"
In       1.40858261       3.03777254       0.94560522        0      -0.00332084       0.00275021       0.00022954
In       1.43323778       0.15891259       3.16973972        1       0.00332084       0.00275021      -0.00022954
In       1.43323778       2.71994736       5.06095015        2       0.00332084      -0.00275021       0.00022954
In       1.40858261       5.59880731       7.28508465        3      -0.00332084      -0.00275021      -0.00022954
In       4.27505818       2.71994736       7.28508465        4       0.00332084      -0.00275021      -0.00022954
In       4.25040301       5.59880731       5.06095015        5      -0.00332084      -0.00275021       0.00022954
In       4.25040301       3.03777254       3.16973972        6      -0.00332084       0.00275021      -0.00022954
In       4.27505818       0.15891259       0.94560522        7       0.00332084       0.00275021       0.00022954
O        2.21819009       3.47368074       6.99011288        8      -0.00335714      -0.00255802      -0.00219313
O        0.62363030       0.59482079       5.35592192        9       0.00335714      -0.00255802       0.00219313
O        0.62363030       2.28403917       2.87476794       10       0.00335714       0.00255802      -0.00219313
O        2.21819009       5.16289912       1.24057699       11      -0.00335714       0.00255802       0.00219313
O        3.46545070       2.28403917       1.24057699       12       0.00335714       0.00255802       0.00219313
O        5.06001049       5.16289912       2.87476794       13      -0.00335714       0.00255802      -0.00219313
O        5.06001049       3.47368074       5.35592192       14      -0.00335714      -0.00255802       0.00219313
O        3.46545070       0.59482079       6.99011288       15       0.00335714      -0.00255802      -0.00219313
O        5.44415295       4.31828993      -0.00000000       16       0.00224729       0.00000000       0.00000000
O        3.08130823       1.43942998       4.11534493       17      -0.00224729       0.00000000      -0.00000000
O        0.23948784       1.43942998      -0.00000000       18      -0.00224729       0.00000000       0.00000000
O        2.60233256       4.31828993       4.11534493       19       0.00224729      -0.00000000      -0.00000000
