20
Lattice="5.403945205824171 1.2579513167872042e-60 -1.7821010402233406e-43 3.2998577769638834e-60 5.545553485267547 -2.0395035736834607e-16 -2.1567652468160404e-43 3.276985414503298e-16 7.703902354360006" Properties=species:S:1:pos:R:3:spacegroup_kinds:I:1:forces:R:3 spacegroup="P 1" unit_cell=conventional occupancy="_JSON {\"0\": {\"In\": 1}, \"1\": {\"In\": 1}, \"2\": {\"In\": 1}, \"3\": {\"In\": 1}, \"4\": {\"In\": 1}, \"5\": {\"In\": 1}, \"6\": {\"In\": 1}, \"7\": {\"In\": 1}, \"8\": {\"O\": 1}, \"9\": {\"O\": 1}, \"10\": {\"O\": 1}, \"11\": {\"O\": 1}, \"12\": {\"O\": 1}, \"13\": {\"O\": 1}, \"14\": {\"O\": 1}, \"15\": {\"O\": 1}, \"16\": {\"O\": 1}, \"17\": {\"O\": 1}, \"18\": {\"O\": 1}, \"19\": {\"O\": 1}}" n_minim_iter=8 energy=-22574.14940185774 stress="-0.08765632070082974 1.3269652374842564e-13 2.01787929376701e-13 1.3269652374842564e-13 -0.0877401926085724 1.72371865234901e-13 2.01787929376701e-13 1.72371865234901e-13 -0.08752302806218244" free_energy=-22574.14940185774 pbc="T T T"
In       1.34497971       2.93983585       0.89335077        0       0.00046089       0.00330455       0.00534722
In       1.35699289       0.16705911       2.95860040        1      -0.00046089       0.00330455      -0.00534722
In       1.35699289       2.60571763       4.74530195        2      -0.00046089      -0.00330455       0.00534722
In       1.34497971       5.37849437       6.81055158        3       0.00046089      -0.00330455      -0.00534722
In       4.05896549       2.60571763       6.81055158        4      -0.00046089      -0.00330455      -0.00534722
In       4.04695232       5.37849437       4.74530195        5       0.00046089      -0.00330455       0.00534722
In       4.04695232       2.93983585       2.95860040        6       0.00046089       0.00330455      -0.00534722
In       4.05896549       0.16705911       0.89335077        7      -0.00046089       0.00330455       0.00534722
O        2.10164997       3.36148871       6.55742848        8      -0.00047296      -0.00599531      -0.00603490
O        0.60032263       0.58871197       4.99842505        9       0.00047296      -0.00599531       0.00603490
O        0.60032263       2.18406478       2.70547730       10       0.00047296       0.00599531      -0.00603490
O        2.10164997       4.95684152       1.14647387       11      -0.00047296       0.00599531       0.00603490
O        3.30229524       2.18406478       1.14647387       12       0.00047296       0.00599531       0.00603490
O        4.80362257       4.95684152       2.70547730       13      -0.00047296       0.00599531      -0.00603490
O        4.80362257       3.36148871       4.99842505       14      -0.00047296      -0.00599531       0.00603490
O        3.30229524       0.58871197       6.55742848       15       0.00047296      -0.00599531      -0.00603490
O        5.17443611       4.15916511       0.00000000       16       0.00118544       0.00000000      -0.00000000
O        2.93148169       1.38638837       3.85195118       17      -0.00118544       0.00000000       0.00000000
O        0.22950909       1.38638837       0.00000000       18      -0.00118544      -0.00000000       0.00000000
O        2.47246351       4.15916511       3.85195118       19       0.00118544      -0.00000000      -0.00000000
