20
Lattice="5.359024155584423 1.1650229137176501e-59 1.2612586914064177e-43 -9.326379508015243e-60 5.50754333276521 -2.471232284281842e-16 -2.052164361234355e-43 3.0564221226032583e-16 7.60481249934534" Properties=species:S:1:pos:R:3:spacegroup_kinds:I:1:forces:R:3 spacegroup="P 1" unit_cell=conventional occupancy="_JSON {\"0\": {\"In\": 1}, \"1\": {\"In\": 1}, \"2\": {\"In\": 1}, \"3\": {\"In\": 1}, \"4\": {\"In\": 1}, \"5\": {\"In\": 1}, \"6\": {\"In\": 1}, \"7\": {\"In\": 1}, \"8\": {\"O\": 1}, \"9\": {\"O\": 1}, \"10\": {\"O\": 1}, \"11\": {\"O\": 1}, \"12\": {\"O\": 1}, \"13\": {\"O\": 1}, \"14\": {\"O\": 1}, \"15\": {\"O\": 1}, \"16\": {\"O\": 1}, \"17\": {\"O\": 1}, \"18\": {\"O\": 1}, \"19\": {\"O\": 1}}" n_minim_iter=9 energy=-22573.48153108061 stress="-0.12059230957190685 -5.935546976654685e-13 -3.4860692436543636e-13 -5.935546976654685e-13 -0.12058487159298635 9.51532396101651e-14 -3.4860692436543636e-13 9.51532396101651e-14 -0.12059570761648804" free_energy=-22573.48153108061 pbc="T T T"
In       1.33225832       2.92745973       0.90066786        0       0.00215202      -0.00160273      -0.00118936
In       1.34725376       0.17368807       2.90173839        1      -0.00215202      -0.00160273       0.00118936
In       1.34725376       2.58008360       4.70307411        2      -0.00215202       0.00160273      -0.00118936
In       1.33225832       5.33385527       6.70414464        3       0.00215202       0.00160273       0.00118936
In       4.02676584       2.58008360       6.70414464        4      -0.00215202       0.00160273       0.00118936
In       4.01177040       5.33385527       4.70307411        5       0.00215202       0.00160273      -0.00118936
In       4.01177040       2.92745973       2.90173839        6       0.00215202      -0.00160273       0.00118936
In       4.02676584       0.17368807       0.90066786        7      -0.00215202      -0.00160273      -0.00118936
O        2.08338156       3.33824742       6.48912116        8      -0.00762360      -0.00360642       0.00145120
O        0.59613052       0.58447576       4.91809759        9       0.00762360      -0.00360642      -0.00145120
O        0.59613052       2.16929591       2.68671491       10       0.00762360       0.00360642       0.00145120
O        2.08338156       4.92306758       1.11569134       11      -0.00762360       0.00360642      -0.00145120
O        3.27564260       2.16929591       1.11569134       12       0.00762360       0.00360642      -0.00145120
O        4.76289364       4.92306758       2.68671491       13      -0.00762360       0.00360642       0.00145120
O        4.76289364       3.33824742       4.91809759       14      -0.00762360      -0.00360642      -0.00145120
O        3.27564260       0.58447576       6.48912116       15       0.00762360      -0.00360642       0.00145120
O        5.12194823       4.13065750      -0.00000000       16      -0.00156997       0.00000000      -0.00000000
O        2.91658800       1.37688583       3.80240625       17       0.00156997      -0.00000000      -0.00000000
O        0.23707592       1.37688583      -0.00000000       18       0.00156997       0.00000000      -0.00000000
O        2.44243616       4.13065750       3.80240625       19      -0.00156997      -0.00000000      -0.00000000
