20
Lattice="5.775053694652528 2.8849937667960313e-62 6.053110201606592e-44 -5.261552422631813e-62 5.8245462132574435 8.758374916548943e-18 6.969922249588337e-44 -3.376825115355115e-17 8.388777169318695" Properties=species:S:1:pos:R:3:spacegroup_kinds:I:1:forces:R:3 spacegroup="P 1" unit_cell=conventional occupancy="_JSON {\"0\": {\"In\": 1}, \"1\": {\"In\": 1}, \"2\": {\"In\": 1}, \"3\": {\"In\": 1}, \"4\": {\"In\": 1}, \"5\": {\"In\": 1}, \"6\": {\"In\": 1}, \"7\": {\"In\": 1}, \"8\": {\"O\": 1}, \"9\": {\"O\": 1}, \"10\": {\"O\": 1}, \"11\": {\"O\": 1}, \"12\": {\"O\": 1}, \"13\": {\"O\": 1}, \"14\": {\"O\": 1}, \"15\": {\"O\": 1}, \"16\": {\"O\": 1}, \"17\": {\"O\": 1}, \"18\": {\"O\": 1}, \"19\": {\"O\": 1}}" n_minim_iter=6 energy=-22574.26734770513 stress="0.06649336037596476 -6.653934249627889e-13 3.8874330208349066e-13 -6.653934249627889e-13 0.06630484217525362 1.7919645352277142e-13 3.8874330208349066e-13 1.7919645352277142e-13 0.066296418937318" free_energy=-22574.26734770513 pbc="T T T"
In       1.42800675       3.07151090       0.97163557        0      -0.00693671       0.00431579      -0.00316463
In       1.45952010       0.15923779       3.22275302        1       0.00693671       0.00431579       0.00316463
In       1.45952010       2.75303532       5.16602415        2       0.00693671      -0.00431579      -0.00316463
In       1.42800675       5.66530842       7.41714160        3      -0.00693671      -0.00431579       0.00316463
In       4.34704695       2.75303532       7.41714160        4       0.00693671      -0.00431579       0.00316463
In       4.31553359       5.66530842       5.16602415        5      -0.00693671      -0.00431579      -0.00316463
In       4.31553359       3.07151090       3.22275302        6      -0.00693671       0.00431579       0.00316463
In       4.34704695       0.15923779       0.97163557        7       0.00693671       0.00431579      -0.00316463
O        2.25436136       3.49870098       7.12233640        8       0.00031685       0.00064172       0.00391183
O        0.63316549       0.58642787       5.46082936        9      -0.00031685       0.00064172      -0.00391183
O        0.63316549       2.32584524       2.92794781       10      -0.00031685      -0.00064172       0.00391183
O        2.25436136       5.23811834       1.26644077       11       0.00031685      -0.00064172      -0.00391183
O        3.52069234       2.32584524       1.26644077       12      -0.00031685      -0.00064172      -0.00391183
O        5.14188820       5.23811834       2.92794781       13       0.00031685      -0.00064172       0.00391183
O        5.14188820       3.49870098       5.46082936       14       0.00031685       0.00064172      -0.00391183
O        3.52069234       0.58642787       7.12233640       15      -0.00031685       0.00064172       0.00391183
O        5.51415409       4.36840966       0.00000000       16       0.00835889      -0.00000000      -0.00000000
O        3.14842645       1.45613655       4.19438858       17      -0.00835889      -0.00000000      -0.00000000
O        0.26089960       1.45613655       0.00000000       18      -0.00835889       0.00000000      -0.00000000
O        2.62662725       4.36840966       4.19438858       19       0.00835889      -0.00000000       0.00000000
