20
Lattice="5.800284420062042 5.770873205296257e-61 -1.4350484262426246e-43 -2.6867534541282392e-61 5.91982053260065 2.6551919858818588e-17 1.897212154052101e-43 -9.10233248985321e-18 8.591403272249607" Properties=species:S:1:pos:R:3:spacegroup_kinds:I:1:forces:R:3 spacegroup="P 1" unit_cell=conventional occupancy="_JSON {\"0\": {\"In\": 1}, \"1\": {\"In\": 1}, \"2\": {\"In\": 1}, \"3\": {\"In\": 1}, \"4\": {\"In\": 1}, \"5\": {\"In\": 1}, \"6\": {\"In\": 1}, \"7\": {\"In\": 1}, \"8\": {\"O\": 1}, \"9\": {\"O\": 1}, \"10\": {\"O\": 1}, \"11\": {\"O\": 1}, \"12\": {\"O\": 1}, \"13\": {\"O\": 1}, \"14\": {\"O\": 1}, \"15\": {\"O\": 1}, \"16\": {\"O\": 1}, \"17\": {\"O\": 1}, \"18\": {\"O\": 1}, \"19\": {\"O\": 1}}" n_minim_iter=9 energy=-22573.259568292557 stress="0.0882527022404585 -1.25581055651549e-13 2.0140665830572039e-13 -1.25581055651549e-13 0.08774635764025246 3.157277493937058e-14 2.0140665830572039e-13 3.157277493937058e-14 0.08814107737717713" free_energy=-22573.259568292557 pbc="T T T"
In       1.41691081       3.15432644       1.01395968        0      -0.00077785      -0.00399421       0.00880287
In       1.48323140       0.19441618       3.28174195        1       0.00077785      -0.00399421      -0.00880287
In       1.48323140       2.76549409       5.30966132        2       0.00077785       0.00399421       0.00880287
In       1.41691081       5.72540436       7.57744359        3      -0.00077785       0.00399421      -0.00880287
In       4.38337361       2.76549409       7.57744359        4       0.00077785       0.00399421      -0.00880287
In       4.31705302       5.72540436       5.30966132        5      -0.00077785       0.00399421       0.00880287
In       4.31705302       3.15432644       3.28174195        6      -0.00077785      -0.00399421      -0.00880287
In       4.38337361       0.19441618       1.01395968        7       0.00077785      -0.00399421       0.00880287
O        2.27151089       3.52039545       7.28048784        8      -0.00066290      -0.00409735       0.00567867
O        0.62863132       0.56048518       5.60661707        9       0.00066290      -0.00409735      -0.00567867
O        0.62863132       2.39942508       2.98478621       10       0.00066290       0.00409735       0.00567867
O        2.27151089       5.35933535       1.31091543       11      -0.00066290       0.00409735      -0.00567867
O        3.52877353       2.39942508       1.31091543       12       0.00066290       0.00409735      -0.00567867
O        5.17165310       5.35933535       2.98478621       13      -0.00066290       0.00409735       0.00567867
O        5.17165310       3.52039545       5.60661707       14      -0.00066290      -0.00409735      -0.00567867
O        3.52877353       0.56048518       7.28048784       15       0.00066290      -0.00409735       0.00567867
O        5.51953088       4.43986540       0.00000000       16      -0.00031712      -0.00000000       0.00000000
O        3.18089575       1.47995513       4.29570164       17       0.00031712       0.00000000       0.00000000
O        0.28075354       1.47995513       0.00000000       18       0.00031712       0.00000000       0.00000000
O        2.61938867       4.43986540       4.29570164       19      -0.00031712      -0.00000000      -0.00000000
