40
Lattice="8.513135464919793 6.67237877863602e-10 1.2332778204844459e-14 -2.83771182226901 8.026261088316891 -1.1557041353845074e-09 -2.837711821325404 -4.013130543491198 6.950946000659426" Properties=species:S:1:pos:R:3:spacegroup_kinds:I:1:forces:R:3 spacegroup="P 1" unit_cell=conventional occupancy="_JSON {\"0\": {\"In\": 1}, \"1\": {\"In\": 1}, \"2\": {\"In\": 1}, \"3\": {\"In\": 1}, \"4\": {\"In\": 1}, \"5\": {\"In\": 1}, \"6\": {\"In\": 1}, \"7\": {\"In\": 1}, \"8\": {\"In\": 1}, \"9\": {\"In\": 1}, \"10\": {\"In\": 1}, \"11\": {\"In\": 1}, \"12\": {\"In\": 1}, \"13\": {\"In\": 1}, \"14\": {\"In\": 1}, \"15\": {\"In\": 1}, \"16\": {\"O\": 1}, \"17\": {\"O\": 1}, \"18\": {\"O\": 1}, \"19\": {\"O\": 1}, \"20\": {\"O\": 1}, \"21\": {\"O\": 1}, \"22\": {\"O\": 1}, \"23\": {\"O\": 1}, \"24\": {\"O\": 1}, \"25\": {\"O\": 1}, \"26\": {\"O\": 1}, \"27\": {\"O\": 1}, \"28\": {\"O\": 1}, \"29\": {\"O\": 1}, \"30\": {\"O\": 1}, \"31\": {\"O\": 1}, \"32\": {\"O\": 1}, \"33\": {\"O\": 1}, \"34\": {\"O\": 1}, \"35\": {\"O\": 1}, \"36\": {\"O\": 1}, \"37\": {\"O\": 1}, \"38\": {\"O\": 1}, \"39\": {\"O\": 1}}" n_minim_iter=4 energy=-45145.744696262125 stress="-0.16763814673962107 2.6589560834466122e-17 -5.551115123125783e-17 2.6589560834466122e-17 -0.16763814673962102 8.326672684688674e-17 -5.551115123125783e-17 8.326672684688674e-17 -0.1676381467396213" pbc="T T T"
In      -4.05863229       2.86988642       5.45562991        0       0.00158354      -0.00109940       0.00188925
In       6.89634411       1.14324413       1.49531608        1      -0.00158354       0.00109940      -0.00188925
In       1.22092047      -0.86332114       4.97078908        2      -0.00164628       0.00108886      -0.00189953
In      -1.41885591      -2.00656527       3.47547300        3       0.00000000       0.00000000       0.00000000
In      -1.22092047       3.87316905       3.23305258        4       0.00153392      -0.00112949      -0.00189902
In       4.45450317      -2.72992492       5.21320950        5       0.00163934       0.00229497       0.00006351
In      -1.22092047       1.28320562       5.21320950        6       0.00159666       0.00229471       0.00000643
In      -1.61679135       6.74305547       1.73773650        7      -0.00163934      -0.00229497      -0.00006351
In       4.05863229       0.13996149       3.71789341        8      -0.00153392       0.00112949       0.00189902
In      -1.41885591       4.01313055      -0.00000000        9       0.00000000       0.00000000       0.00000000
In       4.05863229       6.15965731       0.24242041       10      -0.00157326       0.00111252       0.00191084
In      -1.22092047      -2.14652676       6.70852558       11       0.00157326      -0.00111252      -0.00191084
In       4.05863229       2.72992493       1.73773650       12      -0.00159666      -0.00229471      -0.00000643
In       1.61679135       4.87645169       1.98015691       13       0.00164628      -0.00108886       0.00189953
In       4.25656773       0.00000000      -0.00000000       14       0.00000000       0.00000000       0.00000000
In       1.41885591       2.00656527       3.47547300       15       0.00000000       0.00000000       0.00000000
O        0.81222801       4.00515963       3.81458274       16       0.00018640       0.00080835      -0.00236464
O       -2.02548381       3.30751102       5.05055765       17       0.00018640      -0.00246183       0.00049339
O       -0.40203686       2.15956067       0.08791998       18      -0.00149741      -0.00126884      -0.00157506
O       -0.81222801      -0.71359045       1.91419439       19      -0.00019772      -0.00165271      -0.00189207
O        3.79351256       4.77748162       1.82627440       20      -0.00237956       0.00073765      -0.00031650
O        1.88191108       2.81370605       1.57508465       21       0.00239061       0.00063506       0.00047643
O        1.88191108       5.97690611       0.25118975       22       0.00238238       0.00011030      -0.00080938
O       -2.17006561       5.67888625       3.56339298       23       0.00069034       0.00181726      -0.00157069
O        3.23974868       1.85356988       6.86302602       24       0.00149741       0.00126884       0.00157506
O        5.00777743      -1.66575570       3.38755302       25      -0.00069034      -0.00181726       0.00157069
O        6.07746050       3.16248654       1.64919859       26       0.00148533      -0.00200855       0.00030853
O        3.50535804       2.25311100       3.72666275       27       0.00071374      -0.00228314      -0.00080501
O        0.66764621       4.10739439       6.61183626       28       0.00069034       0.00045020       0.00238084
O        2.17006560      -0.09426385       0.33910974       29      -0.00069034      -0.00045020      -0.00238084
O       -3.23974868       0.85064400       5.30174740       30      -0.00148533       0.00200855      -0.00030853
O        4.86319563       0.70561953       1.90038835       31      -0.00018640       0.00246183      -0.00049339
O        0.95580074       1.19942449       5.37586135       32      -0.00239061      -0.00063506      -0.00047643
O        3.23974868      -1.00292588       5.38966739       33       0.00150410       0.00072531      -0.00187511
O        2.02548381       0.00797092       3.13636326       34      -0.00018640      -0.00080835       0.00236464
O        0.95580074      -1.96377556       6.69975624       35      -0.00238238      -0.00011030       0.00080938
O       -0.66764622       1.76001955       3.22428324       36      -0.00071374       0.00228314       0.00080501
O       -0.95580074      -0.76435107       5.12467159       37       0.00237956      -0.00073765       0.00031650
O       -0.40203686       5.01605642       1.56127861       38      -0.00150410      -0.00072531       0.00187511
O        3.64993983       4.72672099       5.03675161       39       0.00019772       0.00165271       0.00189207
