40
Lattice="8.900618633422871 6.976091463146344e-10 -9.120852326743265e-16 -2.966872878465335 8.391583723032335 -1.208293885464792e-09 -2.9668728774787674 -4.195791860818559 7.26732468293553" Properties=species:S:1:pos:R:3:spacegroup_kinds:I:1:forces:R:3 spacegroup="P 1" unit_cell=conventional occupancy="_JSON {\"0\": {\"In\": 1}, \"1\": {\"In\": 1}, \"2\": {\"In\": 1}, \"3\": {\"In\": 1}, \"4\": {\"In\": 1}, \"5\": {\"In\": 1}, \"6\": {\"In\": 1}, \"7\": {\"In\": 1}, \"8\": {\"In\": 1}, \"9\": {\"In\": 1}, \"10\": {\"In\": 1}, \"11\": {\"In\": 1}, \"12\": {\"In\": 1}, \"13\": {\"In\": 1}, \"14\": {\"In\": 1}, \"15\": {\"In\": 1}, \"16\": {\"O\": 1}, \"17\": {\"O\": 1}, \"18\": {\"O\": 1}, \"19\": {\"O\": 1}, \"20\": {\"O\": 1}, \"21\": {\"O\": 1}, \"22\": {\"O\": 1}, \"23\": {\"O\": 1}, \"24\": {\"O\": 1}, \"25\": {\"O\": 1}, \"26\": {\"O\": 1}, \"27\": {\"O\": 1}, \"28\": {\"O\": 1}, \"29\": {\"O\": 1}, \"30\": {\"O\": 1}, \"31\": {\"O\": 1}, \"32\": {\"O\": 1}, \"33\": {\"O\": 1}, \"34\": {\"O\": 1}, \"35\": {\"O\": 1}, \"36\": {\"O\": 1}, \"37\": {\"O\": 1}, \"38\": {\"O\": 1}, \"39\": {\"O\": 1}}" n_minim_iter=1 energy=-45150.941943099264 stress="-0.00021546100142711671 6.555036391497742e-20 -4.0657581468206416e-20 6.555036391497742e-20 -0.00021546100142711652 5.421010862427522e-20 -4.0657581468206416e-20 5.421010862427522e-20 -0.00021546100142711677" pbc="T T T"
In      -4.24603196       3.00239799       5.70068116        0      -0.00413073       0.00286215      -0.00490335
In       7.21290483       1.19339388       1.56664351        1       0.00413073      -0.00286215       0.00490335
In       1.27915907      -0.90450205       5.20030586        2       0.00400347      -0.00281304       0.00504219
In      -1.48343644      -2.09789593       3.63366234        3       0.00000000       0.00000000       0.00000000
In      -1.27915908       4.05134595       3.38347469        4      -0.00393816       0.00273257       0.00501237
In       4.65458668      -2.85795208       5.45049351        5      -0.00407494      -0.00594696       0.00008870
In      -1.27915908       1.33783979       5.45049351        6      -0.00396798      -0.00570065       0.00003908
In      -1.68771380       7.05374394       1.81683117        7       0.00407494       0.00594696      -0.00008870
In       4.24603195       0.14444591       3.88384999        8       0.00393816      -0.00273257      -0.00501237
In      -1.48343644       4.19579186      -0.00000000        9       0.00000000       0.00000000       0.00000000
In       4.24603195       6.43813370       0.25018765       10       0.00404332      -0.00285932      -0.00509773
In      -1.27915908      -2.24234184       7.01713703       11      -0.00404332       0.00285932       0.00509773
In       4.24603195       2.85795208       1.81683117       12       0.00396798       0.00570065      -0.00003908
In       1.68771380       5.10029392       2.06701882       13      -0.00400347       0.00281304      -0.00504219
In       4.45030932       0.00000000      -0.00000000       14       0.00000000       0.00000000       0.00000000
In       1.48343644       2.09789593       3.63366234       15       0.00000000       0.00000000       0.00000000
O        0.87741667       4.19592504       3.95755960       16       0.00107292       0.00360880      -0.00780176
O       -2.08945621       3.42728056       5.28842954       17       0.00107832      -0.00856023       0.00077313
O       -0.43196162       2.25525490       0.05111286       18      -0.00431045      -0.00475088      -0.00581429
O       -0.87741667      -0.76837812       1.97866446       19      -0.00106598      -0.00494860      -0.00702657
O        3.92775650       4.99368001       1.92755160       20      -0.00843579       0.00159151      -0.00120842
O        2.00598925       2.92542728       1.65476720       21       0.00843039       0.00183654       0.00077005
O        2.00598925       6.26404459       0.27278440       22       0.00842551      -0.00025068      -0.00199055
O       -2.27026192       5.94919348       3.68477520       23       0.00304624       0.00563560      -0.00580555
O        3.39883449       1.94053697       7.21621182       24       0.00431045       0.00475088       0.00581429
O        5.23713479      -1.75340161       3.58254948       25      -0.00304624      -0.00563560       0.00580555
O        6.36570737       3.26978842       1.70611074       26       0.00431071      -0.00741506       0.00121150
O        3.66348384       2.31440813       3.90644674       27       0.00304701      -0.00786603      -0.00198412
O        0.69661096       4.32377399       6.94342742       28       0.00304264       0.00220446       0.00780381
O        2.27026191      -0.12798212       0.32389726       29      -0.00304264      -0.00220446      -0.00780381
O       -3.39883449       0.92600345       5.56121394       30      -0.00431071       0.00741506      -0.00121150
O        5.05632908       0.76851130       1.97889513       31      -0.00107832       0.00856023      -0.00077313
O        0.96088362       1.27036458       5.61255748       32      -0.00843039      -0.00183654      -0.00077005
O        3.39883449      -1.01453352       5.61232680       33       0.00431097       0.00265518      -0.00701886
O        2.08945620      -0.00013318       3.30976508       34      -0.00107292      -0.00360880       0.00780176
O        0.96088363      -2.06825272       6.99454028       35      -0.00842551       0.00025068       0.00199055
O       -0.69661097       1.88138374       3.36087794       36      -0.00304701       0.00786603       0.00198412
O       -0.96088363      -0.79788814       5.33977308       37       0.00843579      -0.00159151       0.00120842
O       -0.43196162       5.21032538       1.65499787       38      -0.00431097      -0.00265518       0.00701886
O        3.84428955       4.96416998       5.28866021       39       0.00106598       0.00494860       0.00702657
