40
Lattice="5.223503807852217 5.7370998627401685e-42 -1.0942549629445874e-75 -5.6921796013307705e-42 5.18260489339448 8.75266293597785e-34 5.708278834095306e-75 -2.4407581014261167e-33 14.452155843963169" Properties=species:S:1:pos:R:3:spacegroup_kinds:I:1:forces:R:3 spacegroup="P 1" unit_cell=conventional occupancy="_JSON {\"0\": {\"In\": 1}, \"1\": {\"In\": 1}, \"2\": {\"In\": 1}, \"3\": {\"In\": 1}, \"4\": {\"In\": 1}, \"5\": {\"In\": 1}, \"6\": {\"In\": 1}, \"7\": {\"In\": 1}, \"8\": {\"In\": 1}, \"9\": {\"In\": 1}, \"10\": {\"In\": 1}, \"11\": {\"In\": 1}, \"12\": {\"In\": 1}, \"13\": {\"In\": 1}, \"14\": {\"In\": 1}, \"15\": {\"In\": 1}, \"16\": {\"O\": 1}, \"17\": {\"O\": 1}, \"18\": {\"O\": 1}, \"19\": {\"O\": 1}, \"20\": {\"O\": 1}, \"21\": {\"O\": 1}, \"22\": {\"O\": 1}, \"23\": {\"O\": 1}, \"24\": {\"O\": 1}, \"25\": {\"O\": 1}, \"26\": {\"O\": 1}, \"27\": {\"O\": 1}, \"28\": {\"O\": 1}, \"29\": {\"O\": 1}, \"30\": {\"O\": 1}, \"31\": {\"O\": 1}, \"32\": {\"O\": 1}, \"33\": {\"O\": 1}, \"34\": {\"O\": 1}, \"35\": {\"O\": 1}, \"36\": {\"O\": 1}, \"37\": {\"O\": 1}, \"38\": {\"O\": 1}, \"39\": {\"O\": 1}}" n_minim_iter=1 energy=-45157.70178247618 stress="0.059000576867042 4.968002317131186e-13 -1.970751057638185e-12 4.968002317131186e-13 0.08606499123776147 5.84024128110989e-12 -1.970751057638185e-12 5.84024128110989e-12 0.058815737065920096" free_energy=-45157.70178247618 pbc="T T T"
In       2.61516389       4.14518893       8.07596026        0       0.19519822       1.29780961      -0.32279294
In       0.00341199       3.62871841       6.37619559        1       0.19519822      -1.29780961       0.32279294
In       2.60833992       1.55388648      13.60227351        2      -0.19519822       1.29780961       0.32279294
In       5.22009182       1.03741596       0.84988233        3      -0.19519822      -1.29780961      -0.32279294
In       2.60833992       1.03741596       6.37619559        4      -0.19519822      -1.29780961       0.32279294
In       5.22009182       1.55388648       8.07596026        5      -0.19519822       1.29780961      -0.32279294
In       2.61516389       3.62871841       0.84988233        6       0.19519822      -1.29780961      -0.32279294
In       0.00341199       4.14518893      13.60227351        7       0.19519822       1.29780961       0.32279294
In       2.54853069       3.94285560      11.78371516        8       0.09239135      -0.44099051       0.52739697
In       5.16028259       3.83105174       2.66844068        9       0.09239135       0.44099051      -0.52739697
In       2.67497312       1.35155315       9.89451861       10      -0.09239135      -0.44099051      -0.52739697
In       0.06322122       1.23974930       4.55763724       11      -0.09239135       0.44099051       0.52739697
In       2.67497312       1.23974930       2.66844068       12      -0.09239135       0.44099051      -0.52739697
In       0.06322122       1.35155315      11.78371516       13      -0.09239135      -0.44099051       0.52739697
In       2.54853069       3.83105174       4.55763724       14       0.09239135       0.44099051       0.52739697
In       5.16028259       3.94285560       9.89451861       15       0.09239135      -0.44099051      -0.52739697
O        4.44988646       4.61572626      11.64651848       16       0.20382862      -0.02523821      -0.23427024
O        1.83813455       3.15818108       2.80563736       17       0.20382862       0.02523821       0.23427023
O        0.77361735       2.02442381      10.03171528       18      -0.20382862      -0.02523821       0.23427024
O        3.38536925       0.56687864       4.42044056       19      -0.20382862       0.02523821      -0.23427023
O        0.77361735       0.56687864       2.80563736       20      -0.20382862       0.02523821       0.23427023
O        3.38536925       2.02442381      11.64651848       21      -0.20382862      -0.02523821      -0.23427024
O        4.44988646       3.15818108       4.42044056       22       0.20382862       0.02523821      -0.23427023
O        1.83813455       4.61572626      10.03171528       23       0.20382862      -0.02523821       0.23427024
O        3.78822754       2.77173400       8.89612896       24      -0.09983786       0.10209750       0.10451510
O        1.17647563       5.00217334       5.55602688       25      -0.09983786      -0.10209750      -0.10451510
O        1.43527627       0.18043155      12.78210481       26       0.09983786       0.10209750      -0.10451510
O        4.04702817       2.41087090       1.67005104       27       0.09983786      -0.10209750       0.10451510
O        1.43527627       2.41087090       5.55602688       28       0.09983786      -0.10209750      -0.10451510
O        4.04702817       0.18043155       8.89612896       29       0.09983786       0.10209750       0.10451510
O        3.78822754       5.00217334       1.67005104       30      -0.09983786      -0.10209750       0.10451510
O        1.17647563       2.77173400      12.78210481       31      -0.09983786       0.10209750      -0.10451510
O        3.43815776       3.39829413      13.51778192       32       0.00492239       0.21471521       0.17841062
O        0.82640585       4.37561321       0.93437392       33       0.00492239      -0.21471521      -0.17841062
O        1.78534605       0.80699169       8.16045184       34      -0.00492239       0.21471521      -0.17841062
O        4.39709796       1.78431076       6.29170400       35      -0.00492239      -0.21471521       0.17841062
O        1.78534605       1.78431076       0.93437392       36      -0.00492239      -0.21471521      -0.17841062
O        4.39709796       0.80699169      13.51778192       37      -0.00492239       0.21471521       0.17841062
O        3.43815776       4.37561321       6.29170400       38       0.00492239      -0.21471521       0.17841062
O        0.82640585       3.39829413       8.16045184       39       0.00492239       0.21471521      -0.17841062
40
Lattice="5.238951975312796 5.806567611756831e-42 1.3572503977688563e-73 -5.6087997546344775e-42 5.15177206216698 1.2030554549604652e-31 5.592931039148824e-75 3.4503799492152618e-31 14.49578021271416" Properties=species:S:1:pos:R:3:spacegroup_kinds:I:1:forces:R:3 spacegroup="P 1" unit_cell=conventional occupancy="_JSON {\"0\": {\"In\": 1}, \"1\": {\"In\": 1}, \"2\": {\"In\": 1}, \"3\": {\"In\": 1}, \"4\": {\"In\": 1}, \"5\": {\"In\": 1}, \"6\": {\"In\": 1}, \"7\": {\"In\": 1}, \"8\": {\"In\": 1}, \"9\": {\"In\": 1}, \"10\": {\"In\": 1}, \"11\": {\"In\": 1}, \"12\": {\"In\": 1}, \"13\": {\"In\": 1}, \"14\": {\"In\": 1}, \"15\": {\"In\": 1}, \"16\": {\"O\": 1}, \"17\": {\"O\": 1}, \"18\": {\"O\": 1}, \"19\": {\"O\": 1}, \"20\": {\"O\": 1}, \"21\": {\"O\": 1}, \"22\": {\"O\": 1}, \"23\": {\"O\": 1}, \"24\": {\"O\": 1}, \"25\": {\"O\": 1}, \"26\": {\"O\": 1}, \"27\": {\"O\": 1}, \"28\": {\"O\": 1}, \"29\": {\"O\": 1}, \"30\": {\"O\": 1}, \"31\": {\"O\": 1}, \"32\": {\"O\": 1}, \"33\": {\"O\": 1}, \"34\": {\"O\": 1}, \"35\": {\"O\": 1}, \"36\": {\"O\": 1}, \"37\": {\"O\": 1}, \"38\": {\"O\": 1}, \"39\": {\"O\": 1}}" n_minim_iter=2 energy=-45157.745615756256 stress="0.07540215905946909 4.654061097655166e-13 -4.204593005673403e-12 4.654061097655166e-13 0.0718597342601065 -4.992493929219214e-12 -4.204593005673403e-12 -4.992493929219214e-12 0.07636877818562568" free_energy=-45157.745615756256 pbc="T T T"
In       2.62306299       4.12161479       8.10006509        0       0.17428186       1.16585824      -0.29226331
In       0.00358700       3.60604331       6.39571512        1       0.17428186      -1.16585824       0.29226331
In       2.61588899       1.54572876      13.64360523        2      -0.17428186       1.16585824       0.29226331
In       5.23536497       1.03015727       0.85217499        3      -0.17428186      -1.16585824      -0.29226331
In       2.61588899       1.03015727       6.39571512        4      -0.17428186      -1.16585824       0.29226331
In       5.23536497       1.54572876       8.10006509        5      -0.17428186       1.16585824      -0.29226331
In       2.62306299       3.60604331       0.85217499        6       0.17428186      -1.16585824      -0.29226331
In       0.00358700       4.12161479      13.64360523        7       0.17428186       1.16585824       0.29226331
In       2.55614586       3.91902911      11.81973037        8       0.17479720      -0.42876312       0.55980873
In       5.17562185       3.80862899       2.67604984        9       0.17479720       0.42876312      -0.55980873
In       2.68280612       1.34314307       9.92393995       10      -0.17479720      -0.42876312      -0.55980873
In       0.06333013       1.23274296       4.57184027       11      -0.17479720       0.42876312       0.55980873
In       2.68280612       1.23274296       2.67604984       12      -0.17479720       0.42876312      -0.55980873
In       0.06333013       1.34314307      11.81973037       13      -0.17479720      -0.42876312       0.55980873
In       2.55614586       3.80862899       4.57184027       14       0.17479720       0.42876312       0.55980873
In       5.17562185       3.91902911       9.92393995       15       0.17479720      -0.42876312      -0.55980873
O        4.46321892       4.58824482      11.68147598       16       0.19805063      -0.07908368      -0.33745029
O        1.84374293       3.13941327       2.81430423       17       0.19805063       0.07908368       0.33745029
O        0.77573306       2.01235879      10.06219434       18      -0.19805063      -0.07908368       0.33745029
O        3.39520904       0.56352724       4.43358587       19      -0.19805063       0.07908368      -0.33745029
O        0.77573306       0.56352724       2.81430423       20      -0.19805063       0.07908368       0.33745029
O        3.39520904       2.01235879      11.68147598       21      -0.19805063      -0.07908368      -0.33745030
O        4.46321892       3.13941327       4.43358587       22       0.19805063       0.07908368      -0.33745029
O        1.84374293       4.58824482      10.06219434       23       0.19805063      -0.07908368       0.33745029
O        3.79934662       2.75532964       8.92307057       24      -0.10887295       0.16168549       0.11025339
O        1.17987063       4.97232845       5.57270964       25      -0.10887295      -0.16168549      -0.11025339
O        1.43960536       0.17944361      12.82059975       26       0.10887295       0.16168549      -0.11025339
O        4.05908135       2.39644242       1.67518046       27       0.10887295      -0.16168549       0.11025339
O        1.43960536       2.39644242       5.57270964       28       0.10887295      -0.16168549      -0.11025339
O        4.05908135       0.17944361       8.92307057       29       0.10887295       0.16168549       0.11025339
O        3.79934662       4.97232845       1.67518046       30      -0.10887295      -0.16168549       0.11025339
O        1.17987063       2.75532964      12.82059975       31      -0.10887295       0.16168549      -0.11025339
O        3.44833004       3.37825649      13.55873660       32       0.04620427       0.34591515       0.30617303
O        0.82885405       4.34940160       0.93704361       33       0.04620427      -0.34591515      -0.30617303
O        1.79062194       0.80237046       8.18493372       34      -0.04620427       0.34591515      -0.30617303
O        4.41009792       1.77351557       6.31084649       35      -0.04620427      -0.34591515       0.30617303
O        1.79062194       1.77351557       0.93704361       36      -0.04620427      -0.34591515      -0.30617303
O        4.41009792       0.80237046      13.55873660       37      -0.04620427       0.34591515       0.30617303
O        3.44833004       4.34940160       6.31084649       38       0.04620427      -0.34591515       0.30617303
O        0.82885405       3.37825649       8.18493372       39       0.04620427       0.34591515      -0.30617303
40
Lattice="5.255120400698928 5.826399608259607e-42 1.2541213377160744e-73 -5.6041672205320764e-42 5.149591803656098 1.11557038476617e-31 5.479223884149759e-75 3.2131223490175454e-31 14.457299464848555" Properties=species:S:1:pos:R:3:spacegroup_kinds:I:1:forces:R:3 spacegroup="P 1" unit_cell=conventional occupancy="_JSON {\"0\": {\"In\": 1}, \"1\": {\"In\": 1}, \"2\": {\"In\": 1}, \"3\": {\"In\": 1}, \"4\": {\"In\": 1}, \"5\": {\"In\": 1}, \"6\": {\"In\": 1}, \"7\": {\"In\": 1}, \"8\": {\"In\": 1}, \"9\": {\"In\": 1}, \"10\": {\"In\": 1}, \"11\": {\"In\": 1}, \"12\": {\"In\": 1}, \"13\": {\"In\": 1}, \"14\": {\"In\": 1}, \"15\": {\"In\": 1}, \"16\": {\"O\": 1}, \"17\": {\"O\": 1}, \"18\": {\"O\": 1}, \"19\": {\"O\": 1}, \"20\": {\"O\": 1}, \"21\": {\"O\": 1}, \"22\": {\"O\": 1}, \"23\": {\"O\": 1}, \"24\": {\"O\": 1}, \"25\": {\"O\": 1}, \"26\": {\"O\": 1}, \"27\": {\"O\": 1}, \"28\": {\"O\": 1}, \"29\": {\"O\": 1}, \"30\": {\"O\": 1}, \"31\": {\"O\": 1}, \"32\": {\"O\": 1}, \"33\": {\"O\": 1}, \"34\": {\"O\": 1}, \"35\": {\"O\": 1}, \"36\": {\"O\": 1}, \"37\": {\"O\": 1}, \"38\": {\"O\": 1}, \"39\": {\"O\": 1}}" n_minim_iter=3 energy=-45157.961424744506 stress="0.12229810595097092 -8.805428045808049e-13 -5.050801575380569e-12 -8.805428045808049e-13 0.10378722626678016 2.5850826999620455e-12 -5.050801575380569e-12 2.5850826999620455e-12 0.09254606552897314" free_energy=-45157.961424744506 pbc="T T T"
In       2.63437393       4.14093590       8.07321107        0       0.03364378       0.28191503       0.34609856
In       0.00681373       3.58345181       6.38408840        1       0.03364378      -0.28191503      -0.34609856
In       2.62074647       1.56614000      13.61273813        2      -0.03364378       0.28191503      -0.34609856
In       5.24830667       1.00865591       0.84456134        3      -0.03364378      -0.28191503       0.34609856
In       2.62074647       1.00865591       6.38408840        4      -0.03364378      -0.28191503      -0.34609856
In       5.24830667       1.56614000       8.07321107        5      -0.03364378       0.28191503       0.34609856
In       2.63437393       3.58345181       0.84456134        6       0.03364378      -0.28191503       0.34609856
In       0.00681373       4.14093590      13.61273813        7       0.03364378       0.28191503      -0.34609856
In       2.56701256       3.90970914      11.79838771        8       0.18954099      -0.13869710       0.35425775
In       5.19457276       3.81467856       2.65891176        9       0.18954099       0.13869710      -0.35425775
In       2.68810784       1.33491324       9.88756149       10      -0.18954099      -0.13869710      -0.35425775
In       0.06054764       1.23988266       4.56973797       11      -0.18954099       0.13869710       0.35425775
In       2.68810784       1.23988266       2.65891176       12      -0.18954099       0.13869710      -0.35425775
In       0.06054764       1.33491324      11.79838771       13      -0.18954099      -0.13869710       0.35425775
In       2.56701256       3.81467856       4.56973797       14       0.18954099       0.13869710       0.35425775
In       5.19457276       3.90970914       9.88756149       15       0.18954099      -0.13869710      -0.35425775
O        4.48060447       4.58502243      11.64461645       16       0.10687873      -0.11632457      -0.12936439
O        1.85304427       3.13936527       2.81268302       17       0.10687873       0.11632457       0.12936439
O        0.77451593       2.01022653      10.04133275       18      -0.10687873      -0.11632457       0.12936439
O        3.40207613       0.56456937       4.41596672       19      -0.10687873       0.11632457      -0.12936439
O        0.77451593       0.56456937       2.81268302       20      -0.10687873       0.11632457       0.12936439
O        3.40207613       2.01022653      11.64461645       21      -0.10687873      -0.11632457      -0.12936439
O        4.48060447       3.13936527       4.41596672       22       0.10687873       0.11632457      -0.12936439
O        1.85304427       4.58502243      10.04133275       23       0.10687873      -0.11632457       0.12936439
O        3.80911619       2.75690104       8.90136098       24      -0.19784011       0.23656924      -0.02682118
O        1.18155599       4.96748667       5.55593848       25      -0.19784011      -0.23656924       0.02682118
O        1.44600421       0.18210514      12.78458821       26       0.19784011       0.23656924       0.02682118
O        4.07356441       2.39269076       1.67271125       27       0.19784011      -0.23656924      -0.02682118
O        1.44600421       2.39269076       5.55593848       28       0.19784011      -0.23656924       0.02682118
O        4.07356441       0.18210514       8.90136098       29       0.19784011       0.23656924      -0.02682118
O        3.80911619       4.96748667       1.67271125       30      -0.19784011      -0.23656924      -0.02682118
O        1.18155599       2.75690104      12.78458821       31      -0.19784011       0.23656924       0.02682118
O        3.45971279       3.38267465      13.52796965       32       0.41433666       0.36854388       0.01124869
O        0.83215259       4.34171305       0.92932982       33       0.41433666      -0.36854388      -0.01124869
O        1.79540761       0.80787875       8.15797955       34      -0.41433666       0.36854388      -0.01124869
O        4.42296781       1.76691715       6.29931991       35      -0.41433666      -0.36854388       0.01124869
O        1.79540761       1.76691715       0.92932982       36      -0.41433666      -0.36854388      -0.01124869
O        4.42296781       0.80787875      13.52796965       37      -0.41433666       0.36854388       0.01124869
O        3.45971279       4.34171305       6.29931991       38       0.41433666      -0.36854388       0.01124869
O        0.83215259       3.38267465       8.15797955       39       0.41433666       0.36854388      -0.01124869
40
Lattice="5.223944402570658 5.791600471213627e-42 4.871135820299341e-72 -5.605517817604599e-42 5.149958996814255 4.461097112849649e-30 4.728686197881756e-75 1.27384809692041e-29 14.54254227832876" Properties=species:S:1:pos:R:3:spacegroup_kinds:I:1:forces:R:3 spacegroup="P 1" unit_cell=conventional occupancy="_JSON {\"0\": {\"In\": 1}, \"1\": {\"In\": 1}, \"2\": {\"In\": 1}, \"3\": {\"In\": 1}, \"4\": {\"In\": 1}, \"5\": {\"In\": 1}, \"6\": {\"In\": 1}, \"7\": {\"In\": 1}, \"8\": {\"In\": 1}, \"9\": {\"In\": 1}, \"10\": {\"In\": 1}, \"11\": {\"In\": 1}, \"12\": {\"In\": 1}, \"13\": {\"In\": 1}, \"14\": {\"In\": 1}, \"15\": {\"In\": 1}, \"16\": {\"O\": 1}, \"17\": {\"O\": 1}, \"18\": {\"O\": 1}, \"19\": {\"O\": 1}, \"20\": {\"O\": 1}, \"21\": {\"O\": 1}, \"22\": {\"O\": 1}, \"23\": {\"O\": 1}, \"24\": {\"O\": 1}, \"25\": {\"O\": 1}, \"26\": {\"O\": 1}, \"27\": {\"O\": 1}, \"28\": {\"O\": 1}, \"29\": {\"O\": 1}, \"30\": {\"O\": 1}, \"31\": {\"O\": 1}, \"32\": {\"O\": 1}, \"33\": {\"O\": 1}, \"34\": {\"O\": 1}, \"35\": {\"O\": 1}, \"36\": {\"O\": 1}, \"37\": {\"O\": 1}, \"38\": {\"O\": 1}, \"39\": {\"O\": 1}}" n_minim_iter=4 energy=-45158.01883027458 stress="0.11199949166309918 5.339518344892259e-12 1.396716098605261e-12 5.339518344892259e-12 0.11364117361736263 4.075688419444329e-12 1.396716098605261e-12 4.075688419444329e-12 0.12205439430605114" free_energy=-45158.01883027458 pbc="T T T"
In       2.61982751       4.14842728       8.11946584        0       0.12634353       0.16481872       0.31012738
In       0.00785531       3.57651122       6.42307644        1       0.12634353      -0.16481872      -0.31012738
In       2.60411689       1.57344778      13.69434758        2      -0.12634353       0.16481872      -0.31012738
In       5.21608909       1.00153172       0.84819470        3      -0.12634353      -0.16481872       0.31012738
In       2.60411689       1.00153172       6.42307644        4      -0.12634353      -0.16481872      -0.31012738
In       5.21608909       1.57344778       8.11946584        5      -0.12634353       0.16481872       0.31012738
In       2.61982751       3.57651122       0.84819470        6       0.12634353      -0.16481872       0.31012738
In       0.00785531       4.14842728      13.69434758        7       0.12634353       0.16481872      -0.31012738
In       2.55296130       3.90733281      11.87165140        8       0.10491635      -0.04629841       0.24441147
In       5.16493351       3.81760569       2.67089088        9       0.10491635       0.04629841      -0.24441147
In       2.67098310       1.33235331       9.94216202       10      -0.10491635      -0.04629841      -0.24441147
In       0.05901090       1.24262619       4.60038026       11      -0.10491635       0.04629841       0.24441147
In       2.67098310       1.24262619       2.67089088       12      -0.10491635       0.04629841      -0.24441147
In       0.05901090       1.33235331      11.87165140       13      -0.10491635      -0.04629841       0.24441147
In       2.55296130       3.81760569       4.60038026       14       0.10491635       0.04629841       0.24441147
In       5.16493351       3.90733281       9.94216202       15       0.10491635      -0.04629841      -0.24441147
O        4.45531792       4.58480390      11.71121964       16       0.18787657      -0.05285439       0.04207928
O        1.84334572       3.14013459       2.83132264       17       0.18787657       0.05285439      -0.04207928
O        0.76862648       2.00982440      10.10259378       18      -0.18787657      -0.05285439      -0.04207928
O        3.38059868       0.56515510       4.43994850       19      -0.18787657       0.05285439       0.04207928
O        0.76862648       0.56515510       2.83132264       20      -0.18787657       0.05285439      -0.04207928
O        3.38059868       2.00982440      11.71121964       21      -0.18787657      -0.05285439       0.04207928
O        4.45531792       3.14013459       4.43994850       22       0.18787657       0.05285439       0.04207928
O        1.84334572       4.58480390      10.10259378       23       0.18787657      -0.05285439      -0.04207928
O        3.78565366       2.75825574       8.95445995       24      -0.13526764       0.19808967      -0.01638000
O        1.17368146       4.96668275       5.58808233       25      -0.13526764      -0.19808967       0.01638000
O        1.43829074       0.18327625      12.85935347       26       0.13526764       0.19808967       0.01638000
O        4.05026294       2.39170325       1.68318881       27       0.13526764      -0.19808967      -0.01638000
O        1.43829074       2.39170325       5.58808233       28       0.13526764      -0.19808967       0.01638000
O        4.05026294       0.18327625       8.95445995       29       0.13526764       0.19808967      -0.01638000
O        3.78565366       4.96668275       1.68318881       30      -0.13526764      -0.19808967      -0.01638001
O        1.17368146       2.75825574      12.85935347       31      -0.13526764       0.19808967       0.01638000
O        3.43991170       3.38523106      13.60944236       32       0.32029194       0.29181035      -0.14402650
O        0.82793949       4.33970744       0.93309992       33       0.32029194      -0.29181035       0.14402650
O        1.78403271       0.81025156       8.20437106       34      -0.32029194       0.29181035       0.14402650
O        4.39600491       1.76472794       6.33817122       35      -0.32029194      -0.29181035      -0.14402650
O        1.78403271       1.76472794       0.93309992       36      -0.32029194      -0.29181035       0.14402650
O        4.39600491       0.81025156      13.60944236       37      -0.32029194       0.29181035      -0.14402650
O        3.43991170       4.33970744       6.33817122       38       0.32029194      -0.29181035      -0.14402650
O        0.82793949       3.38523106       8.20437106       39       0.32029194       0.29181035       0.14402650
40
Lattice="5.244725385441376 5.817380591155556e-42 4.65666535076178e-72 -5.6002658121754085e-42 5.148056974156439 4.2895451490339584e-30 4.578734444143334e-75 1.2297117624953129e-29 14.49027255633636" Properties=species:S:1:pos:R:3:spacegroup_kinds:I:1:forces:R:3 spacegroup="P 1" unit_cell=conventional occupancy="_JSON {\"0\": {\"In\": 1}, \"1\": {\"In\": 1}, \"2\": {\"In\": 1}, \"3\": {\"In\": 1}, \"4\": {\"In\": 1}, \"5\": {\"In\": 1}, \"6\": {\"In\": 1}, \"7\": {\"In\": 1}, \"8\": {\"In\": 1}, \"9\": {\"In\": 1}, \"10\": {\"In\": 1}, \"11\": {\"In\": 1}, \"12\": {\"In\": 1}, \"13\": {\"In\": 1}, \"14\": {\"In\": 1}, \"15\": {\"In\": 1}, \"16\": {\"O\": 1}, \"17\": {\"O\": 1}, \"18\": {\"O\": 1}, \"19\": {\"O\": 1}, \"20\": {\"O\": 1}, \"21\": {\"O\": 1}, \"22\": {\"O\": 1}, \"23\": {\"O\": 1}, \"24\": {\"O\": 1}, \"25\": {\"O\": 1}, \"26\": {\"O\": 1}, \"27\": {\"O\": 1}, \"28\": {\"O\": 1}, \"29\": {\"O\": 1}, \"30\": {\"O\": 1}, \"31\": {\"O\": 1}, \"32\": {\"O\": 1}, \"33\": {\"O\": 1}, \"34\": {\"O\": 1}, \"35\": {\"O\": 1}, \"36\": {\"O\": 1}, \"37\": {\"O\": 1}, \"38\": {\"O\": 1}, \"39\": {\"O\": 1}}" n_minim_iter=5 energy=-45158.122948182885 stress="0.1583449076261799 4.603664553423779e-12 3.2691439016862034e-12 4.603664553423779e-12 0.15351356223068768 4.082699542545773e-12 3.2691439016862034e-12 4.082699542545773e-12 0.14548832395521757" free_energy=-45158.122948182885 pbc="T T T"
In       2.63616115       4.16725288       8.09892619        0       0.09613676      -0.29847065       0.38861836
In       0.01379846       3.55483258       6.39134637        1       0.09613676       0.29847065      -0.38861836
In       2.60856424       1.59322439      13.63648265        2      -0.09613676      -0.29847065      -0.38861836
In       5.23092693       0.98080410       0.85378991        3      -0.09613676       0.29847065       0.38861836
In       2.60856424       0.98080410       6.39134637        4      -0.09613676       0.29847065      -0.38861836
In       5.23092693       1.59322439       8.09892619        5      -0.09613676      -0.29847065       0.38861836
In       2.63616115       3.55483258       0.85378991        6       0.09613676       0.29847065       0.38861836
In       0.01379846       4.16725288      13.63648265        7       0.09613676      -0.29847065      -0.38861836
In       2.56927271       3.89869079      11.84508012        8       0.07839696       0.21612860      -0.15476960
In       5.19163541       3.82339467       2.64519244        9       0.07839696      -0.21612860       0.15476960
In       2.67545267       1.32466230       9.89032872       10      -0.07839696       0.21612860       0.15476960
In       0.05308998       1.24936619       4.59994384       11      -0.07839696      -0.21612860      -0.15476960
In       2.67545267       1.24936619       2.64519244       12      -0.07839696      -0.21612860       0.15476960
In       0.05308998       1.32466230      11.84508012       13      -0.07839696       0.21612860      -0.15476960
In       2.56927271       3.82339467       4.59994384       14       0.07839696      -0.21612860      -0.15476960
In       5.19163541       3.89869079       9.89032872       15       0.07839696       0.21612860       0.15476960
O        4.48154480       4.58004534      11.66605985       16       0.13111260      -0.04450587       0.01390732
O        1.85918210       3.14204012       2.82421271       17       0.13111260       0.04450587      -0.01390732
O        0.76318059       2.00601685      10.06934899       18      -0.13111260      -0.04450587      -0.01390732
O        3.38554328       0.56801164       4.42092357       19      -0.13111260       0.04450587       0.01390732
O        0.76318059       0.56801164       2.82421271       20      -0.13111260       0.04450587      -0.01390732
O        3.38554328       2.00601685      11.66605985       21      -0.13111260      -0.04450587       0.01390732
O        4.48154480       3.14204012       4.42092357       22       0.13111260       0.04450587       0.01390732
O        1.85918210       4.58004534      10.06934899       23       0.13111260      -0.04450587      -0.01390732
O        3.79392693       2.76628635       8.92273137       24       0.00933848       0.15986287      -0.12421169
O        1.17156424       4.95579911       5.56754118       25       0.00933848      -0.15986287       0.12421169
O        1.45079845       0.19225787      12.81267746       26      -0.00933848       0.15986287       0.12421169
O        4.07316114       2.38177062       1.67759510       27      -0.00933848      -0.15986287      -0.12421169
O        1.45079845       2.38177062       5.56754118       28      -0.00933848      -0.15986287       0.12421169
O        4.07316114       0.19225787       8.92273137       29      -0.00933848       0.15986287      -0.12421169
O        3.79392693       4.95579911       1.67759510       30       0.00933848      -0.15986287      -0.12421169
O        1.17156424       2.76628635      12.81267746       31       0.00933848       0.15986287       0.12421169
O        3.46675404       3.39840608      13.55913375       32       0.26564103       0.05556631      -0.00321375
O        0.84439135       4.32367938       0.93113880       33       0.26564103      -0.05556631       0.00321375
O        1.77797135       0.82437760       8.17627508       34      -0.26564103       0.05556631       0.00321375
O        4.40033404       1.74965089       6.31399747       35      -0.26564103      -0.05556631      -0.00321375
O        1.77797135       1.74965089       0.93113880       36      -0.26564103      -0.05556631       0.00321375
O        4.40033404       0.82437760      13.55913375       37      -0.26564103       0.05556631      -0.00321375
O        3.46675404       4.32367938       6.31399747       38       0.26564103      -0.05556631      -0.00321375
O        0.84439135       3.39840608       8.17627508       39       0.26564103       0.05556631       0.00321375
40