40
Lattice="6.105429668446107 2.707618464182032e-41 -4.742139625619535e-83 -2.663253926198808e-41 6.0886467346097595 -1.0968171297382743e-41 9.554566644884114e-84 -3.2785098767346977e-41 17.190181739673758" Properties=species:S:1:pos:R:3:spacegroup_kinds:I:1:forces:R:3 spacegroup="P 1" unit_cell=conventional occupancy="_JSON {\"0\": {\"In\": 1}, \"1\": {\"In\": 1}, \"2\": {\"In\": 1}, \"3\": {\"In\": 1}, \"4\": {\"In\": 1}, \"5\": {\"In\": 1}, \"6\": {\"In\": 1}, \"7\": {\"In\": 1}, \"8\": {\"In\": 1}, \"9\": {\"In\": 1}, \"10\": {\"In\": 1}, \"11\": {\"In\": 1}, \"12\": {\"In\": 1}, \"13\": {\"In\": 1}, \"14\": {\"In\": 1}, \"15\": {\"In\": 1}, \"16\": {\"O\": 1}, \"17\": {\"O\": 1}, \"18\": {\"O\": 1}, \"19\": {\"O\": 1}, \"20\": {\"O\": 1}, \"21\": {\"O\": 1}, \"22\": {\"O\": 1}, \"23\": {\"O\": 1}, \"24\": {\"O\": 1}, \"25\": {\"O\": 1}, \"26\": {\"O\": 1}, \"27\": {\"O\": 1}, \"28\": {\"O\": 1}, \"29\": {\"O\": 1}, \"30\": {\"O\": 1}, \"31\": {\"O\": 1}, \"32\": {\"O\": 1}, \"33\": {\"O\": 1}, \"34\": {\"O\": 1}, \"35\": {\"O\": 1}, \"36\": {\"O\": 1}, \"37\": {\"O\": 1}, \"38\": {\"O\": 1}, \"39\": {\"O\": 1}}" n_minim_iter=17 energy=-45150.039843339415 stress="-0.012867375400326706 -3.23788595421136e-13 -6.07076636026941e-13 -3.23788595421136e-13 -0.01272104036626739 5.209040711165617e-12 -6.07076636026941e-13 5.209040711165617e-12 -0.012901404037288372" free_energy=-45150.039843339415 pbc="T T T"
In       2.69393404       5.08441108      10.13836543        0      -0.00450440       0.00264315       0.00088941
In      -0.35878080       4.04855902       7.05181630        1      -0.00450440      -0.00264315      -0.00088941
In       3.41149563       2.04008772      15.64690717        2       0.00450440       0.00264315      -0.00088941
In       6.46421047       1.00423565       1.54327456        3       0.00450440      -0.00264315       0.00088941
In       3.41149563       1.00423565       7.05181630        4       0.00450440      -0.00264315      -0.00088941
In       6.46421047       2.04008772      10.13836543        5       0.00450440       0.00264315       0.00088941
In       2.69393404       4.04855902       1.54327456        6      -0.00450440      -0.00264315       0.00088941
In      -0.35878080       5.08441108      15.64690717        7      -0.00450440       0.00264315      -0.00088941
In       2.74685695       4.86133741      13.97171873        8      -0.00288133       0.00040587       0.00441157
In       5.79957179       4.27163269       3.21846301        9      -0.00288133      -0.00040587      -0.00441157
In       3.35857272       1.81701404      11.81355388       10       0.00288133       0.00040587      -0.00441157
In       0.30585788       1.22730932       5.37662786       11       0.00288133      -0.00040587       0.00441157
In       3.35857272       1.22730932       3.21846301       12       0.00288133      -0.00040587      -0.00441157
In       0.30585788       1.81701404      13.97171873       13       0.00288133       0.00040587       0.00441157
In       2.74685695       4.27163269       5.37662786       14      -0.00288133      -0.00040587       0.00441157
In       5.79957179       4.86133741      11.81355388       15      -0.00288133       0.00040587      -0.00441157
O        4.86936338       5.69724107      13.62859213       16      -0.00172988       0.00251252      -0.00059227
O        1.81664855       3.43572903       3.56158961       17      -0.00172988      -0.00251252       0.00059227
O        1.23606629       2.65291770      12.15668048       18       0.00172988       0.00251252       0.00059227
O        4.28878112       0.39140566       5.03350126       19       0.00172988      -0.00251252      -0.00059227
O        1.23606629       0.39140566       3.56158961       20       0.00172988      -0.00251252       0.00059227
O        4.28878112       2.65291770      13.62859213       21       0.00172988       0.00251252      -0.00059227
O        4.86936338       3.43572903       5.03350126       22      -0.00172988      -0.00251252      -0.00059227
O        1.81664855       5.69724107      12.15668048       23      -0.00172988       0.00251252       0.00059227
O        4.16859127       3.64196458      10.85274341       24       0.00292324       0.00202346      -0.00385195
O        1.11587644       5.49100552       6.33743833       25       0.00292324      -0.00202346       0.00385195
O        1.93683840       0.59764121      14.93252920       26      -0.00292324       0.00202346       0.00385195
O        4.98955323       2.44668216       2.25765254       27      -0.00292324      -0.00202346      -0.00385195
O        1.93683840       2.44668216       6.33743833       28      -0.00292324      -0.00202346       0.00385195
O        4.98955323       0.59764121      10.85274341       29      -0.00292324       0.00202346      -0.00385195
O        4.16859127       5.49100552       2.25765254       30       0.00292324      -0.00202346      -0.00385195
O        1.11587644       3.64196458      14.93252920       31       0.00292324       0.00202346       0.00385195
O        3.78082343       4.16700625      16.08838681       32       0.00256299      -0.00011252      -0.00276937
O        0.72810860       4.96596386       1.10179493       33       0.00256299       0.00011252       0.00276937
O        2.32460624       1.12268288       9.69688579       34      -0.00256299      -0.00011252       0.00276937
O        5.37732107       1.92164049       7.49329594       35      -0.00256299       0.00011252      -0.00276937
O        2.32460624       1.92164049       1.10179493       36      -0.00256299       0.00011252       0.00276937
O        5.37732107       1.12268288      16.08838681       37      -0.00256299      -0.00011252      -0.00276937
O        3.78082343       4.96596386       7.49329594       38       0.00256299       0.00011252      -0.00276937
O        0.72810860       4.16700625       9.69688579       39       0.00256299      -0.00011252       0.00276937
