40
Lattice="5.595053955360469 1.1919919807848377e-42 0.0 -1.584991929961597e-43 5.770306468273425 0.0 0.0 0.0 16.15765126717739" Properties=species:S:1:pos:R:3:spacegroup_kinds:I:1:forces:R:3 spacegroup="P 1" unit_cell=conventional occupancy="_JSON {\"0\": {\"In\": 1}, \"1\": {\"In\": 1}, \"2\": {\"In\": 1}, \"3\": {\"In\": 1}, \"4\": {\"In\": 1}, \"5\": {\"In\": 1}, \"6\": {\"In\": 1}, \"7\": {\"In\": 1}, \"8\": {\"In\": 1}, \"9\": {\"In\": 1}, \"10\": {\"In\": 1}, \"11\": {\"In\": 1}, \"12\": {\"In\": 1}, \"13\": {\"In\": 1}, \"14\": {\"In\": 1}, \"15\": {\"In\": 1}, \"16\": {\"O\": 1}, \"17\": {\"O\": 1}, \"18\": {\"O\": 1}, \"19\": {\"O\": 1}, \"20\": {\"O\": 1}, \"21\": {\"O\": 1}, \"22\": {\"O\": 1}, \"23\": {\"O\": 1}, \"24\": {\"O\": 1}, \"25\": {\"O\": 1}, \"26\": {\"O\": 1}, \"27\": {\"O\": 1}, \"28\": {\"O\": 1}, \"29\": {\"O\": 1}, \"30\": {\"O\": 1}, \"31\": {\"O\": 1}, \"32\": {\"O\": 1}, \"33\": {\"O\": 1}, \"34\": {\"O\": 1}, \"35\": {\"O\": 1}, \"36\": {\"O\": 1}, \"37\": {\"O\": 1}, \"38\": {\"O\": 1}, \"39\": {\"O\": 1}}" n_minim_iter=15 energy=-45150.277960778905 stress="5.6656395641840234e-05 1.9681081235953745e-12 -6.770588914770416e-12 1.9681081235953745e-12 -3.617387606978873e-05 -6.009854089112028e-14 -6.770588914770416e-12 -6.009854089112028e-14 -6.873363265287683e-05" free_energy=-45150.277960778905 pbc="T T T"
In       2.79695920       4.61023843       9.22195869        0      -0.00511457       0.00538552       0.00223989
In      -0.00056778       4.04522127       6.93569258        1      -0.00511457      -0.00538552      -0.00223989
In       2.79809476       1.72508520      15.01451821        2       0.00511457       0.00538552      -0.00223989
In       5.59562174       1.16006804       1.14313306        3       0.00511457      -0.00538552       0.00223989
In       2.79809476       1.16006804       6.93569258        4       0.00511457      -0.00538552      -0.00223989
In       5.59562174       1.72508520       9.22195869        5       0.00511457       0.00538552       0.00223989
In       2.79695920       4.04522127       1.14313306        6      -0.00511457      -0.00538552       0.00223989
In      -0.00056778       4.61023843      15.01451821        7      -0.00511457       0.00538552      -0.00223989
In       2.78448800       4.31170999      13.21869050        8      -0.00518107       0.00401888      -0.00678338
In       5.58201498       4.34374972       2.93896077        9      -0.00518107      -0.00401888       0.00678338
In       2.81056595       1.42655675      11.01778640       10       0.00518107       0.00401888       0.00678338
In       0.01303897       1.45859648       5.13986487       11       0.00518107      -0.00401888      -0.00678338
In       2.81056595       1.45859648       2.93896077       12       0.00518107      -0.00401888       0.00678338
In       0.01303897       1.42655675      13.21869050       13       0.00518107       0.00401888      -0.00678338
In       2.78448800       4.34374972       5.13986487       14      -0.00518107      -0.00401888      -0.00678338
In       5.58201498       4.31170999      11.01778640       15      -0.00518107       0.00401888       0.00678338
O        4.80802325       5.08462911      12.89735939       16       0.00820881      -0.00358544       0.00110920
O        2.01049628       3.57083059       3.26029187       17       0.00820881       0.00358544      -0.00110920
O        0.78703070       2.19947587      11.33911751       18      -0.00820881      -0.00358544      -0.00110920
O        3.58455768       0.68567736       4.81853376       19      -0.00820881       0.00358544       0.00110920
O        0.78703070       0.68567736       3.26029187       20      -0.00820881       0.00358544      -0.00110920
O        3.58455768       2.19947587      12.89735939       21      -0.00820881      -0.00358544       0.00110920
O        4.80802325       3.57083059       4.81853376       22       0.00820881       0.00358544       0.00110920
O        2.01049628       5.08462911      11.33911751       23       0.00820881      -0.00358544      -0.00110920
O        3.95408488       3.03988706      10.09062397       24       0.00124881      -0.00356927      -0.00184343
O        1.15655790       5.61557265       6.06702730       25       0.00124881       0.00356927       0.00184343
O        1.64096908       0.15473382      14.14585293       26      -0.00124881      -0.00356927       0.00184343
O        4.43849606       2.73041941       2.01179834       27      -0.00124881       0.00356927      -0.00184343
O        1.64096908       2.73041941       6.06702730       28      -0.00124881       0.00356927       0.00184343
O        4.43849606       0.15473382      10.09062397       29      -0.00124881      -0.00356927      -0.00184343
O        3.95408488       5.61557265       2.01179834       30       0.00124881       0.00356927      -0.00184343
O        1.15655790       3.03988706      14.14585293       31       0.00124881      -0.00356927       0.00184343
O        3.61805715       3.81191472      15.31315585       32       0.00392693      -0.00614169       0.00276242
O        0.82053017       4.84354499       0.84449542       33       0.00392693       0.00614169      -0.00276242
O        1.97699681       0.92676148       8.92332105       34      -0.00392693      -0.00614169      -0.00276242
O        4.77452378       1.95839175       7.23433022       35      -0.00392693       0.00614169       0.00276242
O        1.97699681       1.95839175       0.84449542       36      -0.00392693       0.00614169      -0.00276242
O        4.77452378       0.92676148      15.31315585       37      -0.00392693      -0.00614169       0.00276242
O        3.61805715       4.84354499       7.23433022       38       0.00392693       0.00614169       0.00276242
O        0.82053017       3.81191472       8.92332105       39       0.00392693      -0.00614169      -0.00276242
