40
Lattice="5.39211784416564 6.251065404557415e-42 -7.128115483936364e-82 -6.123291952676347e-42 5.28190151057933 6.251802106468226e-40 4.0710235004441904e-81 -1.788547948095081e-39 15.110737588787401" Properties=species:S:1:pos:R:3:spacegroup_kinds:I:1:forces:R:3 spacegroup="P 1" unit_cell=conventional occupancy="_JSON {\"0\": {\"In\": 1}, \"1\": {\"In\": 1}, \"2\": {\"In\": 1}, \"3\": {\"In\": 1}, \"4\": {\"In\": 1}, \"5\": {\"In\": 1}, \"6\": {\"In\": 1}, \"7\": {\"In\": 1}, \"8\": {\"In\": 1}, \"9\": {\"In\": 1}, \"10\": {\"In\": 1}, \"11\": {\"In\": 1}, \"12\": {\"In\": 1}, \"13\": {\"In\": 1}, \"14\": {\"In\": 1}, \"15\": {\"In\": 1}, \"16\": {\"O\": 1}, \"17\": {\"O\": 1}, \"18\": {\"O\": 1}, \"19\": {\"O\": 1}, \"20\": {\"O\": 1}, \"21\": {\"O\": 1}, \"22\": {\"O\": 1}, \"23\": {\"O\": 1}, \"24\": {\"O\": 1}, \"25\": {\"O\": 1}, \"26\": {\"O\": 1}, \"27\": {\"O\": 1}, \"28\": {\"O\": 1}, \"29\": {\"O\": 1}, \"30\": {\"O\": 1}, \"31\": {\"O\": 1}, \"32\": {\"O\": 1}, \"33\": {\"O\": 1}, \"34\": {\"O\": 1}, \"35\": {\"O\": 1}, \"36\": {\"O\": 1}, \"37\": {\"O\": 1}, \"38\": {\"O\": 1}, \"39\": {\"O\": 1}}" n_minim_iter=1 energy=-45152.924258574494 stress="0.051958171770802995 4.5348688834526725e-12 4.503678612069128e-13 4.5348688834526725e-12 0.052553477319558256 -3.199159216288116e-12 4.503678612069128e-13 -3.199159216288116e-12 0.06262353631371001" free_energy=-45152.924258574494 pbc="T T T"
In       2.85167025       4.01063037       8.51272258        0      -0.20465701       0.13163769       0.15716663
In       0.15561133       3.91222190       6.59801501        1      -0.20465701      -0.13163769      -0.15716663
In       2.54044760       1.36967961      14.15338381        2       0.20465701       0.13163769      -0.15716663
In       5.23650652       1.27127114       0.95735378        3       0.20465701      -0.13163769       0.15716662
In       2.54044760       1.27127114       6.59801501        4       0.20465701      -0.13163769      -0.15716663
In       5.23650652       1.36967961       8.51272258        5       0.20465701       0.13163769       0.15716663
In       2.85167025       3.91222190       0.95735378        6      -0.20465701      -0.13163769       0.15716663
In       0.15561133       4.01063037      14.15338381        7      -0.20465701       0.13163769      -0.15716663
In       2.82774754       3.88903240      12.31351099        8      -0.18384279      -0.10353909      -0.02443728
In       5.52380646       4.03381987       2.79722660        9      -0.18384279       0.10353909       0.02443728
In       2.56437030       1.24808164      10.35259539       10       0.18384279      -0.10353909       0.02443728
In      -0.13168862       1.39286911       4.75814220       11       0.18384279       0.10353909      -0.02443728
In       2.56437030       1.39286911       2.79722660       12       0.18384279       0.10353909       0.02443728
In      -0.13168862       1.24808164      12.31351099       13       0.18384279      -0.10353909      -0.02443728
In       2.82774754       4.03381987       4.75814220       14      -0.18384279       0.10353909      -0.02443728
In       5.52380646       3.88903240      10.35259539       15      -0.18384279      -0.10353909       0.02443728
O        4.79697392       4.44382736      12.15798909       16      -0.05576283       0.11475078       0.17104963
O        2.10091500       3.47902490       2.95274850       17      -0.05576283      -0.11475078      -0.17104963
O        0.59514392       1.80287661      10.50811729       18       0.05576283       0.11475078      -0.17104963
O        3.29120284       0.83807415       4.60262029       19       0.05576283      -0.11475078       0.17104963
O        0.59514392       0.83807415       2.95274850       20       0.05576283      -0.11475078      -0.17104963
O        3.29120284       1.80287661      12.15798909       21       0.05576283       0.11475078       0.17104963
O        4.79697392       3.47902490       4.60262029       22      -0.05576283      -0.11475078       0.17104963
O        2.10091500       4.44382736      10.50811729       23      -0.05576283       0.11475078      -0.17104963
O        3.88990028       2.61926041       9.52465743       24       0.05613769      -0.00642406      -0.06551021
O        1.19384135       5.30359186       5.58608016       25       0.05613769       0.00642406       0.06551021
O        1.50221757      -0.02169035      13.14144895       26      -0.05613769      -0.00642406       0.06551021
O        4.19827649       2.66264110       1.96928864       27      -0.05613769       0.00642406      -0.06551021
O        1.50221757       2.66264110       5.58608016       28      -0.05613769       0.00642406       0.06551021
O        4.19827649      -0.02169035       9.52465743       29      -0.05613769      -0.00642406      -0.06551021
O        3.88990028       5.30359186       1.96928864       30       0.05613769       0.00642406      -0.06551021
O        1.19384135       2.61926041      13.14144895       31       0.05613769      -0.00642406       0.06551021
O        3.59080198       3.28129801      14.22498010       32      -0.02823293      -0.04527463      -0.14656635
O        0.89474306       4.64155425       0.88575749       33      -0.02823293       0.04527463       0.14656635
O        1.80131587       0.64034726       8.44112628       34       0.02823293      -0.04527463       0.14656635
O        4.49737479       2.00060350       6.66961131       35       0.02823293       0.04527463      -0.14656635
O        1.80131587       2.00060350       0.88575749       36       0.02823293       0.04527463       0.14656635
O        4.49737479       0.64034726      14.22498010       37       0.02823293      -0.04527463      -0.14656635
O        3.59080198       4.64155425       6.66961131       38      -0.02823293       0.04527463      -0.14656635
O        0.89474306       3.28129801       8.44112628       39      -0.02823293      -0.04527463       0.14656635
40
Lattice="5.403694520836809 6.2632379698362e-42 -1.1415840943893674e-79 -6.135569144491067e-42 5.291441428227119 -9.454510099130352e-38 3.1041416096605983e-81 -2.5987618185149233e-37 15.051180178481003" Properties=species:S:1:pos:R:3:spacegroup_kinds:I:1:forces:R:3 spacegroup="P 1" unit_cell=conventional occupancy="_JSON {\"0\": {\"In\": 1}, \"1\": {\"In\": 1}, \"2\": {\"In\": 1}, \"3\": {\"In\": 1}, \"4\": {\"In\": 1}, \"5\": {\"In\": 1}, \"6\": {\"In\": 1}, \"7\": {\"In\": 1}, \"8\": {\"In\": 1}, \"9\": {\"In\": 1}, \"10\": {\"In\": 1}, \"11\": {\"In\": 1}, \"12\": {\"In\": 1}, \"13\": {\"In\": 1}, \"14\": {\"In\": 1}, \"15\": {\"In\": 1}, \"16\": {\"O\": 1}, \"17\": {\"O\": 1}, \"18\": {\"O\": 1}, \"19\": {\"O\": 1}, \"20\": {\"O\": 1}, \"21\": {\"O\": 1}, \"22\": {\"O\": 1}, \"23\": {\"O\": 1}, \"24\": {\"O\": 1}, \"25\": {\"O\": 1}, \"26\": {\"O\": 1}, \"27\": {\"O\": 1}, \"28\": {\"O\": 1}, \"29\": {\"O\": 1}, \"30\": {\"O\": 1}, \"31\": {\"O\": 1}, \"32\": {\"O\": 1}, \"33\": {\"O\": 1}, \"34\": {\"O\": 1}, \"35\": {\"O\": 1}, \"36\": {\"O\": 1}, \"37\": {\"O\": 1}, \"38\": {\"O\": 1}, \"39\": {\"O\": 1}}" n_minim_iter=2 energy=-45152.9361144252 stress="0.05848027946289889 1.4467673357949016e-12 1.079926353202071e-12 1.4467673357949016e-12 0.05689956585771229 -5.0014541121414174e-12 1.079926353202071e-12 -5.0014541121414174e-12 0.05854632788555482" free_energy=-45152.9361144252 pbc="T T T"
In       2.85752038       4.01804926       8.47937840        0      -0.21159450       0.10963093       0.17167279
In       0.15567312       3.91911288       6.57180178        1      -0.21159450      -0.10963093      -0.17167279
In       2.54617414       1.37232855      14.09739187        2       0.21159450       0.10963093      -0.17167279
In       5.24802140       1.27339217       0.95378831        3       0.21159450      -0.10963093       0.17167279
In       2.54617414       1.27339217       6.57180178        4       0.21159450      -0.10963093      -0.17167279
In       5.24802140       1.37232855       8.47937840        5       0.21159450       0.10963093       0.17167279
In       2.85752038       3.91911288       0.95378831        6      -0.21159450      -0.10963093       0.17167279
In       0.15567312       4.01804926      14.09739187        7      -0.21159450       0.10963093      -0.17167279
In       2.83357401       3.89591887      12.26494624        8      -0.12917954      -0.12403632      -0.01436726
In       5.53542127       4.04124327       2.78623393        9      -0.12917954       0.12403632       0.01436726
In       2.57012051       1.25019816      10.31182402       10       0.12917954      -0.12403632       0.01436726
In      -0.13172675       1.39552256       4.73935615       11       0.12917954       0.12403632      -0.01436726
In       2.57012051       1.39552256       2.78623393       12       0.12917954       0.12403632       0.01436726
In      -0.13172675       1.25019816      12.26494624       13       0.12917954      -0.12403632      -0.01436726
In       2.83357401       4.04124327       4.73935615       14      -0.12917954       0.12403632      -0.01436726
In       5.53542127       3.89591887      10.31182402       15      -0.12917954      -0.12403632       0.01436726
O        4.80719866       4.45200621      12.11029583       16      -0.10627490       0.13060113       0.17689892
O        2.10535140       3.48515593       2.94088435       17      -0.10627490      -0.13060113      -0.17689892
O        0.59649587       1.80628550      10.46647444       18       0.10627490       0.13060113      -0.17689892
O        3.29834313       0.83943521       4.58470574       19       0.10627490      -0.13060113       0.17689892
O        0.59649587       0.83943521       2.94088435       20       0.10627490      -0.13060113      -0.17689892
O        3.29834313       1.80628550      12.11029583       21       0.10627490       0.13060113       0.17689892
O        4.80719866       3.48515593       4.58470574       22      -0.10627490      -0.13060113       0.17689892
O        2.10535140       4.45200621      10.46647444       23      -0.10627490       0.13060113      -0.17689892
O        3.89832644       2.62398265       9.48703035       24       0.03007673      -0.00272540      -0.05430525
O        1.19647918       5.31317950       5.56414983       25       0.03007673       0.00272540       0.05430525
O        1.50536808      -0.02173807      13.08973992       26      -0.03007673      -0.00272540       0.05430525
O        4.20721534       2.66745878       1.96144026       27      -0.03007673       0.00272540      -0.05430525
O        1.50536808       2.66745878       5.56414983       28      -0.03007673       0.00272540       0.05430525
O        4.20721534      -0.02173807       9.48703035       29      -0.03007673      -0.00272540      -0.05430525
O        3.89832644       5.31317950       1.96144026       30       0.03007673       0.00272540      -0.05430525
O        1.19647918       2.62398265      13.08973992       31       0.03007673      -0.00272540       0.05430525
O        3.59847373       3.28716432      14.16871999       32      -0.00253564      -0.01323410      -0.17177757
O        0.89662647       4.64999782       0.88246019       33      -0.00253564       0.01323410       0.17177757
O        1.80522079       0.64144361       8.40805028       34       0.00253564      -0.01323410       0.17177757
O        4.50706805       2.00427711       6.64312990       35       0.00253564       0.01323410      -0.17177757
O        1.80522079       2.00427711       0.88246019       36       0.00253564       0.01323410       0.17177757
O        4.50706805       0.64144361      14.16871999       37       0.00253564      -0.01323410      -0.17177757
O        3.59847373       4.64999782       6.64312990       38      -0.00253564       0.01323410      -0.17177757
O        0.89662647       3.28716432       8.40805028       39      -0.00253564      -0.01323410       0.17177757
40
Lattice="5.392287224255618 6.253917630236428e-42 -1.0909541947644063e-79 -6.151521149224354e-42 5.308522054213786 -8.979122346663805e-38 3.045326346737417e-81 -2.474940662895354e-37 15.03448979165528" Properties=species:S:1:pos:R:3:spacegroup_kinds:I:1:forces:R:3 spacegroup="P 1" unit_cell=conventional occupancy="_JSON {\"0\": {\"In\": 1}, \"1\": {\"In\": 1}, \"2\": {\"In\": 1}, \"3\": {\"In\": 1}, \"4\": {\"In\": 1}, \"5\": {\"In\": 1}, \"6\": {\"In\": 1}, \"7\": {\"In\": 1}, \"8\": {\"In\": 1}, \"9\": {\"In\": 1}, \"10\": {\"In\": 1}, \"11\": {\"In\": 1}, \"12\": {\"In\": 1}, \"13\": {\"In\": 1}, \"14\": {\"In\": 1}, \"15\": {\"In\": 1}, \"16\": {\"O\": 1}, \"17\": {\"O\": 1}, \"18\": {\"O\": 1}, \"19\": {\"O\": 1}, \"20\": {\"O\": 1}, \"21\": {\"O\": 1}, \"22\": {\"O\": 1}, \"23\": {\"O\": 1}, \"24\": {\"O\": 1}, \"25\": {\"O\": 1}, \"26\": {\"O\": 1}, \"27\": {\"O\": 1}, \"28\": {\"O\": 1}, \"29\": {\"O\": 1}, \"30\": {\"O\": 1}, \"31\": {\"O\": 1}, \"32\": {\"O\": 1}, \"33\": {\"O\": 1}, \"34\": {\"O\": 1}, \"35\": {\"O\": 1}, \"36\": {\"O\": 1}, \"37\": {\"O\": 1}, \"38\": {\"O\": 1}, \"39\": {\"O\": 1}}" n_minim_iter=3 energy=-45152.943686792474 stress="0.05458715999583507 -2.062313229791537e-12 -3.556491106652329e-12 -2.062313229791537e-12 0.06411523097940132 7.481210447742864e-12 -3.556491106652329e-12 7.481210447742864e-12 0.05880517880330703" free_energy=-45152.943686792474 pbc="T T T"
In       2.84990064       4.03183888       8.47125126        0      -0.16297597       0.08046664       0.13168271
In       0.15375703       3.93094421       6.56323853        1      -0.16297597      -0.08046664      -0.13168271
In       2.54238658       1.37757785      14.08048342        2       0.16297597       0.08046664      -0.13168271
In       5.23853020       1.27668318       0.95400637        3       0.16297597      -0.08046664       0.13168271
In       2.54238658       1.27668318       6.56323853        4       0.16297597      -0.08046664      -0.13168271
In       5.23853020       1.37757785       8.47125126        5       0.16297597       0.08046664       0.13168271
In       2.84990064       3.93094421       0.95400637        6      -0.16297597      -0.08046664       0.13168271
In       0.15375703       4.03183888      14.08048342        7      -0.16297597       0.08046664      -0.13168271
In       2.82663883       3.90755548      12.25124177        8      -0.14478855      -0.12939731      -0.01379954
In       5.52278244       4.05522760       2.78324803        9      -0.14478855       0.12939731       0.01379954
In       2.56564839       1.25329446      10.30049292       10       0.14478855      -0.12939731       0.01379954
In      -0.13049522       1.40096657       4.73399687       11       0.14478855       0.12939731      -0.01379954
In       2.56564839       1.40096657       2.78324803       12       0.14478855       0.12939731       0.01379954
In      -0.13049522       1.25329446      12.25124177       13       0.14478855      -0.12939731      -0.01379954
In       2.82663883       4.05522760       4.73399687       14      -0.14478855       0.12939731      -0.01379954
In       5.52278244       3.90755548      10.30049292       15      -0.14478855      -0.12939731       0.01379954
O        4.79624072       4.46736465      12.09817876       16      -0.10158506       0.15330746       0.14186426
O        2.10009710       3.49541843       2.93631103       17      -0.10158506      -0.15330746      -0.14186426
O        0.59604651       1.81310362      10.45355593       18       0.10158506       0.15330746      -0.14186426
O        3.29219012       0.84115740       4.58093386       19       0.10158506      -0.15330746       0.14186426
O        0.59604651       0.84115740       2.93631103       20       0.10158506      -0.15330746      -0.14186426
O        3.29219012       1.81310362      12.09817876       21       0.10158506       0.15330746       0.14186426
O        4.79624072       3.49541843       4.58093386       22      -0.10158506      -0.15330746       0.14186426
O        2.10009710       4.46736465      10.45355593       23      -0.10158506       0.15330746      -0.14186426
O        3.89031544       2.63243326       9.47611073       24       0.00324593       0.00478631      -0.05413341
O        1.19417183       5.33034982       5.55837906       25       0.00324593      -0.00478631       0.05413341
O        1.50197179      -0.02182777      13.07562395       26      -0.00324593       0.00478631       0.05413341
O        4.19811540       2.67608879       1.95886584       27      -0.00324593      -0.00478631      -0.05413341
O        1.50197179       2.67608879       5.55837906       28      -0.00324593      -0.00478631       0.05413341
O        4.19811540      -0.02182777       9.47611073       29      -0.00324593       0.00478631      -0.05413341
O        3.89031544       5.33034982       1.95886584       30       0.00324593      -0.00478631      -0.05413341
O        1.19417183       2.63243326      13.07562395       31       0.00324593       0.00478631       0.05413341
O        3.59086514       3.29768415      14.15172883       32      -0.03493344      -0.00897865      -0.16333050
O        0.89472153       4.66509893       0.88276096       33      -0.03493344       0.00897865       0.16333050
O        1.80142208       0.64342312       8.40000585       34       0.03493344      -0.00897865       0.16333050
O        4.49756570       2.01083791       6.63448394       35       0.03493344       0.00897865      -0.16333050
O        1.80142208       2.01083791       0.88276096       36       0.03493344       0.00897865       0.16333050
O        4.49756570       0.64342312      14.15172883       37       0.03493344      -0.00897865      -0.16333050
O        3.59086514       4.66509893       6.63448394       38      -0.03493344       0.00897865      -0.16333050
O        0.89472153       3.29768415       8.40000585       39      -0.03493344      -0.00897865       0.16333050
40
Lattice="5.407920666009924 6.272073113871371e-42 -1.0869707100308276e-79 -6.147067599118101e-42 5.304713090286554 -8.973366694761383e-38 2.9215590254866256e-81 -2.4771356965781267e-37 15.001791530093126" Properties=species:S:1:pos:R:3:spacegroup_kinds:I:1:forces:R:3 spacegroup="P 1" unit_cell=conventional occupancy="_JSON {\"0\": {\"In\": 1}, \"1\": {\"In\": 1}, \"2\": {\"In\": 1}, \"3\": {\"In\": 1}, \"4\": {\"In\": 1}, \"5\": {\"In\": 1}, \"6\": {\"In\": 1}, \"7\": {\"In\": 1}, \"8\": {\"In\": 1}, \"9\": {\"In\": 1}, \"10\": {\"In\": 1}, \"11\": {\"In\": 1}, \"12\": {\"In\": 1}, \"13\": {\"In\": 1}, \"14\": {\"In\": 1}, \"15\": {\"In\": 1}, \"16\": {\"O\": 1}, \"17\": {\"O\": 1}, \"18\": {\"O\": 1}, \"19\": {\"O\": 1}, \"20\": {\"O\": 1}, \"21\": {\"O\": 1}, \"22\": {\"O\": 1}, \"23\": {\"O\": 1}, \"24\": {\"O\": 1}, \"25\": {\"O\": 1}, \"26\": {\"O\": 1}, \"27\": {\"O\": 1}, \"28\": {\"O\": 1}, \"29\": {\"O\": 1}, \"30\": {\"O\": 1}, \"31\": {\"O\": 1}, \"32\": {\"O\": 1}, \"33\": {\"O\": 1}, \"34\": {\"O\": 1}, \"35\": {\"O\": 1}, \"36\": {\"O\": 1}, \"37\": {\"O\": 1}, \"38\": {\"O\": 1}, \"39\": {\"O\": 1}}" n_minim_iter=4 energy=-45152.97787913397 stress="0.06873894345130586 1.2093633094193093e-11 3.6117699647632825e-12 1.2093633094193093e-11 0.06746368251654065 -3.24286184148482e-12 3.6117699647632825e-12 -3.24286184148482e-12 0.06277846897916949" free_energy=-45152.97787913397 pbc="T T T"
In       2.84971099       4.03325621       8.45958608        0      -0.03927978       0.04541039      -0.08891699
In       0.14575065       3.92381343       6.54220545        1      -0.03927978      -0.04541039       0.08891699
In       2.55820968       1.38089966      14.04310121        2       0.03927978       0.04541039       0.08891699
In       5.26217001       1.27145688       0.95869032        3       0.03927978      -0.04541039      -0.08891699
In       2.55820968       1.27145688       6.54220545        4       0.03927978      -0.04541039       0.08891699
In       5.26217001       1.38089966       8.45958608        5       0.03927978       0.04541039      -0.08891699
In       2.84971099       3.92381343       0.95869032        6      -0.03927978      -0.04541039      -0.08891699
In       0.14575065       4.03325621      14.04310121        7      -0.03927978       0.04541039       0.08891699
In       2.82946728       3.89951794      12.22403303        8      -0.10294821      -0.02483774      -0.06346910
In       5.53342761       4.05755169       2.77775850        9      -0.10294821       0.02483774       0.06346910
In       2.57845339       1.24716140      10.27865426       10       0.10294821      -0.02483774       0.06346910
In      -0.12550695       1.40519515       4.72313727       11       0.10294821       0.02483774      -0.06346910
In       2.57845339       1.40519515       2.77775850       12       0.10294821       0.02483774       0.06346910
In      -0.12550695       1.24716140      12.22403303       13       0.10294821      -0.02483774      -0.06346910
In       2.82946728       4.05755169       4.72313727       14      -0.10294821       0.02483774      -0.06346910
In       5.53342761       3.89951794      10.27865426       15      -0.10294821      -0.02483774       0.06346910
O        4.80567332       4.46977975      12.07885683       16      -0.15368796       0.05071288      -0.13694539
O        2.10171299       3.48728989       2.92293470       17      -0.15368796      -0.05071288       0.13694539
O        0.60224734       1.81742320      10.42383047       18       0.15368796       0.05071288       0.13694539
O        3.30620768       0.83493334       4.57796106       19       0.15368796      -0.05071288      -0.13694539
O        0.60224734       0.83493334       2.92293470       20       0.15368796      -0.05071288       0.13694539
O        3.30620768       1.81742320      12.07885683       21       0.15368796       0.05071288      -0.13694539
O        4.80567332       3.48728989       4.57796106       22      -0.15368796      -0.05071288      -0.13694539
O        2.10171299       4.46977975      10.42383047       23      -0.15368796       0.05071288       0.13694539
O        3.90260463       2.63049123       9.45330659       24      -0.07714214       0.03255931      -0.02198201
O        1.19864430       5.32657840       5.54848494       25      -0.07714214      -0.03255931       0.02198201
O        1.50531603      -0.02186531      13.04938070       26       0.07714214       0.03255931       0.02198201
O        4.20927637       2.67422186       1.95241083       27       0.07714214      -0.03255931      -0.02198201
O        1.50531603       2.67422186       5.54848494       28       0.07714214      -0.03255931       0.02198201
O        4.20927637      -0.02186531       9.45330659       29       0.07714214       0.03255931      -0.02198201
O        3.90260463       5.32657840       1.95241083       30      -0.07714214      -0.03255931      -0.02198201
O        1.19864430       2.63049123      13.04938070       31      -0.07714214       0.03255931       0.02198201
O        3.60099178       3.29485860      14.11394917       32      -0.04238788       0.03894005      -0.02031305
O        0.89703145       4.66221103       0.88784237       33      -0.04238788      -0.03894005       0.02031305
O        1.80692888       0.64250206       8.38873813       34       0.04238788       0.03894005       0.02031305
O        4.51088922       2.00985449       6.61305340       35       0.04238788      -0.03894005      -0.02031305
O        1.80692888       2.00985449       0.88784237       36       0.04238788      -0.03894005       0.02031305
O        4.51088922       0.64250206      14.11394917       37       0.04238788       0.03894005      -0.02031305
O        3.60099178       4.66221103       6.61305340       38      -0.04238788      -0.03894005      -0.02031305
O        0.89703145       3.29485860       8.38873813       39      -0.04238788       0.03894005       0.02031305
40
Lattice="5.394572808877084 6.256527768110332e-42 -1.1168251236835e-79 -6.136984411482997e-42 5.295953955642543 -9.21960918340811e-38 2.993223887810986e-81 -2.5322634854070285e-37 15.063783943827952" Properties=species:S:1:pos:R:3:spacegroup_kinds:I:1:forces:R:3 spacegroup="P 1" unit_cell=conventional occupancy="_JSON {\"0\": {\"In\": 1}, \"1\": {\"In\": 1}, \"2\": {\"In\": 1}, \"3\": {\"In\": 1}, \"4\": {\"In\": 1}, \"5\": {\"In\": 1}, \"6\": {\"In\": 1}, \"7\": {\"In\": 1}, \"8\": {\"In\": 1}, \"9\": {\"In\": 1}, \"10\": {\"In\": 1}, \"11\": {\"In\": 1}, \"12\": {\"In\": 1}, \"13\": {\"In\": 1}, \"14\": {\"In\": 1}, \"15\": {\"In\": 1}, \"16\": {\"O\": 1}, \"17\": {\"O\": 1}, \"18\": {\"O\": 1}, \"19\": {\"O\": 1}, \"20\": {\"O\": 1}, \"21\": {\"O\": 1}, \"22\": {\"O\": 1}, \"23\": {\"O\": 1}, \"24\": {\"O\": 1}, \"25\": {\"O\": 1}, \"26\": {\"O\": 1}, \"27\": {\"O\": 1}, \"28\": {\"O\": 1}, \"29\": {\"O\": 1}, \"30\": {\"O\": 1}, \"31\": {\"O\": 1}, \"32\": {\"O\": 1}, \"33\": {\"O\": 1}, \"34\": {\"O\": 1}, \"35\": {\"O\": 1}, \"36\": {\"O\": 1}, \"37\": {\"O\": 1}, \"38\": {\"O\": 1}, \"39\": {\"O\": 1}}" n_minim_iter=5 energy=-45152.99535717175 stress="0.06600723675543307 -2.576633207590179e-12 -3.705620018973305e-12 -2.576633207590179e-12 0.06644767846409987 8.80832689266745e-13 -3.705620018973305e-12 8.80832689266745e-13 0.07293982013378172" free_energy=-45152.99535717175 pbc="T T T"
In       2.83733811       4.03067353       8.49450638        0       0.02938514       0.02367753      -0.10090240
In       0.14005170       3.91325740       6.56927757        1       0.02938514      -0.02367753       0.10090240
In       2.55723470       1.38269655      14.10116954        2      -0.02938514       0.02367753       0.10090240
In       5.25452111       1.26528042       0.96261440        3      -0.02938514      -0.02367753      -0.10090240
In       2.55723470       1.26528042       6.56927757        4      -0.02938514      -0.02367753       0.10090240
In       5.25452111       1.38269655       8.49450638        5      -0.02938514       0.02367753      -0.10090240
In       2.83733811       3.91325740       0.96261440        6       0.02938514      -0.02367753      -0.10090240
In       0.14005170       4.03067353      14.10116954        7       0.02938514       0.02367753       0.10090240
In       2.81530198       3.89003604      12.27189166        8      -0.08847251       0.03587178      -0.04553597
In       5.51258838       4.05389490       2.79189228        9      -0.08847251      -0.03587178       0.04553597
In       2.57927083       1.24205906      10.32378425       10       0.08847251       0.03587178       0.04553597
In      -0.11801557       1.40591792       4.73999969       11       0.08847251      -0.03587178      -0.04553597
In       2.57927083       1.40591792       2.79189228       12       0.08847251      -0.03587178       0.04553597
In      -0.11801557       1.24205906      12.27189166       13       0.08847251       0.03587178      -0.04553597
In       2.81530198       4.05389490       4.73999969       14      -0.08847251      -0.03587178      -0.04553597
In       5.51258838       3.89003604      10.32378425       15      -0.08847251       0.03587178       0.04553597
O        4.78714228       4.46662544      12.12733312       16      -0.06810682      -0.00294355      -0.08543901
O        2.08985587       3.47730549       2.93645083       17      -0.06810682       0.00294355       0.08543901
O        0.60743053       1.81864847      10.46834280       18       0.06810682      -0.00294355       0.08543901
O        3.30471694       0.82932851       4.59544115       19       0.06810682       0.00294355      -0.08543901
O        0.60743053       0.82932851       2.93645083       20       0.06810682       0.00294355       0.08543901
O        3.30471694       1.81864847      12.12733312       21       0.06810682      -0.00294355      -0.08543901
O        4.78714228       3.47730549       4.59544115       22      -0.06810682       0.00294355      -0.08543901
O        2.08985587       4.46662544      10.46834280       23      -0.06810682      -0.00294355       0.08543901
O        3.89120845       2.62720569       9.49033762       24      -0.04505465       0.05488532      -0.00542585
O        1.19392204       5.31672524       5.57344632       25      -0.04505465      -0.05488532       0.00542585
O        1.50336436      -0.02077129      13.10533829       26       0.04505465       0.05488532       0.00542585
O        4.20065076       2.66874826       1.95844565       27       0.04505465      -0.05488532      -0.00542585
O        1.50336436       2.66874826       5.57344632       28       0.04505465      -0.05488532       0.00542585
O        4.20065076      -0.02077129       9.49033762       29       0.04505465       0.05488532      -0.00542585
O        3.89120845       5.31672524       1.95844565       30      -0.04505465      -0.05488532      -0.00542585
O        1.19392204       2.62720569      13.10533829       31      -0.04505465       0.05488532       0.00542585
O        3.59001965       3.29000132      14.16859160       32      -0.07816098       0.00303513      -0.00839751
O        0.89273325       4.65392961       0.89519234       33      -0.07816098      -0.00303513       0.00839751
O        1.80455316       0.64202435       8.42708431       34       0.07816098       0.00303513       0.00839751
O        4.50183956       2.00595263       6.63669963       35       0.07816098      -0.00303513      -0.00839751
O        1.80455316       2.00595263       0.89519234       36       0.07816098      -0.00303513       0.00839751
O        4.50183956       0.64202435      14.16859160       37       0.07816098       0.00303513      -0.00839751
O        3.59001965       4.65392961       6.63669963       38      -0.07816098      -0.00303513      -0.00839751
O        0.89273325       3.29000132       8.42708431       39      -0.07816098       0.00303513       0.00839751
40