40
Lattice="5.617051029128832 6.469252771717722e-42 0.0 6.2400301402292535e-43 6.05153288241707 0.0 0.0 0.0 16.49742210963357" Properties=species:S:1:pos:R:3:spacegroup_kinds:I:1:forces:R:3 spacegroup="P 1" unit_cell=conventional occupancy="_JSON {\"0\": {\"In\": 1}, \"1\": {\"In\": 1}, \"2\": {\"In\": 1}, \"3\": {\"In\": 1}, \"4\": {\"In\": 1}, \"5\": {\"In\": 1}, \"6\": {\"In\": 1}, \"7\": {\"In\": 1}, \"8\": {\"In\": 1}, \"9\": {\"In\": 1}, \"10\": {\"In\": 1}, \"11\": {\"In\": 1}, \"12\": {\"In\": 1}, \"13\": {\"In\": 1}, \"14\": {\"In\": 1}, \"15\": {\"In\": 1}, \"16\": {\"O\": 1}, \"17\": {\"O\": 1}, \"18\": {\"O\": 1}, \"19\": {\"O\": 1}, \"20\": {\"O\": 1}, \"21\": {\"O\": 1}, \"22\": {\"O\": 1}, \"23\": {\"O\": 1}, \"24\": {\"O\": 1}, \"25\": {\"O\": 1}, \"26\": {\"O\": 1}, \"27\": {\"O\": 1}, \"28\": {\"O\": 1}, \"29\": {\"O\": 1}, \"30\": {\"O\": 1}, \"31\": {\"O\": 1}, \"32\": {\"O\": 1}, \"33\": {\"O\": 1}, \"34\": {\"O\": 1}, \"35\": {\"O\": 1}, \"36\": {\"O\": 1}, \"37\": {\"O\": 1}, \"38\": {\"O\": 1}, \"39\": {\"O\": 1}}" n_minim_iter=33 energy=-45150.13243396634 stress="0.013691815820171338 2.3454472683517716e-12 -4.269282700862943e-12 2.3454472683517716e-12 0.013555005133763896 1.1602461850822307e-12 -4.269282700862943e-12 1.1602461850822307e-12 0.013683628430833565" free_energy=-45150.13243396634 pbc="T T T"
In       2.79995935       4.95104950       9.45121992        0      -0.00660148      -0.00078198       0.00266814
In      -0.00856616       4.12624982       7.04620219        1      -0.00660148       0.00078198      -0.00266814
In       2.81709167       1.92528306      15.29491325        2       0.00660148      -0.00078198      -0.00266814
In       5.62561719       1.10048338       1.20250886        3       0.00660148       0.00078198       0.00266814
In       2.81709167       1.10048338       7.04620219        4       0.00660148       0.00078198      -0.00266814
In       5.62561719       1.92528306       9.45121992        5       0.00660148      -0.00078198       0.00266814
In       2.79995935       4.12624982       1.20250886        6      -0.00660148       0.00078198       0.00266814
In      -0.00856616       4.95104950      15.29491325        7      -0.00660148      -0.00078198      -0.00266814
In       2.78032293       4.56221384      13.51774500        8       0.00131275       0.00559029      -0.00582570
In       5.58884844       4.51508548       2.97967711        9       0.00131275      -0.00559030       0.00582570
In       2.83672810       1.53644740      11.22838817       10      -0.00131275       0.00559029       0.00582570
In       0.02820259       1.48931904       5.26903394       11      -0.00131275      -0.00559029      -0.00582570
In       2.83672810       1.48931904       2.97967711       12      -0.00131275      -0.00559029       0.00582570
In       0.02820259       1.53644740      13.51774500       13      -0.00131275       0.00559029      -0.00582570
In       2.78032293       4.51508548       5.26903394       14       0.00131275      -0.00559029      -0.00582570
In       5.58884844       4.56221384      11.22838817       15       0.00131275       0.00559030       0.00582570
O        4.81988461       5.40045461      13.14867793       16      -0.00170713      -0.00482004      -0.00386391
O        2.01135909       3.67684472       3.34874418       17      -0.00170713       0.00482004       0.00386391
O        0.79716642       2.37468817      11.59745523       18       0.00170713      -0.00482004       0.00386391
O        3.60569194       0.65107827       4.89996688       19       0.00170713       0.00482004      -0.00386391
O        0.79716642       0.65107827       3.34874418       20       0.00170713       0.00482004       0.00386391
O        3.60569194       2.37468817      13.14867793       21       0.00170713      -0.00482004      -0.00386391
O        4.81988461       3.67684472       4.89996688       22      -0.00170713       0.00482004      -0.00386391
O        2.01135909       5.40045461      11.59745523       23      -0.00170713      -0.00482004       0.00386391
O        3.93009060       3.25731577      10.27139327       24      -0.00476554      -0.00031739      -0.00181866
O        1.12156509       5.81998355       6.22602884       25      -0.00476554       0.00031739       0.00181866
O        1.68696043       0.23154933      14.47473990       26       0.00476554      -0.00031739       0.00181866
O        4.49548594       2.79421711       2.02268221       27       0.00476554       0.00031739      -0.00181866
O        1.68696043       2.79421711       6.22602884       28       0.00476554       0.00031739       0.00181866
O        4.49548594       0.23154933      10.27139327       29       0.00476554      -0.00031739      -0.00181866
O        3.93009060       5.81998355       2.02268221       30      -0.00476554       0.00031739      -0.00181866
O        1.12156509       3.25731577      14.47473990       31      -0.00476554      -0.00031739       0.00181866
O        3.64619619       4.02530109      15.64442293       32       0.00128877       0.00303202       0.00147400
O        0.83767068       5.05199823       0.85299918       33       0.00128877      -0.00303203      -0.00147400
O        1.97085484       0.99953465       9.10171023       34      -0.00128877       0.00303202      -0.00147400
O        4.77938035       2.02623179       7.39571188       35      -0.00128877      -0.00303202       0.00147400
O        1.97085484       2.02623179       0.85299918       36      -0.00128877      -0.00303202      -0.00147400
O        4.77938035       0.99953465      15.64442293       37      -0.00128877       0.00303202       0.00147400
O        3.64619619       5.05199823       7.39571188       38       0.00128877      -0.00303202       0.00147400
O        0.83767068       4.02530109       9.10171023       39       0.00128877       0.00303202      -0.00147400
