40
Lattice="5.7317783005459795 1.5391927589665033e-41 0.0 -7.938102607695137e-43 6.021430264785045 0.0 0.0 0.0 16.625894839685817" Properties=species:S:1:pos:R:3:spacegroup_kinds:I:1:forces:R:3 spacegroup="P 1" unit_cell=conventional occupancy="_JSON {\"0\": {\"In\": 1}, \"1\": {\"In\": 1}, \"2\": {\"In\": 1}, \"3\": {\"In\": 1}, \"4\": {\"In\": 1}, \"5\": {\"In\": 1}, \"6\": {\"In\": 1}, \"7\": {\"In\": 1}, \"8\": {\"In\": 1}, \"9\": {\"In\": 1}, \"10\": {\"In\": 1}, \"11\": {\"In\": 1}, \"12\": {\"In\": 1}, \"13\": {\"In\": 1}, \"14\": {\"In\": 1}, \"15\": {\"In\": 1}, \"16\": {\"O\": 1}, \"17\": {\"O\": 1}, \"18\": {\"O\": 1}, \"19\": {\"O\": 1}, \"20\": {\"O\": 1}, \"21\": {\"O\": 1}, \"22\": {\"O\": 1}, \"23\": {\"O\": 1}, \"24\": {\"O\": 1}, \"25\": {\"O\": 1}, \"26\": {\"O\": 1}, \"27\": {\"O\": 1}, \"28\": {\"O\": 1}, \"29\": {\"O\": 1}, \"30\": {\"O\": 1}, \"31\": {\"O\": 1}, \"32\": {\"O\": 1}, \"33\": {\"O\": 1}, \"34\": {\"O\": 1}, \"35\": {\"O\": 1}, \"36\": {\"O\": 1}, \"37\": {\"O\": 1}, \"38\": {\"O\": 1}, \"39\": {\"O\": 1}}" n_minim_iter=17 energy=-45149.610259831476 stress="0.024089951949924845 2.1048052504141132e-12 3.955274659371767e-12 2.1048052504141132e-12 0.02415215402244977 -3.2368242325235657e-14 3.955274659371767e-12 -3.2368242325235657e-14 0.024040198129261548" free_energy=-45149.610259831476 pbc="T T T"
In       2.85422257       4.86603296       9.52154203        0       0.00466198       0.00265671       0.00264149
In      -0.01166658       4.16611244       7.10435281        1       0.00466198      -0.00265671      -0.00264149
In       2.87755573       1.85531782      15.41730023        2      -0.00466198       0.00265671      -0.00264149
In       5.74344488       1.15539731       1.20859461        3      -0.00466198      -0.00265671       0.00264149
In       2.87755573       1.15539731       7.10435281        4      -0.00466198      -0.00265671      -0.00264149
In       5.74344488       1.85531782       9.52154203        5      -0.00466198       0.00265671       0.00264149
In       2.85422257       4.16611244       1.20859461        6       0.00466198      -0.00265671       0.00264149
In      -0.01166658       4.86603296      15.41730023        7       0.00466198       0.00265671      -0.00264149
In       2.82737919       4.43302579      13.59744308        8      -0.00174885       0.00932691      -0.00064165
In       5.69326834       4.59911961       3.02845176        9      -0.00174885      -0.00932691       0.00064165
In       2.90439912       1.42231065      11.34139918       10       0.00174885       0.00932691       0.00064165
In       0.03850996       1.58840448       5.28449566       11       0.00174885      -0.00932691      -0.00064165
In       2.90439912       1.58840448       3.02845176       12       0.00174885      -0.00932691       0.00064165
In       0.03850996       1.42231065      13.59744308       13       0.00174885       0.00932691      -0.00064165
In       2.82737919       4.59911961       5.28449566       14      -0.00174885      -0.00932691      -0.00064165
In       5.69326834       4.43302579      11.34139918       15      -0.00174885       0.00932691       0.00064165
O        4.90884432       5.24083062      13.24990752       16      -0.00276744      -0.00835024       0.00221863
O        2.04295517       3.79131478       3.37598732       17      -0.00276744       0.00835024      -0.00221863
O        0.82293398       2.23011549      11.68893474       18       0.00276744      -0.00835024      -0.00221863
O        3.68882313       0.78059965       4.93696010       19       0.00276744       0.00835024       0.00221863
O        0.82293398       0.78059965       3.37598732       20       0.00276744       0.00835024      -0.00221863
O        3.68882313       2.23011549      13.24990752       21       0.00276744      -0.00835024       0.00221863
O        4.90884432       3.79131478       4.93696010       22      -0.00276744       0.00835024       0.00221863
O        2.04295517       5.24083062      11.68893474       23      -0.00276744      -0.00835024      -0.00221863
O        4.01059120       3.16502469      10.37744608       24      -0.00051232       0.00051838      -0.00079795
O        1.14470205       5.86712070       6.24844876       25      -0.00051232      -0.00051838       0.00079795
O        1.72118710       0.15430956      14.56139618       26       0.00051232       0.00051838       0.00079795
O        4.58707625       2.85640557       2.06449866       27       0.00051232      -0.00051838      -0.00079795
O        1.72118710       2.85640557       6.24844876       28       0.00051232      -0.00051838       0.00079795
O        4.58707625       0.15430956      10.37744608       29       0.00051232       0.00051838      -0.00079795
O        4.01059120       5.86712070       2.06449866       30      -0.00051232      -0.00051838      -0.00079795
O        1.14470205       3.16502469      14.56139618       31      -0.00051232       0.00051838       0.00079795
O        3.70876545       3.97196063      15.74880687       32       0.00845689      -0.00035394       0.00155941
O        0.84287630       5.06018477       0.87708797       33       0.00845689       0.00035394      -0.00155941
O        2.02301285       0.96124550       9.19003539       34      -0.00845689      -0.00035394      -0.00155941
O        4.88890200       2.04946963       7.43585945       35      -0.00845689       0.00035394       0.00155941
O        2.02301285       2.04946963       0.87708797       36      -0.00845689       0.00035394      -0.00155941
O        4.88890200       0.96124550      15.74880687       37      -0.00845689      -0.00035394       0.00155941
O        3.70876545       5.06018477       7.43585945       38       0.00845689       0.00035394       0.00155941
O        0.84287630       3.97196063       9.19003539       39       0.00845689      -0.00035394      -0.00155941
