40
Lattice="6.132214773682816 2.697897204029194e-41 -1.5279344049410372e-78 -2.676379921040237e-41 6.154631490008122 -3.4707974889665767e-37 -2.360553675736966e-82 -9.792755581491306e-37 17.27714549069949" Properties=species:S:1:pos:R:3:spacegroup_kinds:I:1:forces:R:3 spacegroup="P 1" unit_cell=conventional occupancy="_JSON {\"0\": {\"In\": 1}, \"1\": {\"In\": 1}, \"2\": {\"In\": 1}, \"3\": {\"In\": 1}, \"4\": {\"In\": 1}, \"5\": {\"In\": 1}, \"6\": {\"In\": 1}, \"7\": {\"In\": 1}, \"8\": {\"In\": 1}, \"9\": {\"In\": 1}, \"10\": {\"In\": 1}, \"11\": {\"In\": 1}, \"12\": {\"In\": 1}, \"13\": {\"In\": 1}, \"14\": {\"In\": 1}, \"15\": {\"In\": 1}, \"16\": {\"O\": 1}, \"17\": {\"O\": 1}, \"18\": {\"O\": 1}, \"19\": {\"O\": 1}, \"20\": {\"O\": 1}, \"21\": {\"O\": 1}, \"22\": {\"O\": 1}, \"23\": {\"O\": 1}, \"24\": {\"O\": 1}, \"25\": {\"O\": 1}, \"26\": {\"O\": 1}, \"27\": {\"O\": 1}, \"28\": {\"O\": 1}, \"29\": {\"O\": 1}, \"30\": {\"O\": 1}, \"31\": {\"O\": 1}, \"32\": {\"O\": 1}, \"33\": {\"O\": 1}, \"34\": {\"O\": 1}, \"35\": {\"O\": 1}, \"36\": {\"O\": 1}, \"37\": {\"O\": 1}, \"38\": {\"O\": 1}, \"39\": {\"O\": 1}}" n_minim_iter=17 energy=-45150.14361972864 stress="-0.005641248494209159 4.3594331394314315e-12 -1.2050316976295208e-12 4.3594331394314315e-12 -0.005930268205675826 2.6149622854726115e-12 -1.2050316976295208e-12 2.6149622854726115e-12 -0.005952439001661394" free_energy=-45150.14361972864 pbc="T T T"
In       2.72453150       5.13135632      10.18991704        0       0.00049515      -0.00722006       0.00037968
In      -0.34157589       4.10059091       7.08722846        1       0.00049515       0.00722006      -0.00037967
In       3.40768328       2.05404058      15.72580120        2      -0.00049515      -0.00722006      -0.00037968
In       6.47379066       1.02327517       1.55134429        3      -0.00049515       0.00722006       0.00037968
In       3.40768328       1.02327517       7.08722846        4      -0.00049515       0.00722006      -0.00037968
In       6.47379066       2.05404058      10.18991704        5      -0.00049515      -0.00722006       0.00037968
In       2.72453150       4.10059091       1.55134429        6       0.00049515       0.00722006       0.00037968
In      -0.34157589       5.13135632      15.72580120        7       0.00049515      -0.00722006      -0.00037968
In       2.77695419       4.92248015      14.05119215        8      -0.00066468      -0.00183466       0.00611834
In       5.84306158       4.30946709       3.22595334        9      -0.00066468       0.00183466      -0.00611834
In       3.35526058       1.84516440      11.86452609       10       0.00066468      -0.00183466      -0.00611834
In       0.28915319       1.23215134       5.41261940       11       0.00066468       0.00183466       0.00611834
In       3.35526058       1.23215134       3.22595334       12       0.00066468       0.00183466      -0.00611834
In       0.28915319       1.84516440      14.05119215       13       0.00066468      -0.00183466       0.00611834
In       2.77695419       4.30946709       5.41261940       14      -0.00066468       0.00183466       0.00611834
In       5.84306158       4.92248015      11.86452609       15      -0.00066468      -0.00183466      -0.00611834
O        4.91073333       5.72008336      13.72032409       16       0.00103457      -0.00391583      -0.00436094
O        1.84462594       3.51186387       3.55682140       17       0.00103457       0.00391583       0.00436094
O        1.22148145       2.64276762      12.19539415       18      -0.00103457      -0.00391583       0.00436094
O        4.28758883       0.43454813       5.08175134       19      -0.00103457       0.00391583      -0.00436094
O        1.22148145       0.43454813       3.55682140       20      -0.00103457       0.00391583       0.00436094
O        4.28758883       2.64276762      13.72032409       21      -0.00103457      -0.00391583      -0.00436094
O        4.91073333       3.51186387       5.08175134       22       0.00103457       0.00391583      -0.00436094
O        1.84462594       5.72008336      12.19539415       23       0.00103457      -0.00391583       0.00436094
O        4.20753854       3.69166512      10.93012970       24      -0.00435921      -0.00093406      -0.00347846
O        1.14143115       5.54028211       6.34701579       25      -0.00435921       0.00093406       0.00347846
O        1.92467624       0.61434938      14.98558854       26       0.00435921      -0.00093406       0.00347846
O        4.99078362       2.46296637       2.29155695       27       0.00435921       0.00093406      -0.00347846
O        1.92467624       2.46296637       6.34701579       28       0.00435921       0.00093406       0.00347846
O        4.99078362       0.61434938      10.93012970       29       0.00435921      -0.00093406      -0.00347846
O        4.20753854       5.54028211       2.29155695       30      -0.00435921       0.00093406      -0.00347846
O        1.14143115       3.69166512      14.98558854       31      -0.00435921      -0.00093406       0.00347846
O        3.82205852       4.19138275      16.17881811       32      -0.00328921      -0.00094003      -0.00686343
O        0.75595113       5.04056449       1.09832738       33      -0.00328921       0.00094003       0.00686343
O        2.31015625       1.11406700       9.73690012       34       0.00328921      -0.00094003       0.00686343
O        5.37626364       1.96324874       7.54024537       35       0.00328921       0.00094003      -0.00686343
O        2.31015625       1.96324874       1.09832738       36       0.00328921       0.00094003       0.00686343
O        5.37626364       1.11406700      16.17881811       37       0.00328921      -0.00094003      -0.00686343
O        3.82205852       5.04056449       7.54024537       38      -0.00328921       0.00094003      -0.00686343
O        0.75595113       4.19138275       9.73690012       39      -0.00328921      -0.00094003       0.00686343
