40
Lattice="5.485553063119519 -6.435861304134764e-44 0.0 6.457058145921348e-44 5.503620015605919 0.0 0.0 0.0 15.550882383675757" Properties=species:S:1:pos:R:3:spacegroup_kinds:I:1:forces:R:3 spacegroup="P 1" unit_cell=conventional occupancy="_JSON {\"0\": {\"In\": 1}, \"1\": {\"In\": 1}, \"2\": {\"In\": 1}, \"3\": {\"In\": 1}, \"4\": {\"In\": 1}, \"5\": {\"In\": 1}, \"6\": {\"In\": 1}, \"7\": {\"In\": 1}, \"8\": {\"In\": 1}, \"9\": {\"In\": 1}, \"10\": {\"In\": 1}, \"11\": {\"In\": 1}, \"12\": {\"In\": 1}, \"13\": {\"In\": 1}, \"14\": {\"In\": 1}, \"15\": {\"In\": 1}, \"16\": {\"O\": 1}, \"17\": {\"O\": 1}, \"18\": {\"O\": 1}, \"19\": {\"O\": 1}, \"20\": {\"O\": 1}, \"21\": {\"O\": 1}, \"22\": {\"O\": 1}, \"23\": {\"O\": 1}, \"24\": {\"O\": 1}, \"25\": {\"O\": 1}, \"26\": {\"O\": 1}, \"27\": {\"O\": 1}, \"28\": {\"O\": 1}, \"29\": {\"O\": 1}, \"30\": {\"O\": 1}, \"31\": {\"O\": 1}, \"32\": {\"O\": 1}, \"33\": {\"O\": 1}, \"34\": {\"O\": 1}, \"35\": {\"O\": 1}, \"36\": {\"O\": 1}, \"37\": {\"O\": 1}, \"38\": {\"O\": 1}, \"39\": {\"O\": 1}}" n_minim_iter=1 energy=-45149.72743016377 stress="-0.006420499859222342 1.2066630848634759e-12 -6.685464279646057e-13 1.2066630848634759e-12 0.0015480701400228775 2.013590243785724e-12 -6.685464279646057e-13 2.013590243785724e-12 -0.0020300685652957636" free_energy=-45149.72743016377 pbc="T T T"
In       2.80011101       4.32713671       8.85216046        0       0.07689136      -0.17877391      -0.04450539
In       0.05733448       3.92829332       6.69872192        1       0.07689136       0.17877391       0.04450539
In       2.68544205       1.57532670      14.47416311        2      -0.07689136      -0.17877391       0.04450539
In       5.42821858       1.17648331       1.07671927        3      -0.07689136       0.17877391      -0.04450539
In       2.68544205       1.17648331       6.69872192        4      -0.07689136       0.17877391       0.04450539
In       5.42821858       1.57532670       8.85216046        5      -0.07689136      -0.17877391      -0.04450539
In       2.80011101       3.92829332       1.07671927        6       0.07689136       0.17877391      -0.04450539
In       0.05733448       4.32713671      14.47416311        7       0.07689136      -0.17877391       0.04450539
In       2.80751273       4.09733820      12.69443365        8       0.02801239       0.02576779      -0.09788469
In       5.55028926       4.15809182       2.85644873        9       0.02801239      -0.02576779       0.09788469
In       2.67804033       1.34552819      10.63188992       10      -0.02801239       0.02576779       0.09788469
In      -0.06473620       1.40628182       4.91899246       11      -0.02801239      -0.02576779      -0.09788469
In       2.67804033       1.40628182       2.85644873       12      -0.02801239      -0.02576779       0.09788469
In      -0.06473620       1.34552819      12.69443365       13      -0.02801239       0.02576779      -0.09788469
In       2.80751273       4.15809182       4.91899246       14       0.02801239      -0.02576779      -0.09788469
In       5.55028926       4.09733820      10.63188992       15       0.02801239       0.02576779       0.09788469
O        4.78221621       4.77983611      12.44537764       16       0.16189611       0.06070017       0.16271702
O        2.03943968       3.47559391       3.10550474       17       0.16189611      -0.06070017      -0.16271703
O        0.70333685       2.02802610      10.88094593       18      -0.16189611       0.06070017      -0.16271703
O        3.44611338       0.72378390       4.66993645       19      -0.16189611      -0.06070017       0.16271703
O        0.70333685       0.72378390       3.10550474       20      -0.16189611      -0.06070017      -0.16271703
O        3.44611338       2.02802610      12.44537764       21      -0.16189611       0.06070017       0.16271702
O        4.78221621       3.47559391       4.66993645       22       0.16189611      -0.06070017       0.16271703
O        2.03943968       4.77983611      10.88094593       23       0.16189611       0.06070017      -0.16271702
O        3.91542543       2.85170152       9.78804767       24       0.16354198      -0.01907422       0.16079470
O        1.17264889       5.40372850       5.76283472       25       0.16354198       0.01907422      -0.16079470
O        1.57012764       0.09989151      13.53827591       26      -0.16354198      -0.01907422      -0.16079470
O        4.31290417       2.65191850       2.01260648       27      -0.16354198       0.01907422       0.16079470
O        1.57012764       2.65191850       5.76283472       28      -0.16354198       0.01907422      -0.16079470
O        4.31290417       0.09989151       9.78804767       29      -0.16354198      -0.01907422       0.16079470
O        3.91542543       5.40372850       2.01260648       30       0.16354198       0.01907422       0.16079470
O        1.17264889       2.85170152      13.53827591       31       0.16354198      -0.01907422      -0.16079470
O        3.58068481       3.57631404      14.70795411       32      -0.05963048      -0.06809476      -0.22668910
O        0.83790828       4.67911598       0.84292828       33      -0.05963048       0.06809476       0.22668910
O        1.90486826       0.82450403       8.61836947       34       0.05963048      -0.06809476       0.22668910
O        4.64764479       1.92730598       6.93251291       35       0.05963048       0.06809476      -0.22668910
O        1.90486826       1.92730598       0.84292828       36       0.05963048       0.06809476       0.22668910
O        4.64764479       0.82450403      14.70795411       37       0.05963048      -0.06809476      -0.22668910
O        3.58068481       4.67911598       6.93251291       38      -0.05963048       0.06809476      -0.22668910
O        0.83790828       3.57631404       8.61836947       39      -0.05963048      -0.06809476       0.22668910
40
Lattice="5.506941411143198 -6.496744002633733e-44 0.0 6.39930252054435e-44 5.483646911603359 0.0 0.0 0.0 15.546905525143476" Properties=species:S:1:pos:R:3:spacegroup_kinds:I:1:forces:R:3 spacegroup="P 1" unit_cell=conventional occupancy="_JSON {\"0\": {\"In\": 1}, \"1\": {\"In\": 1}, \"2\": {\"In\": 1}, \"3\": {\"In\": 1}, \"4\": {\"In\": 1}, \"5\": {\"In\": 1}, \"6\": {\"In\": 1}, \"7\": {\"In\": 1}, \"8\": {\"In\": 1}, \"9\": {\"In\": 1}, \"10\": {\"In\": 1}, \"11\": {\"In\": 1}, \"12\": {\"In\": 1}, \"13\": {\"In\": 1}, \"14\": {\"In\": 1}, \"15\": {\"In\": 1}, \"16\": {\"O\": 1}, \"17\": {\"O\": 1}, \"18\": {\"O\": 1}, \"19\": {\"O\": 1}, \"20\": {\"O\": 1}, \"21\": {\"O\": 1}, \"22\": {\"O\": 1}, \"23\": {\"O\": 1}, \"24\": {\"O\": 1}, \"25\": {\"O\": 1}, \"26\": {\"O\": 1}, \"27\": {\"O\": 1}, \"28\": {\"O\": 1}, \"29\": {\"O\": 1}, \"30\": {\"O\": 1}, \"31\": {\"O\": 1}, \"32\": {\"O\": 1}, \"33\": {\"O\": 1}, \"34\": {\"O\": 1}, \"35\": {\"O\": 1}, \"36\": {\"O\": 1}, \"37\": {\"O\": 1}, \"38\": {\"O\": 1}, \"39\": {\"O\": 1}}" n_minim_iter=2 energy=-45149.73637878426 stress="0.00033913608873892964 1.460220260547762e-13 -2.1211175897205203e-12 1.460220260547762e-13 -0.001384532150052645 6.759828908552314e-13 -2.1211175897205203e-12 6.759828908552314e-13 -0.001216373461762519" free_energy=-45149.73637878426 pbc="T T T"
In       2.81118404       4.31107477       8.84980716        0       0.05738662      -0.20922320      -0.07810380
In       0.05771334       3.91439559       6.69709837        1       0.05738662       0.20922320       0.07810380
In       2.69575737       1.56925132      14.47055113        2      -0.05738662      -0.20922320       0.07810380
In       5.44922807       1.17257214       1.07635440        3      -0.05738662       0.20922320      -0.07810380
In       2.69575737       1.17257214       6.69709837        4      -0.05738662       0.20922320       0.07810380
In       5.44922807       1.56925132       8.84980716        5      -0.05738662      -0.20922320      -0.07810380
In       2.81118404       3.91439559       1.07635440        6       0.05738662       0.20922320      -0.07810380
In       0.05771334       4.31107477      14.47055113        7       0.05738662      -0.20922320       0.07810380
In       2.81851589       4.08252027      12.69099039        8       0.06789717       0.07781475      -0.11989781
In       5.57198660       4.14295010       2.85591514        9       0.06789717      -0.07781475       0.11989781
In       2.68842552       1.34069681      10.62936790       10      -0.06789717       0.07781475       0.11989781
In      -0.06504519       1.40112664       4.91753763       11      -0.06789717      -0.07781475      -0.11989781
In       2.68842552       1.40112664       2.85591514       12      -0.06789717      -0.07781475       0.11989781
In      -0.06504519       1.34069681      12.69099039       13      -0.06789717       0.07781475      -0.11989781
In       2.81851589       4.14295010       4.91753763       14       0.06789717      -0.07781475      -0.11989781
In       5.57198660       4.08252027      10.62936790       15       0.06789717       0.07781475       0.11989781
O        4.80118923       4.76261137      12.44252226       16       0.10143197       0.03415712       0.15760825
O        2.04771852       3.46285900       3.10438326       17       0.10143197      -0.03415712      -0.15760825
O        0.70575218       2.02078791      10.87783603       18      -0.10143197       0.03415712      -0.15760825
O        3.45922289       0.72103555       4.66906950       19      -0.10143197      -0.03415712       0.15760825
O        0.70575218       0.72103555       3.10438326       20      -0.10143197      -0.03415712      -0.15760825
O        3.45922289       2.02078791      12.44252226       21      -0.10143197       0.03415712       0.15760825
O        4.80118923       3.46285900       4.66906950       22       0.10143197      -0.03415712       0.15760825
O        2.04771852       4.76261137      10.87783603       23       0.10143197       0.03415712      -0.15760825
O        3.93102212       2.84131421       9.78586799       24       0.16958253      -0.03793362       0.16960543
O        1.17755142       5.38415615       5.76103754       25       0.16958253       0.03793362      -0.16960543
O        1.57591929       0.09949076      13.53449030       26      -0.16958253      -0.03793362      -0.16960543
O        4.32938999       2.64233270       2.01241522       27      -0.16958253       0.03793362       0.16960543
O        1.57591929       2.64233270       5.76103754       28      -0.16958253       0.03793362      -0.16960543
O        4.32938999       0.09949076       9.78586799       29      -0.16958253      -0.03793362       0.16960543
O        3.93102212       5.38415615       2.01241522       30       0.16958253       0.03793362       0.16960543
O        1.17755142       2.84131421      13.53449030       31       0.16958253      -0.03793362      -0.16960543
O        3.59452557       3.56319878      14.70373683       32      -0.01418556      -0.04623522      -0.22773362
O        0.84105486       4.66227158       0.84316869       33      -0.01418556       0.04623523       0.22773362
O        1.91241584       0.82137533       8.61662146       34       0.01418556      -0.04623523       0.22773362
O        4.66588655       1.92044813       6.93028407       35       0.01418556       0.04623523      -0.22773362
O        1.91241584       1.92044813       0.84316869       36       0.01418556       0.04623523       0.22773362
O        4.66588655       0.82137533      14.70373683       37       0.01418556      -0.04623522      -0.22773362
O        3.59452557       4.66227158       6.93028407       38      -0.01418556       0.04623523      -0.22773362
O        0.84105486       3.56319878       8.61662146       39      -0.01418556      -0.04623523       0.22773362
40
Lattice="5.490256067730224 -5.678483742103887e-44 0.0 -1.8450768404805702e-44 5.4366005162914695 0.0 0.0 0.0 15.72910008704259" Properties=species:S:1:pos:R:3:spacegroup_kinds:I:1:forces:R:3 spacegroup="P 1" unit_cell=conventional occupancy="_JSON {\"0\": {\"In\": 1}, \"1\": {\"In\": 1}, \"2\": {\"In\": 1}, \"3\": {\"In\": 1}, \"4\": {\"In\": 1}, \"5\": {\"In\": 1}, \"6\": {\"In\": 1}, \"7\": {\"In\": 1}, \"8\": {\"In\": 1}, \"9\": {\"In\": 1}, \"10\": {\"In\": 1}, \"11\": {\"In\": 1}, \"12\": {\"In\": 1}, \"13\": {\"In\": 1}, \"14\": {\"In\": 1}, \"15\": {\"In\": 1}, \"16\": {\"O\": 1}, \"17\": {\"O\": 1}, \"18\": {\"O\": 1}, \"19\": {\"O\": 1}, \"20\": {\"O\": 1}, \"21\": {\"O\": 1}, \"22\": {\"O\": 1}, \"23\": {\"O\": 1}, \"24\": {\"O\": 1}, \"25\": {\"O\": 1}, \"26\": {\"O\": 1}, \"27\": {\"O\": 1}, \"28\": {\"O\": 1}, \"29\": {\"O\": 1}, \"30\": {\"O\": 1}, \"31\": {\"O\": 1}, \"32\": {\"O\": 1}, \"33\": {\"O\": 1}, \"34\": {\"O\": 1}, \"35\": {\"O\": 1}, \"36\": {\"O\": 1}, \"37\": {\"O\": 1}, \"38\": {\"O\": 1}, \"39\": {\"O\": 1}}" n_minim_iter=3 energy=-45149.803398635726 stress="0.009060587072507583 3.0664507233704257e-12 -1.356971792750359e-12 3.0664507233704257e-12 0.006751271615259859 5.992671836867468e-12 -1.356971792750359e-12 5.992671836867468e-12 0.02224168091609158" free_energy=-45149.803398635726 pbc="T T T"
In       2.80742135       4.25858061       8.94791128        0       0.22431283      -0.12178368      -0.14172663
In       0.06229331       3.89632016       6.78118881        1       0.22431283       0.12178368       0.14172663
In       2.68283472       1.54028035      14.64573885        2      -0.22431283      -0.12178368       0.14172663
In       5.42796275       1.17801991       1.08336124        3      -0.22431283       0.12178368      -0.14172663
In       2.68283472       1.17801991       6.78118881        4      -0.22431283       0.12178368       0.14172663
In       5.42796275       1.54028035       8.94791128        5      -0.22431283      -0.12178368      -0.14172663
In       2.80742135       3.89632016       1.08336124        6       0.22431283       0.12178368      -0.14172663
In       0.06229331       4.25858061      14.64573885        7       0.22431283      -0.12178368       0.14172663
In       2.81465665       4.05265900      12.83066056        8      -0.03440253       0.20209893      -0.09104879
In       5.55978469       4.10224177       2.89843952        9      -0.03440253      -0.20209893       0.09104879
In       2.67559941       1.33435874      10.76298957       10       0.03440253       0.20209893       0.09104879
In      -0.06952862       1.38394152       4.96611052       11       0.03440253      -0.20209893      -0.09104879
In       2.67559941       1.38394152       2.89843952       12       0.03440253      -0.20209893       0.09104879
In      -0.06952862       1.33435874      12.83066056       13       0.03440253       0.20209893      -0.09104879
In       2.81465665       4.10224177       4.96611052       14      -0.03440253      -0.20209893      -0.09104879
In       5.55978469       4.05265900      10.76298957       15      -0.03440253       0.20209893       0.09104879
O        4.79543665       4.72474970      12.60075710       16       0.18163305      -0.08457211       0.01603182
O        2.05030862       3.43015108       3.12834298       17       0.18163305       0.08457211      -0.01603182
O        0.69481942       2.00644944      10.99289303       18      -0.18163305      -0.08457211      -0.01603182
O        3.43994745       0.71185082       4.73620706       19      -0.18163305       0.08457211       0.01603182
O        0.69481942       0.71185082       3.12834298       20      -0.18163305       0.08457211      -0.01603182
O        3.43994745       2.00644944      12.60075710       21      -0.18163305      -0.08457211       0.01603182
O        4.79543665       3.43015108       4.73620706       22       0.18163305       0.08457211       0.01603182
O        2.05030862       4.72474970      10.99289303       23       0.18163305      -0.08457211      -0.01603182
O        3.93220663       2.81432342       9.91369782       24       0.08310593      -0.07630384       0.08824347
O        1.18707860       5.34057735       5.81540227       25       0.08310593       0.07630384      -0.08824347
O        1.55804944       0.09602316      13.67995232       26      -0.08310593      -0.07630384      -0.08824347
O        4.30317747       2.62227709       2.04914777       27      -0.08310593       0.07630384       0.08824347
O        1.55804944       2.62227709       5.81540227       28      -0.08310593       0.07630384      -0.08824347
O        4.30317747       0.09602316       9.91369782       29      -0.08310593      -0.07630384       0.08824347
O        3.93220663       5.34057735       2.04914777       30       0.08310593       0.07630384       0.08824347
O        1.18707860       2.81432342      13.67995232       31       0.08310593      -0.07630384      -0.08824347
O        3.58184940       3.52877812      14.85823113       32      -0.14270905      -0.03295085       0.05527268
O        0.83672136       4.62612266       0.87086895       33      -0.14270905       0.03295085      -0.05527268
O        1.90840667       0.81047786       8.73541900       34       0.14270905      -0.03295085      -0.05527268
O        4.65353470       1.90782240       6.99368109       35       0.14270905       0.03295085       0.05527268
O        1.90840667       1.90782240       0.87086895       36       0.14270905       0.03295085      -0.05527268
O        4.65353470       0.81047786      14.85823113       37       0.14270905      -0.03295085       0.05527268
O        3.58184940       4.62612266       6.99368109       38      -0.14270905       0.03295085       0.05527268
O        0.83672136       3.52877812       8.73541900       39      -0.14270905      -0.03295085      -0.05527268
40
Lattice="5.527957132572105 2.027088519532021e-43 0.0 -8.344301984594728e-44 5.469096070861516 0.0 0.0 0.0 15.529006783529264" Properties=species:S:1:pos:R:3:spacegroup_kinds:I:1:forces:R:3 spacegroup="P 1" unit_cell=conventional occupancy="_JSON {\"0\": {\"In\": 1}, \"1\": {\"In\": 1}, \"2\": {\"In\": 1}, \"3\": {\"In\": 1}, \"4\": {\"In\": 1}, \"5\": {\"In\": 1}, \"6\": {\"In\": 1}, \"7\": {\"In\": 1}, \"8\": {\"In\": 1}, \"9\": {\"In\": 1}, \"10\": {\"In\": 1}, \"11\": {\"In\": 1}, \"12\": {\"In\": 1}, \"13\": {\"In\": 1}, \"14\": {\"In\": 1}, \"15\": {\"In\": 1}, \"16\": {\"O\": 1}, \"17\": {\"O\": 1}, \"18\": {\"O\": 1}, \"19\": {\"O\": 1}, \"20\": {\"O\": 1}, \"21\": {\"O\": 1}, \"22\": {\"O\": 1}, \"23\": {\"O\": 1}, \"24\": {\"O\": 1}, \"25\": {\"O\": 1}, \"26\": {\"O\": 1}, \"27\": {\"O\": 1}, \"28\": {\"O\": 1}, \"29\": {\"O\": 1}, \"30\": {\"O\": 1}, \"31\": {\"O\": 1}, \"32\": {\"O\": 1}, \"33\": {\"O\": 1}, \"34\": {\"O\": 1}, \"35\": {\"O\": 1}, \"36\": {\"O\": 1}, \"37\": {\"O\": 1}, \"38\": {\"O\": 1}, \"39\": {\"O\": 1}}" n_minim_iter=4 energy=-45149.914942468786 stress="0.029270327505110712 -1.6649326921658092e-12 4.0987248937235843e-13 -1.6649326921658092e-12 0.02779617323061964 2.9844562906030944e-12 4.0987248937235843e-13 2.9844562906030944e-12 0.030174469307420605" free_energy=-45149.914942468786 pbc="T T T"
In       2.83440424       4.26280103       8.82591969        0       0.17126878       0.00715276      -0.14690355
In       0.07042567       3.94084308       6.70308709        1       0.17126878      -0.00715276       0.14690355
In       2.69355289       1.52825299      14.46759049        2      -0.17126878       0.00715276       0.14690355
In       5.45753146       1.20629504       1.06141630        3      -0.17126878      -0.00715276      -0.14690355
In       2.69355289       1.20629504       6.70308709        4      -0.17126878      -0.00715276       0.14690355
In       5.45753146       1.52825299       8.82591969        5      -0.17126878       0.00715276      -0.14690355
In       2.83440424       3.94084308       1.06141630        6       0.17126878      -0.00715276      -0.14690355
In       0.07042567       4.26280103      14.46759049        7       0.17126878       0.00715276       0.14690355
In       2.83995361       4.08494292      12.65512336        8       0.08862857       0.11300219      -0.11579753
In       5.60393217       4.11870119       2.87388343        9       0.08862857      -0.11300219       0.11579753
In       2.68800353       1.35039488      10.63838682       10      -0.08862857       0.11300219       0.11579754
In      -0.07597504       1.38415315       4.89061997       11      -0.08862857      -0.11300219      -0.11579753
In       2.68800353       1.38415315       2.87388343       12      -0.08862857      -0.11300219       0.11579753
In      -0.07597504       1.35039488      12.65512336       13      -0.08862857       0.11300219      -0.11579753
In       2.83995361       4.11870119       4.89061997       14       0.08862857      -0.11300219      -0.11579753
In       5.60393217       4.08494292      10.63838682       15       0.08862857       0.11300219       0.11579754
O        4.84114634       4.75643455      12.45666631       16      -0.02329681      -0.13525804      -0.04792549
O        2.07716777       3.44720956       3.07234048       17      -0.02329681       0.13525804       0.04792549
O        0.68681079       2.02188651      10.83684387       18       0.02329681      -0.13525804       0.04792549
O        3.45078936       0.71266152       4.69216291       19       0.02329681       0.13525804      -0.04792549
O        0.68681079       0.71266152       3.07234048       20       0.02329681       0.13525804       0.04792549
O        3.45078936       2.02188651      12.45666631       21       0.02329681      -0.13525804      -0.04792549
O        4.84114634       3.44720956       4.69216291       22      -0.02329681       0.13525804      -0.04792549
O        2.07716777       4.75643455      10.83684387       23      -0.02329681      -0.13525804       0.04792549
O        3.97704849       2.82722430       9.80518949       24      -0.11767847      -0.02413482       0.05175239
O        1.21306992       5.37641981       5.72381730       25      -0.11767847       0.02413482      -0.05175239
O        1.55090865       0.09267626      13.48832069       26       0.11767847      -0.02413482      -0.05175239
O        4.31488721       2.64187177       2.04068610       27       0.11767847       0.02413482       0.05175239
O        1.55090865       2.64187177       5.72381730       28       0.11767847       0.02413482      -0.05175239
O        4.31488721       0.09267626       9.80518949       29       0.11767847      -0.02413482       0.05175239
O        3.97704849       5.37641981       2.04068610       30      -0.11767847       0.02413482       0.05175239
O        1.21306992       2.82722430      13.48832069       31      -0.11767847      -0.02413482      -0.05175239
O        3.60318090       3.54457907      14.64646163       32      -0.01532415      -0.06162258       0.07957736
O        0.83920233       4.65906504       0.88254515       33      -0.01532415       0.06162258      -0.07957736
O        1.92477623       0.81003104       8.64704855       34       0.01532415      -0.06162258      -0.07957736
O        4.68875480       1.92451700       6.88195824       35       0.01532415       0.06162258       0.07957736
O        1.92477623       1.92451700       0.88254515       36       0.01532415       0.06162258      -0.07957736
O        4.68875480       0.81003104      14.64646163       37       0.01532415      -0.06162258       0.07957736
O        3.60318090       4.65906504       6.88195824       38      -0.01532415       0.06162258       0.07957736
O        0.83920233       3.54457907       8.64704855       39      -0.01532415      -0.06162258      -0.07957736
40
Lattice="5.5397108121196 2.682943284917189e-43 0.0 4.716168097257074e-44 5.483218442745499 0.0 0.0 0.0 15.456147611398087" Properties=species:S:1:pos:R:3:spacegroup_kinds:I:1:forces:R:3 spacegroup="P 1" unit_cell=conventional occupancy="_JSON {\"0\": {\"In\": 1}, \"1\": {\"In\": 1}, \"2\": {\"In\": 1}, \"3\": {\"In\": 1}, \"4\": {\"In\": 1}, \"5\": {\"In\": 1}, \"6\": {\"In\": 1}, \"7\": {\"In\": 1}, \"8\": {\"In\": 1}, \"9\": {\"In\": 1}, \"10\": {\"In\": 1}, \"11\": {\"In\": 1}, \"12\": {\"In\": 1}, \"13\": {\"In\": 1}, \"14\": {\"In\": 1}, \"15\": {\"In\": 1}, \"16\": {\"O\": 1}, \"17\": {\"O\": 1}, \"18\": {\"O\": 1}, \"19\": {\"O\": 1}, \"20\": {\"O\": 1}, \"21\": {\"O\": 1}, \"22\": {\"O\": 1}, \"23\": {\"O\": 1}, \"24\": {\"O\": 1}, \"25\": {\"O\": 1}, \"26\": {\"O\": 1}, \"27\": {\"O\": 1}, \"28\": {\"O\": 1}, \"29\": {\"O\": 1}, \"30\": {\"O\": 1}, \"31\": {\"O\": 1}, \"32\": {\"O\": 1}, \"33\": {\"O\": 1}, \"34\": {\"O\": 1}, \"35\": {\"O\": 1}, \"36\": {\"O\": 1}, \"37\": {\"O\": 1}, \"38\": {\"O\": 1}, \"39\": {\"O\": 1}}" n_minim_iter=5 energy=-45149.94101668404 stress="0.03551841260721331 -5.30898735887509e-12 4.68403735034813e-12 -5.30898735887509e-12 0.037427976598950925 -4.382117988613519e-13 4.68403735034813e-12 -4.382117988613519e-13 0.031535587761949924" free_energy=-45149.94101668404 pbc="T T T"
In       2.85055413       4.26539868       8.77528063        0       0.07858353       0.04764298      -0.03154370
In       0.08069872       3.95942899       6.68086698        1       0.07858353      -0.04764298       0.03154371
In       2.68915668       1.52378946      14.40894079        2      -0.07858353       0.04764298       0.03154370
In       5.45901209       1.21781976       1.04720682        3      -0.07858353      -0.04764298      -0.03154371
In       2.68915668       1.21781976       6.68086698        4      -0.07858353      -0.04764298       0.03154370
In       5.45901209       1.52378946       8.77528063        5      -0.07858353       0.04764298      -0.03154370
In       2.85055413       3.95942899       1.04720682        6       0.07858353      -0.04764298      -0.03154371
In       0.08069872       4.26539868      14.40894079        7       0.07858353       0.04764298       0.03154370
In       2.85273981       4.10274690      12.58569408        8       0.12738565      -0.02127858      -0.02869353
In       5.62259521       4.12208076       2.87045353        9       0.12738565       0.02127858       0.02869353
In       2.68697100       1.36113768      10.59852734       10      -0.12738565      -0.02127858       0.02869353
In      -0.08288440       1.38047154       4.85762027       11      -0.12738565       0.02127858      -0.02869353
In       2.68697100       1.38047154       2.87045353       12      -0.12738565       0.02127858       0.02869353
In      -0.08288440       1.36113768      12.58569408       13      -0.12738565      -0.02127858      -0.02869353
In       2.85273981       4.12208076       4.85762027       14       0.12738565       0.02127858      -0.02869353
In       5.62259521       4.10274690      10.59852734       15       0.12738565      -0.02127858       0.02869353
O        4.85538952       4.76485456      12.40326978       16      -0.05563484      -0.11046766       0.02500903
O        2.08553411       3.45997311       3.05287783       17      -0.05563484       0.11046766      -0.02500903
O        0.68432129       2.02324533      10.78095164       18       0.05563484      -0.11046766      -0.02500903
O        3.45417670       0.71836389       4.67519598       19       0.05563484       0.11046766       0.02500903
O        0.68432129       0.71836389       3.05287783       20       0.05563484       0.11046766      -0.02500903
O        3.45417670       2.02324533      12.40326978       21       0.05563484      -0.11046766       0.02500903
O        4.85538952       3.45997311       4.67519598       22      -0.05563484       0.11046766       0.02500903
O        2.08553411       4.76485456      10.78095164       23      -0.05563484      -0.11046766      -0.02500903
O        3.98762576       2.83221245       9.76882788       24      -0.15143338      -0.00345583       0.01887964
O        1.21777035       5.39261521       5.68731974       25      -0.15143338       0.00345583      -0.01887964
O        1.55208506       0.09060323      13.41539354       26       0.15143338      -0.00345583      -0.01887964
O        4.32194046       2.65100599       2.04075407       27       0.15143338       0.00345583       0.01887964
O        1.55208506       2.65100599       5.68731974       28       0.15143338       0.00345583      -0.01887964
O        4.32194046       0.09060323       9.76882788       29       0.15143338      -0.00345583       0.01887964
O        3.98762576       5.39261521       2.04075407       30      -0.15143338       0.00345583       0.01887964
O        1.21777035       2.83221245      13.41539354       31      -0.15143338      -0.00345583      -0.01887964
O        3.60926113       3.54866475      14.57079492       32       0.08042455      -0.03201540       0.03652839
O        0.83940572       4.67616291       0.88535269       33       0.08042455       0.03201540      -0.03652839
O        1.93044968       0.80705553       8.61342649       34      -0.08042455      -0.03201540      -0.03652839
O        4.70030509       1.93455369       6.84272112       35      -0.08042455       0.03201540       0.03652839
O        1.93044968       1.93455369       0.88535269       36      -0.08042455       0.03201540      -0.03652839
O        4.70030509       0.80705553      14.57079492       37      -0.08042455      -0.03201540       0.03652839
O        3.60926113       4.67616291       6.84272112       38       0.08042455       0.03201540       0.03652839
O        0.83940572       3.54866475       8.61342649       39       0.08042455      -0.03201540      -0.03652839
40