40
Lattice="5.392117844165641 6.279922392460352e-42 7.661198995755531e-82 -6.123291952676348e-42 5.281901510579331 6.251802106468228e-40 -9.801532784793496e-84 1.7315383182475107e-39 15.110737588787403" Properties=species:S:1:pos:R:3:spacegroup_kinds:I:1:forces:R:3 spacegroup="P 1" unit_cell=conventional occupancy="_JSON {\"0\": {\"In\": 1}, \"1\": {\"In\": 1}, \"2\": {\"In\": 1}, \"3\": {\"In\": 1}, \"4\": {\"In\": 1}, \"5\": {\"In\": 1}, \"6\": {\"In\": 1}, \"7\": {\"In\": 1}, \"8\": {\"In\": 1}, \"9\": {\"In\": 1}, \"10\": {\"In\": 1}, \"11\": {\"In\": 1}, \"12\": {\"In\": 1}, \"13\": {\"In\": 1}, \"14\": {\"In\": 1}, \"15\": {\"In\": 1}, \"16\": {\"O\": 1}, \"17\": {\"O\": 1}, \"18\": {\"O\": 1}, \"19\": {\"O\": 1}, \"20\": {\"O\": 1}, \"21\": {\"O\": 1}, \"22\": {\"O\": 1}, \"23\": {\"O\": 1}, \"24\": {\"O\": 1}, \"25\": {\"O\": 1}, \"26\": {\"O\": 1}, \"27\": {\"O\": 1}, \"28\": {\"O\": 1}, \"29\": {\"O\": 1}, \"30\": {\"O\": 1}, \"31\": {\"O\": 1}, \"32\": {\"O\": 1}, \"33\": {\"O\": 1}, \"34\": {\"O\": 1}, \"35\": {\"O\": 1}, \"36\": {\"O\": 1}, \"37\": {\"O\": 1}, \"38\": {\"O\": 1}, \"39\": {\"O\": 1}}" n_minim_iter=13 energy=-45152.03489667814 stress="0.07639059260476531 -7.492213452427854e-12 3.873116896695136e-12 -7.492213452427854e-12 0.07645388750238451 1.4744357128778485e-12 3.873116896695136e-12 1.4744357128778485e-12 0.0763958065934272" free_energy=-45152.03489667814 pbc="T T T"
In       2.85167025       4.01063037       8.51272258        0      -0.00120582       0.00019140      -0.00337686
In       0.15561133       3.91222190       6.59801501        1      -0.00120582      -0.00019140       0.00337687
In       2.54044760       1.36967961      14.15338381        2       0.00120582       0.00019140       0.00337686
In       5.23650652       1.27127114       0.95735378        3       0.00120582      -0.00019140      -0.00337686
In       2.54044760       1.27127114       6.59801501        4       0.00120582      -0.00019140       0.00337686
In       5.23650652       1.36967961       8.51272258        5       0.00120582       0.00019140      -0.00337686
In       2.85167025       3.91222190       0.95735378        6      -0.00120582      -0.00019140      -0.00337686
In       0.15561133       4.01063037      14.15338381        7      -0.00120582       0.00019140       0.00337686
In       2.82774754       3.88903240      12.31351099        8      -0.00151931       0.00353218       0.00110184
In       5.52380646       4.03381987       2.79722660        9      -0.00151931      -0.00353218      -0.00110184
In       2.56437030       1.24808164      10.35259539       10       0.00151931       0.00353218      -0.00110184
In      -0.13168862       1.39286911       4.75814220       11       0.00151931      -0.00353218       0.00110184
In       2.56437030       1.39286911       2.79722660       12       0.00151931      -0.00353218      -0.00110184
In      -0.13168862       1.24808164      12.31351099       13       0.00151931       0.00353218       0.00110184
In       2.82774754       4.03381987       4.75814220       14      -0.00151931      -0.00353218       0.00110184
In       5.52380646       3.88903240      10.35259539       15      -0.00151931       0.00353218      -0.00110184
O        4.79697392       4.44382736      12.15798909       16       0.00160838       0.00206855       0.00588295
O        2.10091500       3.47902490       2.95274850       17       0.00160838      -0.00206855      -0.00588295
O        0.59514392       1.80287661      10.50811729       18      -0.00160838       0.00206855      -0.00588295
O        3.29120284       0.83807415       4.60262029       19      -0.00160838      -0.00206855       0.00588295
O        0.59514392       0.83807415       2.95274850       20      -0.00160838      -0.00206855      -0.00588295
O        3.29120284       1.80287661      12.15798909       21      -0.00160838       0.00206855       0.00588295
O        4.79697392       3.47902490       4.60262029       22       0.00160838      -0.00206855       0.00588295
O        2.10091500       4.44382736      10.50811729       23       0.00160838       0.00206855      -0.00588295
O        3.88990028       2.61926041       9.52465743       24      -0.00449742      -0.00296075       0.00010085
O        1.19384135       5.30359186       5.58608016       25      -0.00449742       0.00296075      -0.00010085
O        1.50221757      -0.02169035      13.14144895       26       0.00449742      -0.00296075      -0.00010085
O        4.19827649       2.66264110       1.96928864       27       0.00449742       0.00296075       0.00010085
O        1.50221757       2.66264110       5.58608016       28       0.00449742       0.00296075      -0.00010085
O        4.19827649      -0.02169035       9.52465743       29       0.00449742      -0.00296075       0.00010085
O        3.88990028       5.30359186       1.96928864       30      -0.00449742       0.00296075       0.00010085
O        1.19384135       2.61926041      13.14144895       31      -0.00449742      -0.00296075      -0.00010085
O        3.59080198       3.28129801      14.22498010       32       0.00103328       0.00123973       0.00421150
O        0.89474306       4.64155425       0.88575749       33       0.00103328      -0.00123973      -0.00421150
O        1.80131587       0.64034726       8.44112628       34      -0.00103328       0.00123973      -0.00421150
O        4.49737479       2.00060350       6.66961131       35      -0.00103328      -0.00123973       0.00421150
O        1.80131587       2.00060350       0.88575749       36      -0.00103328      -0.00123973      -0.00421150
O        4.49737479       0.64034726      14.22498010       37      -0.00103328       0.00123973       0.00421150
O        3.59080198       4.64155425       6.66961131       38       0.00103328      -0.00123973       0.00421150
O        0.89474306       3.28129801       8.44112628       39       0.00103328       0.00123973      -0.00421150
