40
Lattice="5.446042599912143 6.342725782687966e-42 7.737816068399535e-82 -6.184528934592437e-42 5.334724029868901 6.314324275180017e-40 -9.89955461529433e-84 1.7488548501883396e-39 15.261854989625839" Properties=species:S:1:pos:R:3:spacegroup_kinds:I:1:forces:R:3 spacegroup="P 1" unit_cell=conventional occupancy="_JSON {\"0\": {\"In\": 1}, \"1\": {\"In\": 1}, \"2\": {\"In\": 1}, \"3\": {\"In\": 1}, \"4\": {\"In\": 1}, \"5\": {\"In\": 1}, \"6\": {\"In\": 1}, \"7\": {\"In\": 1}, \"8\": {\"In\": 1}, \"9\": {\"In\": 1}, \"10\": {\"In\": 1}, \"11\": {\"In\": 1}, \"12\": {\"In\": 1}, \"13\": {\"In\": 1}, \"14\": {\"In\": 1}, \"15\": {\"In\": 1}, \"16\": {\"O\": 1}, \"17\": {\"O\": 1}, \"18\": {\"O\": 1}, \"19\": {\"O\": 1}, \"20\": {\"O\": 1}, \"21\": {\"O\": 1}, \"22\": {\"O\": 1}, \"23\": {\"O\": 1}, \"24\": {\"O\": 1}, \"25\": {\"O\": 1}, \"26\": {\"O\": 1}, \"27\": {\"O\": 1}, \"28\": {\"O\": 1}, \"29\": {\"O\": 1}, \"30\": {\"O\": 1}, \"31\": {\"O\": 1}, \"32\": {\"O\": 1}, \"33\": {\"O\": 1}, \"34\": {\"O\": 1}, \"35\": {\"O\": 1}, \"36\": {\"O\": 1}, \"37\": {\"O\": 1}, \"38\": {\"O\": 1}, \"39\": {\"O\": 1}}" n_minim_iter=13 energy=-45152.03489667814 stress="0.07639059260476531 -7.492213452427854e-12 3.873116896695136e-12 -7.492213452427854e-12 0.07645388750238451 1.4744357128778485e-12 3.873116896695136e-12 1.4744357128778485e-12 0.0763958065934272" free_energy=-45152.03489667814 pbc="T T T"
In       2.88018884       4.05073933       8.59785545        0      -0.00120582       0.00019140      -0.00337686
In       0.15716754       3.95134671       6.66399954        1      -0.00120582      -0.00019140       0.00337687
In       2.56585376       1.38337732      14.29492703        2       0.00120582       0.00019140       0.00337686
In       5.28887506       1.28398470       0.96692795        3       0.00120582      -0.00019140      -0.00337686
In       2.56585376       1.28398470       6.66399954        4       0.00120582      -0.00019140       0.00337686
In       5.28887506       1.38337732       8.59785545        5       0.00120582       0.00019140      -0.00337686
In       2.88018884       3.95134671       0.96692795        6      -0.00120582      -0.00019140      -0.00337686
In       0.15716754       4.05073933      14.29492703        7      -0.00120582       0.00019140       0.00337686
In       2.85602689       3.92792530      12.43665427        8      -0.00151931       0.00353218       0.00110184
In       5.57904819       4.07416074       2.82520072        9      -0.00151931      -0.00353218      -0.00110184
In       2.59001571       1.26056329      10.45612821       10       0.00151931       0.00353218      -0.00110184
In      -0.13300559       1.40679873       4.80572678       11       0.00151931      -0.00353218       0.00110184
In       2.59001571       1.40679873       2.82520072       12       0.00151931      -0.00353218      -0.00110184
In      -0.13300559       1.26056329      12.43665427       13       0.00151931       0.00353218       0.00110184
In       2.85602689       4.07416074       4.80572678       14      -0.00151931      -0.00353218       0.00110184
In       5.57904819       3.92792530      10.45612821       15      -0.00151931       0.00353218      -0.00110184
O        4.84494684       4.48826858      12.27957705       16       0.00160838       0.00206855       0.00588295
O        2.12192554       3.51381746       2.98227794       17       0.00160838      -0.00206855      -0.00588295
O        0.60109576       1.82090657      10.61320544       18      -0.00160838       0.00206855      -0.00588295
O        3.32411706       0.84645545       4.64864955       19      -0.00160838      -0.00206855       0.00588295
O        0.60109576       0.84645545       2.98227794       20      -0.00160838      -0.00206855      -0.00588295
O        3.32411706       1.82090657      12.27957705       21      -0.00160838       0.00206855       0.00588295
O        4.84494684       3.51381746       4.64864955       22       0.00160838      -0.00206855       0.00588295
O        2.12192554       4.48826858      10.61320544       23       0.00160838       0.00206855      -0.00588295
O        3.92880186       2.64545475       9.61991032       24      -0.00449742      -0.00296075       0.00010085
O        1.20578056       5.35663130       5.64194467       25      -0.00449742       0.00296075      -0.00010085
O        1.51724074      -0.02190727      13.27287216       26       0.00449742      -0.00296075      -0.00010085
O        4.24026204       2.68926928       1.98898283       27       0.00449742       0.00296075       0.00010085
O        1.51724074       2.68926928       5.64194467       28       0.00449742       0.00296075      -0.00010085
O        4.24026204      -0.02190727       9.61991032       29       0.00449742      -0.00296075       0.00010085
O        3.92880186       5.35663130       1.98898283       30      -0.00449742       0.00296075       0.00010085
O        1.20578056       2.64545475      13.27287216       31      -0.00449742      -0.00296075      -0.00010085
O        3.62671238       3.31411317      14.36723934       32       0.00103328       0.00123973       0.00421150
O        0.90369108       4.68797287       0.89461565       33       0.00103328      -0.00123973      -0.00421150
O        1.81933022       0.64675116       8.52554315       34      -0.00103328       0.00123973      -0.00421150
O        4.54235152       2.02061086       6.73631184       35      -0.00103328      -0.00123973       0.00421150
O        1.81933022       2.02061086       0.89461565       36      -0.00103328      -0.00123973      -0.00421150
O        4.54235152       0.64675116      14.36723934       37      -0.00103328       0.00123973       0.00421150
O        3.62671238       4.68797287       6.73631184       38       0.00103328      -0.00123973       0.00421150
O        0.90369108       3.31411317       8.52554315       39       0.00103328       0.00123973      -0.00421150
