40
Lattice="5.519372029648899 -1.116874598893165e-41 0.0 -5.6359303146312766e-42 5.666036975451958 0.0 0.0 0.0 15.846593654930874" Properties=species:S:1:pos:R:3:spacegroup_kinds:I:1:forces:R:3 spacegroup="P 1" unit_cell=conventional occupancy="_JSON {\"0\": {\"In\": 1}, \"1\": {\"In\": 1}, \"2\": {\"In\": 1}, \"3\": {\"In\": 1}, \"4\": {\"In\": 1}, \"5\": {\"In\": 1}, \"6\": {\"In\": 1}, \"7\": {\"In\": 1}, \"8\": {\"In\": 1}, \"9\": {\"In\": 1}, \"10\": {\"In\": 1}, \"11\": {\"In\": 1}, \"12\": {\"In\": 1}, \"13\": {\"In\": 1}, \"14\": {\"In\": 1}, \"15\": {\"In\": 1}, \"16\": {\"O\": 1}, \"17\": {\"O\": 1}, \"18\": {\"O\": 1}, \"19\": {\"O\": 1}, \"20\": {\"O\": 1}, \"21\": {\"O\": 1}, \"22\": {\"O\": 1}, \"23\": {\"O\": 1}, \"24\": {\"O\": 1}, \"25\": {\"O\": 1}, \"26\": {\"O\": 1}, \"27\": {\"O\": 1}, \"28\": {\"O\": 1}, \"29\": {\"O\": 1}, \"30\": {\"O\": 1}, \"31\": {\"O\": 1}, \"32\": {\"O\": 1}, \"33\": {\"O\": 1}, \"34\": {\"O\": 1}, \"35\": {\"O\": 1}, \"36\": {\"O\": 1}, \"37\": {\"O\": 1}, \"38\": {\"O\": 1}, \"39\": {\"O\": 1}}" n_minim_iter=15 energy=-45150.21055467146 stress="-0.011720354456761386 4.415516011367425e-13 -3.448672070548697e-13 4.415516011367425e-13 -0.011735396186572008 2.4756028687003945e-12 -3.448672070548697e-13 2.4756028687003945e-12 -0.011651357988156164" free_energy=-45150.21055467146 pbc="T T T"
In       2.76272446       4.50895594       9.03720398        0      -0.00216481      -0.00354802       0.00234251
In       0.00303844       3.99009953       6.80938967        1      -0.00216481       0.00354802      -0.00234251
In       2.75664757       1.67593745      14.73268650        2       0.00216481      -0.00354802      -0.00234251
In       5.51633359       1.15708104       1.11390716        3       0.00216481       0.00354802       0.00234251
In       2.75664757       1.15708104       6.80938967        4       0.00216481       0.00354802      -0.00234251
In       5.51633359       1.67593745       9.03720398        5       0.00216481      -0.00354802       0.00234251
In       2.76272446       3.99009953       1.11390716        6      -0.00216481       0.00354802       0.00234251
In       0.00303844       4.50895594      14.73268650        7      -0.00216481      -0.00354802      -0.00234251
In       2.74939470       4.22311739      12.95082471        8      -0.00110425      -0.00113318      -0.00321977
In       5.50908071       4.27593807       2.89576894        9      -0.00110425       0.00113318       0.00321977
In       2.76997733       1.39009890      10.81906577       10       0.00110425      -0.00113318       0.00321977
In       0.01029131       1.44291959       5.02752789       11       0.00110425       0.00113318      -0.00321977
In       2.76997733       1.44291959       2.89576894       12       0.00110425       0.00113318       0.00321977
In       0.01029131       1.39009890      12.95082471       13       0.00110425      -0.00113318      -0.00321977
In       2.74939470       4.27593807       5.02752789       14      -0.00110425       0.00113318      -0.00321977
In       5.50908071       4.22311739      10.81906577       15      -0.00110425      -0.00113318       0.00321977
O        4.74443142       4.98273123      12.66213098       16       0.00455861       0.00206123      -0.00030362
O        1.98474541       3.51632423       3.18446267       17       0.00455861      -0.00206123       0.00030362
O        0.77494061       2.14971274      11.10775950       18      -0.00455861       0.00206123       0.00030362
O        3.53462662       0.68330574       4.73883415       19      -0.00455861      -0.00206123      -0.00030362
O        0.77494061       0.68330574       3.18446267       20      -0.00455861      -0.00206123       0.00030362
O        3.53462662       2.14971274      12.66213098       21      -0.00455861       0.00206123      -0.00030362
O        4.74443142       3.51632423       4.73883415       22       0.00455861      -0.00206123      -0.00030362
O        1.98474541       4.98273123      11.10775950       23       0.00455861       0.00206123       0.00030362
O        3.90735024       2.97334410       9.90999074       24       0.00125575      -0.00134112      -0.00521296
O        1.14766422       5.52571136       5.93660291       25       0.00125575       0.00134112       0.00521296
O        1.61202179       0.14032561      13.85989974       26      -0.00125575      -0.00134112       0.00521296
O        4.37170780       2.69269288       1.98669391       27      -0.00125575       0.00134112      -0.00521296
O        1.61202179       2.69269288       5.93660291       28      -0.00125575       0.00134112       0.00521296
O        4.37170780       0.14032561       9.90999074       29      -0.00125575      -0.00134112      -0.00521296
O        3.90735024       5.52571136       1.98669391       30       0.00125575       0.00134112      -0.00521296
O        1.14766422       2.97334410      13.85989974       31       0.00125575      -0.00134112       0.00521296
O        3.56730164       3.72677878      15.00837502       32       0.00485354       0.00148925       0.00166103
O        0.80761563       4.77227668       0.83821864       33       0.00485354      -0.00148925      -0.00166103
O        1.95207039       0.89376029       8.76151547       34      -0.00485354       0.00148925      -0.00166103
O        4.71175640       1.93925820       7.08507819       35      -0.00485354      -0.00148925       0.00166103
O        1.95207039       1.93925820       0.83821864       36      -0.00485354      -0.00148925      -0.00166103
O        4.71175640       0.89376029      15.00837502       37      -0.00485354       0.00148925       0.00166103
O        3.56730164       4.77227668       7.08507819       38       0.00485354      -0.00148925       0.00166103
O        0.80761563       3.72677878       8.76151547       39       0.00485354       0.00148925      -0.00166103
