40
Lattice="6.132214773682817 2.697897204029195e-41 -1.5279344049410377e-78 -2.7077595455370486e-41 6.154631490008123 -3.4707974889665784e-37 1.8319427108885506e-80 9.743146000370997e-37 17.27714549069949" Properties=species:S:1:pos:R:3:spacegroup_kinds:I:1:forces:R:3 spacegroup="P 1" unit_cell=conventional occupancy="_JSON {\"0\": {\"In\": 1}, \"1\": {\"In\": 1}, \"2\": {\"In\": 1}, \"3\": {\"In\": 1}, \"4\": {\"In\": 1}, \"5\": {\"In\": 1}, \"6\": {\"In\": 1}, \"7\": {\"In\": 1}, \"8\": {\"In\": 1}, \"9\": {\"In\": 1}, \"10\": {\"In\": 1}, \"11\": {\"In\": 1}, \"12\": {\"In\": 1}, \"13\": {\"In\": 1}, \"14\": {\"In\": 1}, \"15\": {\"In\": 1}, \"16\": {\"O\": 1}, \"17\": {\"O\": 1}, \"18\": {\"O\": 1}, \"19\": {\"O\": 1}, \"20\": {\"O\": 1}, \"21\": {\"O\": 1}, \"22\": {\"O\": 1}, \"23\": {\"O\": 1}, \"24\": {\"O\": 1}, \"25\": {\"O\": 1}, \"26\": {\"O\": 1}, \"27\": {\"O\": 1}, \"28\": {\"O\": 1}, \"29\": {\"O\": 1}, \"30\": {\"O\": 1}, \"31\": {\"O\": 1}, \"32\": {\"O\": 1}, \"33\": {\"O\": 1}, \"34\": {\"O\": 1}, \"35\": {\"O\": 1}, \"36\": {\"O\": 1}, \"37\": {\"O\": 1}, \"38\": {\"O\": 1}, \"39\": {\"O\": 1}}" n_minim_iter=1 energy=-45150.11670390592 stress="0.013386469069439952 6.017964752798628e-13 1.3784608304304371e-12 6.017964752798628e-13 0.006003033192837853 -2.537434021090301e-12 1.3784608304304371e-12 -2.537434021090301e-12 0.009924656439295649" free_energy=-45150.11670390592 pbc="T T T"
In       2.72453150       5.13135632      10.18991704        0       0.14803096      -0.01983926       0.04718152
In      -0.34157589       4.10059091       7.08722846        1       0.14803096       0.01983926      -0.04718152
In       3.40768328       2.05404058      15.72580120        2      -0.14803096      -0.01983926      -0.04718152
In       6.47379066       1.02327517       1.55134429        3      -0.14803096       0.01983926       0.04718152
In       3.40768328       1.02327517       7.08722846        4      -0.14803096       0.01983926      -0.04718152
In       6.47379066       2.05404058      10.18991704        5      -0.14803096      -0.01983926       0.04718152
In       2.72453150       4.10059091       1.55134429        6       0.14803096       0.01983926       0.04718152
In      -0.34157589       5.13135632      15.72580120        7       0.14803096      -0.01983926      -0.04718152
In       2.77695419       4.92248015      14.05119215        8       0.06500988       0.02268537       0.12050330
In       5.84306158       4.30946709       3.22595334        9       0.06500988      -0.02268537      -0.12050329
In       3.35526058       1.84516440      11.86452609       10      -0.06500988       0.02268537      -0.12050330
In       0.28915319       1.23215134       5.41261940       11      -0.06500988      -0.02268537       0.12050330
In       3.35526058       1.23215134       3.22595334       12      -0.06500988      -0.02268537      -0.12050329
In       0.28915319       1.84516440      14.05119215       13      -0.06500988       0.02268537       0.12050330
In       2.77695419       4.30946709       5.41261940       14       0.06500988      -0.02268537       0.12050330
In       5.84306158       4.92248015      11.86452609       15       0.06500988       0.02268537      -0.12050330
O        4.91073333       5.72008336      13.72032409       16      -0.07547498      -0.05908465       0.07734214
O        1.84462594       3.51186387       3.55682140       17      -0.07547498       0.05908465      -0.07734214
O        1.22148145       2.64276762      12.19539415       18       0.07547498      -0.05908465      -0.07734214
O        4.28758883       0.43454813       5.08175134       19       0.07547498       0.05908465       0.07734214
O        1.22148145       0.43454813       3.55682140       20       0.07547498       0.05908465      -0.07734214
O        4.28758883       2.64276762      13.72032409       21       0.07547498      -0.05908465       0.07734214
O        4.91073333       3.51186387       5.08175134       22      -0.07547498       0.05908465       0.07734214
O        1.84462594       5.72008336      12.19539415       23      -0.07547498      -0.05908465      -0.07734214
O        4.20753854       3.69166512      10.93012970       24       0.08771434       0.02191151       0.06921401
O        1.14143115       5.54028211       6.34701579       25       0.08771434      -0.02191151      -0.06921401
O        1.92467624       0.61434938      14.98558854       26      -0.08771434       0.02191151      -0.06921401
O        4.99078362       2.46296637       2.29155695       27      -0.08771434      -0.02191151       0.06921401
O        1.92467624       2.46296637       6.34701579       28      -0.08771434      -0.02191151      -0.06921401
O        4.99078362       0.61434938      10.93012970       29      -0.08771434       0.02191151       0.06921401
O        4.20753854       5.54028211       2.29155695       30       0.08771434      -0.02191151       0.06921401
O        1.14143115       3.69166512      14.98558854       31       0.08771434       0.02191151      -0.06921401
O        3.82205852       4.19138275      16.17881811       32       0.04065747      -0.03611863      -0.00720387
O        0.75595113       5.04056449       1.09832738       33       0.04065747       0.03611863       0.00720387
O        2.31015625       1.11406700       9.73690012       34      -0.04065747      -0.03611863       0.00720387
O        5.37626364       1.96324874       7.54024537       35      -0.04065747       0.03611863      -0.00720387
O        2.31015625       1.96324874       1.09832738       36      -0.04065747       0.03611863       0.00720387
O        5.37626364       1.11406700      16.17881811       37      -0.04065747      -0.03611863      -0.00720387
O        3.82205852       5.04056449       7.54024537       38       0.04065747       0.03611863      -0.00720387
O        0.75595113       4.19138275       9.73690012       39       0.04065747      -0.03611863       0.00720387
40
Lattice="6.114180695479515 2.7118332816389963e-41 -1.9017911958557035e-78 -2.697641335460033e-41 6.173555718905595 -4.3610989766919555e-37 1.8324684653469896e-80 7.3437213618435486e-37 17.274988241380914" Properties=species:S:1:pos:R:3:spacegroup_kinds:I:1:forces:R:3 spacegroup="P 1" unit_cell=conventional occupancy="_JSON {\"0\": {\"In\": 1}, \"1\": {\"In\": 1}, \"2\": {\"In\": 1}, \"3\": {\"In\": 1}, \"4\": {\"In\": 1}, \"5\": {\"In\": 1}, \"6\": {\"In\": 1}, \"7\": {\"In\": 1}, \"8\": {\"In\": 1}, \"9\": {\"In\": 1}, \"10\": {\"In\": 1}, \"11\": {\"In\": 1}, \"12\": {\"In\": 1}, \"13\": {\"In\": 1}, \"14\": {\"In\": 1}, \"15\": {\"In\": 1}, \"16\": {\"O\": 1}, \"17\": {\"O\": 1}, \"18\": {\"O\": 1}, \"19\": {\"O\": 1}, \"20\": {\"O\": 1}, \"21\": {\"O\": 1}, \"22\": {\"O\": 1}, \"23\": {\"O\": 1}, \"24\": {\"O\": 1}, \"25\": {\"O\": 1}, \"26\": {\"O\": 1}, \"27\": {\"O\": 1}, \"28\": {\"O\": 1}, \"29\": {\"O\": 1}, \"30\": {\"O\": 1}, \"31\": {\"O\": 1}, \"32\": {\"O\": 1}, \"33\": {\"O\": 1}, \"34\": {\"O\": 1}, \"35\": {\"O\": 1}, \"36\": {\"O\": 1}, \"37\": {\"O\": 1}, \"38\": {\"O\": 1}, \"39\": {\"O\": 1}}" n_minim_iter=2 energy=-45150.125417526055 stress="0.008648879138083742 7.175865056037922e-13 2.1409004405945648e-13 7.175865056037922e-13 0.008242450196794496 -1.4296903055642133e-12 2.1409004405945648e-13 -1.4296903055642133e-12 0.009911276985176486" free_energy=-45150.125417526055 pbc="T T T"
In       2.71670340       5.14710933      10.18870365        0       0.15049931       0.01134203       0.03437492
In      -0.34038695       4.11322425       7.08628459        1       0.15049931      -0.01134203      -0.03437492
In       3.39747730       2.06033147      15.72377871        2      -0.15049931       0.01134203      -0.03437492
In       6.45456764       1.02644639       1.55120953        3      -0.15049931      -0.01134203       0.03437492
In       3.39747730       1.02644639       7.08628459        4      -0.15049931      -0.01134203      -0.03437492
In       6.45456764       2.06033147      10.18870365        5      -0.15049931       0.01134203       0.03437492
In       2.71670340       4.11322425       1.55120953        6       0.15049931      -0.01134203       0.03437492
In      -0.34038695       5.14710933      15.72377871        7       0.15049931       0.01134203      -0.03437492
In       2.76886850       4.93764419      14.04958823        8       0.05889565       0.01540040       0.13335302
In       5.82595885       4.32268938       3.22540001        9       0.05889565      -0.01540040      -0.13335302
In       3.34531219       1.85086633      11.86289413       10      -0.05889565       0.01540040      -0.13335302
In       0.28822184       1.23591153       5.41209411       11      -0.05889565      -0.01540040       0.13335302
In       3.34531219       1.23591153       3.22540001       12      -0.05889565      -0.01540040      -0.13335302
In       0.28822184       1.85086633      14.04958823       13      -0.05889565       0.01540040       0.13335302
In       2.76886850       4.32268938       5.41209411       14       0.05889565      -0.01540040       0.13335302
In       5.82595885       4.93764419      11.86289413       15       0.05889565       0.01540040      -0.13335302
O        4.89619745       5.73759740      13.71870757       16      -0.07685321      -0.07024316       0.07618399
O        1.83910710       3.52273618       3.55628067       17      -0.07685321       0.07024316      -0.07618399
O        1.21798324       2.65081954      12.19377479       18       0.07685321      -0.07024316      -0.07618399
O        4.27507359       0.43595832       5.08121345       19       0.07685321       0.07024316       0.07618399
O        1.21798324       0.43595832       3.55628067       20       0.07685321       0.07024316      -0.07618399
O        4.27507359       2.65081954      13.71870757       21       0.07685321      -0.07024316       0.07618399
O        4.89619745       3.52273618       5.08121345       22      -0.07685321       0.07024316       0.07618399
O        1.83910710       5.73759740      12.19377479       23      -0.07685321      -0.07024316      -0.07618399
O        4.19527396       3.70304370      10.92885141       24       0.08448577       0.01876148       0.08642646
O        1.13818361       5.55728988       6.34613683       25       0.08448577      -0.01876148      -0.08642646
O        1.91890673       0.61626584      14.98363095       26      -0.08448577       0.01876148      -0.08642646
O        4.97599708       2.47051202       2.29135729       27      -0.08448577      -0.01876148       0.08642646
O        1.91890673       2.47051202       6.34613683       28      -0.08448577      -0.01876148      -0.08642646
O        4.97599708       0.61626584      10.92885141       29      -0.08448577       0.01876148       0.08642646
O        4.19527396       5.55728988       2.29135729       30       0.08448577      -0.01876148       0.08642646
O        1.13818361       3.70304370      14.98363095       31       0.08448577       0.01876148      -0.08642646
O        3.81086897       4.20422512      16.17678900       32       0.03371223      -0.05345891      -0.00483252
O        0.75377863       5.05610846       1.09819924       33       0.03371223       0.05345891       0.00483252
O        2.30331172       1.11744726       9.73569336       34      -0.03371223      -0.05345891       0.00483252
O        5.36040207       1.96933060       7.53929488       35      -0.03371223       0.05345891      -0.00483252
O        2.30331172       1.96933060       1.09819924       36      -0.03371223       0.05345891       0.00483252
O        5.36040207       1.11744726      16.17678900       37      -0.03371223      -0.05345891      -0.00483252
O        3.81086897       5.05610846       7.53929488       38       0.03371223       0.05345891      -0.00483252
O        0.75377863       4.20422512       9.73569336       39       0.03371223      -0.05345891       0.00483252
40
Lattice="6.11665552809414 2.706586840487e-41 -4.2580179504352025e-78 -2.699627970696099e-41 6.180130250987977 -9.713766723085273e-37 1.7837899477497884e-80 -7.517946092853391e-37 17.24962868269541" Properties=species:S:1:pos:R:3:spacegroup_kinds:I:1:forces:R:3 spacegroup="P 1" unit_cell=conventional occupancy="_JSON {\"0\": {\"In\": 1}, \"1\": {\"In\": 1}, \"2\": {\"In\": 1}, \"3\": {\"In\": 1}, \"4\": {\"In\": 1}, \"5\": {\"In\": 1}, \"6\": {\"In\": 1}, \"7\": {\"In\": 1}, \"8\": {\"In\": 1}, \"9\": {\"In\": 1}, \"10\": {\"In\": 1}, \"11\": {\"In\": 1}, \"12\": {\"In\": 1}, \"13\": {\"In\": 1}, \"14\": {\"In\": 1}, \"15\": {\"In\": 1}, \"16\": {\"O\": 1}, \"17\": {\"O\": 1}, \"18\": {\"O\": 1}, \"19\": {\"O\": 1}, \"20\": {\"O\": 1}, \"21\": {\"O\": 1}, \"22\": {\"O\": 1}, \"23\": {\"O\": 1}, \"24\": {\"O\": 1}, \"25\": {\"O\": 1}, \"26\": {\"O\": 1}, \"27\": {\"O\": 1}, \"28\": {\"O\": 1}, \"29\": {\"O\": 1}, \"30\": {\"O\": 1}, \"31\": {\"O\": 1}, \"32\": {\"O\": 1}, \"33\": {\"O\": 1}, \"34\": {\"O\": 1}, \"35\": {\"O\": 1}, \"36\": {\"O\": 1}, \"37\": {\"O\": 1}, \"38\": {\"O\": 1}, \"39\": {\"O\": 1}}" n_minim_iter=3 energy=-45150.1269599335 stress="0.00963499181327429 -2.116813372040488e-12 -1.5302177562589253e-12 -2.116813372040488e-12 0.009261563820557265 3.5402048190025708e-12 -1.5302177562589253e-12 3.5402048190025708e-12 0.007868575290309843" free_energy=-45150.1269599335 pbc="T T T"
In       2.71814943       5.15261686      10.17382626        0       0.15847909       0.01664479       0.05059974
In      -0.34017834       4.11757851       7.07580243        1       0.15847909      -0.01664479      -0.05059974
In       3.39850610       2.06255174      15.70061677        2      -0.15847909       0.01664479      -0.05059974
In       6.45683387       1.02751339       1.54901192        3      -0.15847909      -0.01664479       0.05059974
In       3.39850610       1.02751339       7.07580243        4      -0.15847909      -0.01664479      -0.05059974
In       6.45683387       2.06255174      10.17382626        5      -0.15847909       0.01664479       0.05059974
In       2.71814943       4.11757851       1.54901192        6       0.15847909      -0.01664479       0.05059974
In      -0.34017834       5.15261686      15.70061677        7       0.15847909       0.01664479      -0.05059974
In       2.77012488       4.94293852      14.02927151        8       0.07095072       0.01680321       0.12743320
In       5.82845265       4.32725686       3.22035717        9       0.07095072      -0.01680321      -0.12743320
In       3.34653065       1.85287339      11.84517151       10      -0.07095072       0.01680321      -0.12743320
In       0.28820288       1.23719174       5.40445717       11      -0.07095072      -0.01680321       0.12743320
In       3.34653065       1.23719174       3.22035717       12      -0.07095072      -0.01680321      -0.12743320
In       0.28820288       1.85287339      14.02927151       13      -0.07095072       0.01680321       0.12743320
In       2.77012488       4.32725686       5.40445717       14       0.07095072      -0.01680321       0.12743320
In       5.82845265       4.94293852      11.84517151       15       0.07095072       0.01680321      -0.12743320
O        4.89800240       5.74354402      13.69874463       16      -0.08589170      -0.07120126       0.06469990
O        1.83967463       3.52665135       3.55088405       17      -0.08589170       0.07120126      -0.06469990
O        1.21865313       2.65347890      12.17569839       18       0.08589170      -0.07120126      -0.06469990
O        4.27698090       0.43658623       5.07393029       19       0.08589170       0.07120126       0.06469990
O        1.21865313       0.43658623       3.55088405       20       0.08589170       0.07120126      -0.06469990
O        4.27698090       2.65347890      13.69874463       21       0.08589170      -0.07120126       0.06469990
O        4.89800240       3.52665135       5.07393029       22      -0.08589170       0.07120126       0.06469990
O        1.83967463       5.74354402      12.17569839       23      -0.08589170      -0.07120126      -0.06469990
O        4.19716658       3.70703102      10.91300745       24       0.08351530       0.01620989       0.07970996
O        1.13883882       5.56316435       6.33662124       25       0.08351530      -0.01620989      -0.07970996
O        1.91948895       0.61696590      14.96143558       26      -0.08351530       0.01620989      -0.07970996
O        4.97781671       2.47309923       2.28819310       27      -0.08351530      -0.01620989       0.07970996
O        1.91948895       2.47309923       6.33662124       28      -0.08351530      -0.01620989      -0.07970996
O        4.97781671       0.61696590      10.91300745       29      -0.08351530       0.01620989       0.07970996
O        4.19716658       5.56316435       2.28819310       30       0.08351530      -0.01620989       0.07970996
O        1.13883882       3.70703102      14.96143558       31       0.08351530       0.01620989      -0.07970996
O        3.81248916       4.20857797      16.15303040       32       0.03678654      -0.05598988      -0.01693801
O        0.75416140       5.06161740       1.09659828       33       0.03678654       0.05598988       0.01693801
O        2.30416636       1.11851285       9.72141262       34      -0.03678654      -0.05598988       0.01693801
O        5.36249413       1.97155228       7.52821606       35      -0.03678654       0.05598988      -0.01693801
O        2.30416636       1.97155228       1.09659828       36      -0.03678654       0.05598988       0.01693801
O        5.36249413       1.11851285      16.15303040       37      -0.03678654      -0.05598988      -0.01693801
O        3.81248916       5.06161740       7.52821606       38       0.03678654       0.05598988      -0.01693801
O        0.75416140       4.20857797       9.72141262       39       0.03678654      -0.05598988       0.01693801
40
Lattice="6.102622893113604 2.6321586863603823e-41 -5.569170016487581e-78 -2.5657745578496106e-41 6.198547411967336 -1.2487917499272043e-36 1.772682026171016e-80 -1.5364434306651015e-36 17.237923173848678" Properties=species:S:1:pos:R:3:spacegroup_kinds:I:1:forces:R:3 spacegroup="P 1" unit_cell=conventional occupancy="_JSON {\"0\": {\"In\": 1}, \"1\": {\"In\": 1}, \"2\": {\"In\": 1}, \"3\": {\"In\": 1}, \"4\": {\"In\": 1}, \"5\": {\"In\": 1}, \"6\": {\"In\": 1}, \"7\": {\"In\": 1}, \"8\": {\"In\": 1}, \"9\": {\"In\": 1}, \"10\": {\"In\": 1}, \"11\": {\"In\": 1}, \"12\": {\"In\": 1}, \"13\": {\"In\": 1}, \"14\": {\"In\": 1}, \"15\": {\"In\": 1}, \"16\": {\"O\": 1}, \"17\": {\"O\": 1}, \"18\": {\"O\": 1}, \"19\": {\"O\": 1}, \"20\": {\"O\": 1}, \"21\": {\"O\": 1}, \"22\": {\"O\": 1}, \"23\": {\"O\": 1}, \"24\": {\"O\": 1}, \"25\": {\"O\": 1}, \"26\": {\"O\": 1}, \"27\": {\"O\": 1}, \"28\": {\"O\": 1}, \"29\": {\"O\": 1}, \"30\": {\"O\": 1}, \"31\": {\"O\": 1}, \"32\": {\"O\": 1}, \"33\": {\"O\": 1}, \"34\": {\"O\": 1}, \"35\": {\"O\": 1}, \"36\": {\"O\": 1}, \"37\": {\"O\": 1}, \"38\": {\"O\": 1}, \"39\": {\"O\": 1}}" n_minim_iter=4 energy=-45150.155777748696 stress="0.0021134119011114796 7.505457365631628e-13 2.6237330874391295e-12 7.505457365631628e-13 0.00635651521694244 -1.1580735452619393e-12 2.6237330874391295e-12 -1.1580735452619393e-12 0.00451154102350171" free_energy=-45150.155777748696 pbc="T T T"
In       2.72516132       5.16930600      10.17052355        0      -0.06601698      -0.02581276      -0.00222148
In      -0.32615013       4.12851512       7.06739963        1      -0.06601698       0.02581276       0.00222148
In       3.37746158       2.07003230      15.68636122        2       0.06601698      -0.02581276       0.00222148
In       6.42877302       1.02924141       1.55156196        3       0.06601698       0.02581276      -0.00222148
In       3.37746158       1.02924141       7.06739963        4       0.06601698       0.02581276       0.00222149
In       6.42877302       2.07003230      10.17052355        5       0.06601698      -0.02581276      -0.00222148
In       2.72516132       4.12851512       1.55156196        6      -0.06601698       0.02581276      -0.00222148
In      -0.32615013       5.16930600      15.68636122        7      -0.06601698      -0.02581276       0.00222148
In       2.76930551       4.95904712      14.03103177        8       0.05573631       0.02987041       0.04002049
In       5.82061695       4.33877400       3.20689140        9       0.05573631      -0.02987041      -0.04002050
In       3.33331739       1.85977341      11.82585299       10      -0.05573631       0.02987041      -0.04002050
In       0.28200594       1.23950029       5.41207018       11      -0.05573631      -0.02987041       0.04002050
In       3.33331739       1.23950029       3.20689140       12      -0.05573631      -0.02987041      -0.04002050
In       0.28200594       1.85977341      14.03103177       13      -0.05573631       0.02987041       0.04002049
In       2.76930551       4.33877400       5.41207018       14       0.05573631      -0.02987041       0.04002050
In       5.82061695       4.95904712      11.82585299       15       0.05573631       0.02987041      -0.04002049
O        4.87979042       5.75444327      13.69551862       16       0.01479211      -0.09356766      -0.03424241
O        1.82847897       3.54337785       3.54240455       17       0.01479211       0.09356766       0.03424241
O        1.22283248       2.65516956      12.16136614       18      -0.01479211      -0.09356766       0.03424241
O        4.27414392       0.44410414       5.07655704       19      -0.01479211       0.09356766      -0.03424241
O        1.22283248       0.44410414       3.54240455       20      -0.01479211       0.09356766       0.03424241
O        4.27414392       2.65516956      13.69551862       21      -0.01479211      -0.09356766      -0.03424241
O        4.87979042       3.54337785       5.07655704       22       0.01479211       0.09356766      -0.03424241
O        1.82847897       5.75444327      12.16136614       23       0.01479211      -0.09356766       0.03424241
O        4.19472740       3.71959519      10.91282330       24       0.01304208       0.02482330       0.05247722
O        1.14341595       5.57822593       6.32509987       25       0.01304208      -0.02482330      -0.05247722
O        1.90789549       0.62032148      14.94406146       26      -0.01304208       0.02482330      -0.05247722
O        4.95920694       2.47895222       2.29386172       27      -0.01304208      -0.02482330       0.05247722
O        1.90789549       2.47895222       6.32509987       28      -0.01304208      -0.02482330      -0.05247722
O        4.95920694       0.62032148      10.91282330       29      -0.01304208       0.02482330       0.05247722
O        4.19472740       5.57822593       2.29386172       30       0.01304208      -0.02482330       0.05247722
O        1.14341595       3.71959519      14.94406146       31       0.01304208       0.02482330      -0.05247722
O        3.80673716       4.21627815      16.14114841       32       0.06593491      -0.01230680      -0.00442986
O        0.75542572       5.08154297       1.09677476       33       0.06593491       0.01230680       0.00442986
O        2.29588573       1.11700445       9.71573635       34      -0.06593491      -0.01230680       0.00442986
O        5.34719717       1.98226926       7.52218682       35      -0.06593491       0.01230680      -0.00442986
O        2.29588573       1.98226926       1.09677476       36      -0.06593491       0.01230680       0.00442986
O        5.34719717       1.11700445      16.14114841       37      -0.06593491      -0.01230680      -0.00442986
O        3.80673716       5.08154297       7.52218682       38       0.06593491       0.01230680      -0.00442986
O        0.75542572       4.21627815       9.71573635       39       0.06593491      -0.01230680       0.00442986
40
Lattice="6.111283661273115 2.648235971063857e-41 -6.089154880625551e-78 -2.5842465224816077e-41 6.189064558520793 -1.3749021274400889e-36 1.773191929322568e-80 -1.887198185777374e-36 17.239868421135263" Properties=species:S:1:pos:R:3:spacegroup_kinds:I:1:forces:R:3 spacegroup="P 1" unit_cell=conventional occupancy="_JSON {\"0\": {\"In\": 1}, \"1\": {\"In\": 1}, \"2\": {\"In\": 1}, \"3\": {\"In\": 1}, \"4\": {\"In\": 1}, \"5\": {\"In\": 1}, \"6\": {\"In\": 1}, \"7\": {\"In\": 1}, \"8\": {\"In\": 1}, \"9\": {\"In\": 1}, \"10\": {\"In\": 1}, \"11\": {\"In\": 1}, \"12\": {\"In\": 1}, \"13\": {\"In\": 1}, \"14\": {\"In\": 1}, \"15\": {\"In\": 1}, \"16\": {\"O\": 1}, \"17\": {\"O\": 1}, \"18\": {\"O\": 1}, \"19\": {\"O\": 1}, \"20\": {\"O\": 1}, \"21\": {\"O\": 1}, \"22\": {\"O\": 1}, \"23\": {\"O\": 1}, \"24\": {\"O\": 1}, \"25\": {\"O\": 1}, \"26\": {\"O\": 1}, \"27\": {\"O\": 1}, \"28\": {\"O\": 1}, \"29\": {\"O\": 1}, \"30\": {\"O\": 1}, \"31\": {\"O\": 1}, \"32\": {\"O\": 1}, \"33\": {\"O\": 1}, \"34\": {\"O\": 1}, \"35\": {\"O\": 1}, \"36\": {\"O\": 1}, \"37\": {\"O\": 1}, \"38\": {\"O\": 1}, \"39\": {\"O\": 1}}" n_minim_iter=5 energy=-45150.16184003556 stress="0.0036266047121718352 7.999577666694719e-13 -1.1810109593222663e-12 7.999577666694719e-13 0.0042373717612958686 -4.751091131018741e-12 -1.1810109593222663e-12 -4.751091131018741e-12 0.004016051372968323" free_energy=-45150.16184003556 pbc="T T T"
In       2.72987290       5.16094709      10.17220469        0      -0.07256902      -0.04285119      -0.00117833
In      -0.32576893       4.12264974       7.06766373        1      -0.07256902       0.04285119       0.00117833
In       3.38141076       2.06641481      15.68759794        2       0.07256902      -0.04285119       0.00117833
In       6.43705259       1.02811746       1.55227048        3       0.07256902       0.04285119      -0.00117833
In       3.38141076       1.02811746       7.06766373        4       0.07256902       0.04285119       0.00117833
In       6.43705259       2.06641481      10.17220469        5       0.07256902      -0.04285119      -0.00117833
In       2.72987290       4.12264974       1.55227048        6      -0.07256902       0.04285119      -0.00117833
In      -0.32576893       5.16094709      15.68759794        7      -0.07256902      -0.04285119       0.00117833
In       2.77481489       4.95213765      14.03463808        8       0.04514228       0.03206093       0.01934948
In       5.83045672       4.33145919       3.20523034        9       0.04514228      -0.03206093      -0.01934948
In       3.33646877       1.85760537      11.82516455       10      -0.04514228       0.03206093      -0.01934948
In       0.28082694       1.23692691       5.41470387       11      -0.04514228      -0.03206093       0.01934948
In       3.33646877       1.23692691       3.20523034       12      -0.04514228      -0.03206093      -0.01934948
In       0.28082694       1.85760537      14.03463808       13      -0.04514228       0.03206093       0.01934948
In       2.77481489       4.33145919       5.41470387       14       0.04514227      -0.03206093       0.01934948
In       5.83045672       4.95213765      11.82516455       15       0.04514228       0.03206093      -0.01934948
O        4.88599636       5.74352430      13.69743425       16       0.03308067      -0.08552424      -0.03572048
O        1.83035453       3.54007254       3.54243417       17       0.03308066       0.08552424       0.03572048
O        1.22528730       2.64899202      12.16236838       18      -0.03308067      -0.08552424       0.03572048
O        4.28092913       0.44554026       5.07750004       19      -0.03308067       0.08552424      -0.03572048
O        1.22528730       0.44554026       3.54243417       20      -0.03308066       0.08552424       0.03572048
O        4.28092913       2.64899202      13.69743425       21      -0.03308066      -0.08552424      -0.03572048
O        4.88599636       3.54007254       5.07750004       22       0.03308067       0.08552424      -0.03572048
O        1.83035453       5.74352430      12.16236838       23       0.03308066      -0.08552424       0.03572048
O        4.20187920       3.71450151      10.91566757       24       0.01261114       0.02732255       0.03205809
O        1.14623737       5.56909533       6.32420085       25       0.01261114      -0.02732255      -0.03205809
O        1.90940446       0.61996923      14.94413506       26      -0.01261114       0.02732255      -0.03205809
O        4.96504629       2.47456305       2.29573336       27      -0.01261114      -0.02732255       0.03205809
O        1.90940446       2.47456305       6.32420085       28      -0.01261114      -0.02732255      -0.03205809
O        4.96504629       0.61996923      10.91566757       29      -0.01261114       0.02732255       0.03205809
O        4.20187920       5.56909533       2.29573336       30       0.01261114      -0.02732255       0.03205809
O        1.14623737       3.71450151      14.94413506       31       0.01261114       0.02732255      -0.03205809
O        3.81353774       4.20913213      16.14278316       32       0.05902171      -0.00220321       0.00418214
O        0.75789591       5.07446471       1.09708526       33       0.05902171       0.00220321      -0.00418214
O        2.29774592       1.11459985       9.71701947       34      -0.05902171      -0.00220321      -0.00418214
O        5.35338775       1.97993243       7.52284895       35      -0.05902171       0.00220321       0.00418214
O        2.29774592       1.97993243       1.09708526       36      -0.05902171       0.00220321      -0.00418214
O        5.35338775       1.11459985      16.14278316       37      -0.05902171      -0.00220321       0.00418214
O        3.81353774       5.07446471       7.52284895       38       0.05902171       0.00220321       0.00418214
O        0.75789591       4.20913213       9.71701947       39       0.05902171      -0.00220321      -0.00418214
40