10
Lattice="6.317388288913854 0.0772772427427889 0.05335885021624171 3.531093122892149 5.23896439409695 0.05335885021623773 3.5310931228921465 1.9060953154640015 4.8802044770560835" Properties=species:S:1:pos:R:3:spacegroup_kinds:I:1:forces:R:3 spacegroup="P 1" unit_cell=conventional occupancy="_JSON {\"0\": {\"In\": 1}, \"1\": {\"In\": 1}, \"2\": {\"In\": 1}, \"3\": {\"In\": 1}, \"4\": {\"O\": 1}, \"5\": {\"O\": 1}, \"6\": {\"O\": 1}, \"7\": {\"O\": 1}, \"8\": {\"O\": 1}, \"9\": {\"O\": 1}}" n_minim_iter=3 energy=-11285.969672346066 stress="0.10663642328574297 -0.00032887928064768697 -0.0002270865222355059 -0.00032887928064768697 0.10706815096362382 -0.00012258202821213831 -0.0002270865222355059 -0.00012258202821213831 0.10716103988048274" free_energy=-11285.969672346066 pbc="T T T"
In      11.37611150       6.14086123       4.24017838        0       0.00077193       0.00041669       0.00028772
In       8.69325032       4.69264422       3.24020489        1      -0.00077193      -0.00041669      -0.00028772
In       4.68632423       2.52969275       1.74671729        2       0.00077193       0.00041669       0.00028772
In       2.00346305       1.08147574       0.74674380        3      -0.00077193      -0.00041669      -0.00028772
O        6.50358778       2.52599123       0.28603526        4       0.00000000      -0.00315674       0.00457176
O        7.69917259       5.51957462       1.30008940        5       0.00263905      -0.00488891       0.00000000
O        8.83909610       2.42316933       2.72613750        6      -0.00263905       0.00173217       0.00457176
O        4.54047845       4.79916764       2.26078468        7       0.00263905      -0.00173217      -0.00457176
O        6.87598676       4.69634573       4.70088692        8      -0.00000000       0.00315674      -0.00457176
O        5.68040195       1.70276234       3.68683279        9      -0.00263905       0.00488891      -0.00000000
