10
Lattice="5.476266150021355 -0.09171471545320875 -0.06332772224781617 2.928272910699884 4.628511671732239 -0.06332772224780943 2.9282729106998784 1.5806910447361824 4.350694946426099" Properties=species:S:1:pos:R:3:spacegroup_kinds:I:1:forces:R:3 spacegroup="P 1" unit_cell=conventional occupancy="_JSON {\"0\": {\"In\": 1}, \"1\": {\"In\": 1}, \"2\": {\"In\": 1}, \"3\": {\"In\": 1}, \"4\": {\"O\": 1}, \"5\": {\"O\": 1}, \"6\": {\"O\": 1}, \"7\": {\"O\": 1}, \"8\": {\"O\": 1}, \"9\": {\"O\": 1}}" n_minim_iter=4 energy=-11285.84942872274 stress="-0.21113614081213125 -0.00025304168220914526 -0.00017472172393881926 -0.00025304168220914526 -0.2108039669597779 -9.431534302259433e-05 -0.00017472172393881926 -9.431534302259433e-05 -0.21073249767102803" free_energy=-11285.84942872274 pbc="T T T"
In       9.78320497       5.28100521       3.64645989        0       0.00215807       0.00116494       0.00080437
In       7.21601299       3.89522680       2.68959937        1      -0.00215807      -0.00116494      -0.00080437
In       4.11679899       2.22226121       1.53444014        2       0.00215807       0.00116494       0.00080437
In       1.54960701       0.83648280       0.57757962        3      -0.00215807      -0.00116494      -0.00080437
O        5.57133607       2.13873823       0.07541493        4       0.00000000      -0.00103106       0.00149324
O        6.48770235       4.81252955       0.99268216        5       0.00086197      -0.00159683      -0.00000000
O        7.58324271       1.91432468       2.25076241        6      -0.00086197       0.00056577       0.00149324
O        3.74956927       4.20316333       1.97327710        7       0.00086197      -0.00056577      -0.00149324
O        5.76147591       3.97874979       4.14862457        8      -0.00000000       0.00103106      -0.00149324
O        4.84510963       1.30495846       3.23135735        9      -0.00086197       0.00159683       0.00000000
