10
Lattice="5.422042131548288 -0.09080658931602947 -0.06270067391105183 2.8992782051734998 4.582681813300354 -0.06270067391105183 2.899278205173494 1.5650396103350943 4.307615929321573" Properties=species:S:1:pos:R:3:spacegroup_kinds:I:1:forces:R:3 spacegroup="P 1" unit_cell=conventional occupancy="_JSON {\"0\": {\"In\": 1}, \"1\": {\"In\": 1}, \"2\": {\"In\": 1}, \"3\": {\"In\": 1}, \"4\": {\"O\": 1}, \"5\": {\"O\": 1}, \"6\": {\"O\": 1}, \"7\": {\"O\": 1}, \"8\": {\"O\": 1}, \"9\": {\"O\": 1}}" n_minim_iter=1 energy=-11285.053135141869 stress="-0.26735665794621155 0.004066418183933904 0.0028078046152411698 0.004066418183933904 -0.2726947421202216 0.001515661873708412 0.0028078046152411698 0.001515661873708412 -0.27384326438063783" free_energy=-11285.053135141869 pbc="T T T"
In       9.68633519       5.22871459       3.61035395        0       0.05143805       0.02776642       0.01917232
In       7.14456263       3.85665767       2.66296792        1      -0.05143805      -0.02776642      -0.01917232
In       4.07603592       2.20025718       1.51924666        2       0.05143805       0.02776642       0.01917232
In       1.53426336       0.82820025       0.57186063        3      -0.05143805      -0.02776642      -0.01917232
O        5.51617071       2.11756121       0.07466820        4      -0.00000000       0.02228906      -0.03228025
O        6.42346345       4.76487762       0.98285297        5      -0.01863376       0.03451955       0.00000000
O        7.50815616       1.89536972       2.22847617        6       0.01863376      -0.01223049      -0.03228025
O        3.71244239       4.16154512       1.95373842        7      -0.01863376       0.01223049       0.03228025
O        5.70442784       3.93935364       4.10754638        8       0.00000000      -0.02228906       0.03228025
O        4.79713510       1.29203723       3.19936161        9       0.01863376      -0.03451955       0.00000000
10
Lattice="5.406269733331847 -0.1075722400198708 -0.07427712013159873 2.8766073781361845 4.578695688557535 -0.07427712013159869 2.876607378136179 1.552801825686094 4.307989994084986" Properties=species:S:1:pos:R:3:spacegroup_kinds:I:1:forces:R:3 spacegroup="P 1" unit_cell=conventional occupancy="_JSON {\"0\": {\"In\": 1}, \"1\": {\"In\": 1}, \"2\": {\"In\": 1}, \"3\": {\"In\": 1}, \"4\": {\"O\": 1}, \"5\": {\"O\": 1}, \"6\": {\"O\": 1}, \"7\": {\"O\": 1}, \"8\": {\"O\": 1}, \"9\": {\"O\": 1}}" n_minim_iter=2 energy=-11285.056392804057 stress="-0.26964777419220753 -0.00013173636876750378 -9.096211102084742e-05 -0.00013173636876750378 -0.2694748407172395 -4.9101636520334883e-05 -9.096211102084742e-05 -4.9101636520334883e-05 -0.2694376329944436" free_energy=-11285.056392804057 pbc="T T T"
In       9.63393363       5.20042807       3.59082250        0       0.12207266       0.06589521       0.04549972
In       7.10529311       3.83545986       2.64833113        1      -0.12207266      -0.06589521      -0.04549972
In       4.05419139       2.18846543       1.51110462        2       0.12207266       0.06589521       0.04549972
In       1.52555087       0.82349722       0.56861326        3      -0.12207266      -0.06589521      -0.04549972
O        5.49300599       2.10286047       0.06039090        4       0.00000000      -0.01479198       0.02142257
O        6.38735028       4.74924255       0.96558182        5       0.01236617      -0.02290867      -0.00000000
O        7.47526909       1.87156187       2.21438590        6      -0.01236617       0.00811668       0.02142257
O        3.68421541       4.15236341       1.94504986        7       0.01236617      -0.00811668      -0.02142257
O        5.66647850       3.92106482       4.09904485        8       0.00000000       0.01479198      -0.02142257
O        4.77213422       1.27468273       3.19385394        9      -0.01236617       0.02290867       0.00000000
10
Lattice="5.396298028592018 -0.11821731009676935 -0.08162739143546965 2.862236354249191 4.576200476181848 -0.08162739143546964 2.8622363542491858 1.5450443012153192 4.308260894667547" Properties=species:S:1:pos:R:3:spacegroup_kinds:I:1:forces:R:3 spacegroup="P 1" unit_cell=conventional occupancy="_JSON {\"0\": {\"In\": 1}, \"1\": {\"In\": 1}, \"2\": {\"In\": 1}, \"3\": {\"In\": 1}, \"4\": {\"O\": 1}, \"5\": {\"O\": 1}, \"6\": {\"O\": 1}, \"7\": {\"O\": 1}, \"8\": {\"O\": 1}, \"9\": {\"O\": 1}}" n_minim_iter=3 energy=-11285.060101423336 stress="-0.26745183702638226 0.00019021897543939145 0.00013134353095117467 0.00019021897543939145 -0.26770154201401386 7.08996553221018e-05 0.00013134353095117467 7.08996553221018e-05 -0.26775526760720353" free_energy=-11285.060101423336 pbc="T T T"
In       9.60944754       5.18721039       3.58169588        0       0.03178140       0.01715570       0.01184577
In       7.07170858       3.81733082       2.63581329        1      -0.03178140      -0.01715570      -0.01184577
In       4.04906217       2.18569666       1.50919283        2       0.03178140       0.01715570       0.01184577
In       1.51132321       0.81581709       0.56331023        3      -0.03178140      -0.01715570      -0.01184577
O        5.47834170       2.09253216       0.05279166        4      -0.00000000       0.03633092      -0.05261646
O        6.36531766       4.73778663       0.95462414        5      -0.03037283       0.05626649      -0.00000000
O        7.45360210       1.85701613       2.20692210        6       0.03037283      -0.01993557      -0.05261646
O        3.66716865       4.14601135       1.93808401        7      -0.03037283       0.01993557       0.05261646
O        5.64242904       3.91049532       4.09221446        8      -0.00000000      -0.03633092       0.05261646
O        4.75545308       1.26524085       3.19038198        9       0.03037283      -0.05626649       0.00000000
10
Lattice="5.384126510241703 -0.13125922171881493 -0.0906326481459142 2.8446544730959897 4.573181407977247 -0.09063264814591425 2.8446544730959844 1.5355535457645777 4.308628293931671" Properties=species:S:1:pos:R:3:spacegroup_kinds:I:1:forces:R:3 spacegroup="P 1" unit_cell=conventional occupancy="_JSON {\"0\": {\"In\": 1}, \"1\": {\"In\": 1}, \"2\": {\"In\": 1}, \"3\": {\"In\": 1}, \"4\": {\"O\": 1}, \"5\": {\"O\": 1}, \"6\": {\"O\": 1}, \"7\": {\"O\": 1}, \"8\": {\"O\": 1}, \"9\": {\"O\": 1}}" n_minim_iter=4 energy=-11285.061170433655 stress="-0.26479735500956497 -0.0006256781733786616 -0.000432021987402707 -0.0006256781733786616 -0.2639760123393557 -0.00023320684567084223 -0.000432021987402707 -0.00023320684567084223 -0.26379929531718477" free_energy=-11285.061170433655 pbc="T T T"
In       9.57874464       5.17063687       3.57025210        0      -0.01541949      -0.00832349      -0.00574725
In       7.03140856       3.79557674       2.62079240        1       0.01541949       0.00832349       0.00574725
In       4.04202691       2.18189900       1.50657060        2      -0.01541949      -0.00832349      -0.00574725
In       1.49469083       0.80683887       0.55711090        3       0.01541949       0.00832349       0.00574725
O        5.46042212       2.08216542       0.04019657        4      -0.00000000       0.04191085      -0.06069761
O        6.33648189       4.72730529       0.94120810        5      -0.03503768       0.06490824      -0.00000000
O        7.42901683       1.83796693       2.19451072        6       0.03503768      -0.02299740      -0.06069761
O        3.64441864       4.13950881       1.93285229        7      -0.03503768       0.02299740       0.06069761
O        5.61301334       3.89531033       4.08716643        8      -0.00000000      -0.04191085       0.06069761
O        4.73695357       1.25017045       3.18615490        9       0.03503768      -0.06490824      -0.00000000
10
Lattice="5.393211610334442 -0.12151936691626565 -0.08390741526892163 2.857782233162137 4.575432125843946 -0.08390741526892168 2.8577822331621343 1.542639952464644 4.3083502143630135" Properties=species:S:1:pos:R:3:spacegroup_kinds:I:1:forces:R:3 spacegroup="P 1" unit_cell=conventional occupancy="_JSON {\"0\": {\"In\": 1}, \"1\": {\"In\": 1}, \"2\": {\"In\": 1}, \"3\": {\"In\": 1}, \"4\": {\"O\": 1}, \"5\": {\"O\": 1}, \"6\": {\"O\": 1}, \"7\": {\"O\": 1}, \"8\": {\"O\": 1}, \"9\": {\"O\": 1}}" n_minim_iter=5 energy=-11285.062205652408 stress="-0.266212627386248 0.00021710066669706975 0.0001499049595644228 0.00021710066669706975 -0.26649762060974397 8.091917359086219e-05 0.0001499049595644228 8.091917359086219e-05 -0.2665589386904676" free_energy=-11285.062205652408 pbc="T T T"
In       9.60611326       5.18541054       3.58045311        0       0.00940364       0.00507612       0.00350499
In       7.05705087       3.80941854       2.63034997        1      -0.00940364      -0.00507612      -0.00350499
In       4.05172522       2.18713418       1.51018542        2       0.00940364       0.00507612       0.00350499
In       1.50266283       0.81114218       0.56008228        3      -0.00940364      -0.00507612      -0.00350499
O        5.47379983       2.09234052       0.04607612        4       0.00000000       0.01122321      -0.01625408
O        6.35597544       4.73889983       0.95122643        5      -0.00938266       0.01738163      -0.00000000
O        7.44940645       1.85085523       2.20025122        6       0.00938266      -0.00615842      -0.01625408
O        3.65936963       4.14569749       1.94028416        7      -0.00938266       0.00615842       0.01625408
O        5.63497626       3.90421220       4.09445927        8       0.00000000      -0.01122321       0.01625408
O        4.75280065       1.25765289       3.18930896        9       0.00938266      -0.01738163       0.00000000
10
Lattice="5.391281906818637 -0.12358563857540505 -0.08533414681436584 2.8549959492784476 4.574952692482824 -0.08533414681436585 2.854995949278444 1.5411359075489703 4.308407382030113" Properties=species:S:1:pos:R:3:spacegroup_kinds:I:1:forces:R:3 spacegroup="P 1" unit_cell=conventional occupancy="_JSON {\"0\": {\"In\": 1}, \"1\": {\"In\": 1}, \"2\": {\"In\": 1}, \"3\": {\"In\": 1}, \"4\": {\"O\": 1}, \"5\": {\"O\": 1}, \"6\": {\"O\": 1}, \"7\": {\"O\": 1}, \"8\": {\"O\": 1}, \"9\": {\"O\": 1}}" n_minim_iter=6 energy=-11285.06242957394 stress="-0.26555821125667944 8.666691612746988e-06 5.984229024092521e-06 8.666691612746988e-06 -0.2655695882296996 3.230305781202918e-06 5.984229024092521e-06 3.230305781202918e-06 -0.2655720360559342" free_energy=-11285.06242957394 pbc="T T T"
In       9.60216068       5.18327693       3.57897988        0       0.00321860       0.00173741       0.00119966
In       7.04975003       3.80547753       2.62762876        1      -0.00321860      -0.00173741      -0.00119966
In       4.05152378       2.18702544       1.51011034        2       0.00321860       0.00173741       0.00119966
In       1.49911313       0.80922605       0.55875921        3      -0.00321860      -0.00173741      -0.00119966
O        5.47095941       2.09135700       0.04312555        4      -0.00000000       0.00295886      -0.00428519
O        6.35085399       4.73825937       0.94910063        5      -0.00247362       0.00458246      -0.00000000
O        7.44606078       1.84747486       2.19732924        6       0.00247362      -0.00162359      -0.00428519
O        3.65521304       4.14502811       1.94040986        7      -0.00247362       0.00162359       0.00428519
O        5.63031440       3.90114597       4.09461355        8       0.00000000      -0.00295886       0.00428519
O        4.75041982       1.25424360       3.18863847        9       0.00247362      -0.00458246      -0.00000000
