10
Lattice="5.497034156118586 -0.06976964973503952 -0.048174962740870964 2.958014953688931 4.63383209140245 -0.0481749627408643 2.9580149536889264 1.5967458942801425 4.3503015099468465" Properties=species:S:1:pos:R:3:spacegroup_kinds:I:1:forces:R:3 spacegroup="P 1" unit_cell=conventional occupancy="_JSON {\"0\": {\"In\": 1}, \"1\": {\"In\": 1}, \"2\": {\"In\": 1}, \"3\": {\"In\": 1}, \"4\": {\"O\": 1}, \"5\": {\"O\": 1}, \"6\": {\"O\": 1}, \"7\": {\"O\": 1}, \"8\": {\"O\": 1}, \"9\": {\"O\": 1}}" n_minim_iter=1 energy=-11285.84168572716 stress="-0.2123387667482038 0.003772225593940194 0.0026046687657545705 0.003772225593940194 -0.21729065728845134 0.0014060084963492382 0.0026046687657545705 0.0014060084963492382 -0.21835608757164193" free_energy=-11285.84168572716 pbc="T T T"
In       9.83724634       5.31017691       3.66660254        0       0.04562103       0.02462638       0.01700417
In       7.28234976       3.93103560       2.71432484        1      -0.04562103      -0.02462638      -0.01700417
In       4.13071431       2.22977275       1.53962675        2       0.04562103       0.02462638       0.01700417
In       1.57581773       0.85063143       0.58734905        3      -0.04562103      -0.02462638      -0.01700417
O        5.60178310       2.15333220       0.10090930        4       0.00000000       0.04631669      -0.06707840
O        6.53904686       4.82582819       1.01531294        5      -0.03872098       0.07173167       0.00000000
O        7.62253429       1.94811026       2.27606005        6       0.03872098      -0.02541498      -0.06707840
O        3.79052978       4.21269808       1.97789154        7      -0.03872098       0.02541498       0.06707840
O        5.81128097       4.00747615       4.15304229        8      -0.00000000      -0.04631669       0.06707840
O        4.87401721       1.33498016       3.23863865        9       0.03872098      -0.07173167      -0.00000000
10
Lattice="5.482319461595831 -0.0853031827915791 -0.05890064903963884 2.9369545682707163 4.630054122351116 -0.05890064903963216 2.9369545682707114 1.585377431146935 4.350568797659432" Properties=species:S:1:pos:R:3:spacegroup_kinds:I:1:forces:R:3 spacegroup="P 1" unit_cell=conventional occupancy="_JSON {\"0\": {\"In\": 1}, \"1\": {\"In\": 1}, \"2\": {\"In\": 1}, \"3\": {\"In\": 1}, \"4\": {\"O\": 1}, \"5\": {\"O\": 1}, \"6\": {\"O\": 1}, \"7\": {\"O\": 1}, \"8\": {\"O\": 1}, \"9\": {\"O\": 1}}" n_minim_iter=2 energy=-11285.844641100173 stress="-0.21410152946661715 -0.0001772806562494229 -0.0001224098022382558 -0.0001772806562494229 -0.21386880891891005 -6.607720171416123e-05 -0.0001224098022382558 -6.607720171416123e-05 -0.21381873763621442" free_energy=-11285.844641100173 pbc="T T T"
In       9.78856033       5.28389605       3.64845597        0       0.09937545       0.05364319       0.03703987
In       7.24578257       3.91129652       2.70069528        1      -0.09937545      -0.05364319      -0.03703987
In       4.11044603       2.21883186       1.53207222        2       0.09937545       0.05364319       0.03703987
In       1.56766828       0.84623233       0.58431153        3      -0.09937545      -0.05364319      -0.03703987
O        5.58021688       2.13982401       0.08745736        4       0.00000000       0.01614053      -0.02337562
O        6.50533816       4.81148927       0.99929123        5      -0.01349357       0.02499720      -0.00000000
O        7.59205018       1.92593102       2.26274176        6       0.01349357      -0.00885666      -0.02337562
O        3.76417843       4.20419736       1.97002574        7      -0.01349357       0.00885666       0.02337562
O        5.77601172       3.99030437       4.14531014        8      -0.00000000      -0.01614053       0.02337562
O        4.85089045       1.31863911       3.23347628        9       0.01349357      -0.02499720       0.00000000
10
Lattice="5.475279323800048 -0.0927611317770747 -0.06405025801523263 2.926856608330476 4.628260871588061 -0.06405025801522594 2.9268566083304703 1.5799265202057735 4.350716414773026" Properties=species:S:1:pos:R:3:spacegroup_kinds:I:1:forces:R:3 spacegroup="P 1" unit_cell=conventional occupancy="_JSON {\"0\": {\"In\": 1}, \"1\": {\"In\": 1}, \"2\": {\"In\": 1}, \"3\": {\"In\": 1}, \"4\": {\"O\": 1}, \"5\": {\"O\": 1}, \"6\": {\"O\": 1}, \"7\": {\"O\": 1}, \"8\": {\"O\": 1}, \"9\": {\"O\": 1}}" n_minim_iter=3 energy=-11285.848955356045 stress="-0.21122338475389035 -1.2428588334866761e-05 -8.58176390556859e-06 -1.2428588334866761e-05 -0.21120706945152415 -4.632464588658408e-06 -8.58176390556859e-06 -4.632464588658408e-06 -0.21120355911130445" free_energy=-11285.848955356045 pbc="T T T"
In       9.77923265       5.27886094       3.64497930        0      -0.01792107      -0.00967385      -0.00667966
In       7.21425617       3.89427846       2.68894456        1       0.01792107       0.00967385       0.00667966
In       4.11473638       2.22114781       1.53367135        2      -0.01792107      -0.00967385      -0.00667966
In       1.54975990       0.83656533       0.57763661        3       0.01792107       0.00967385       0.00667966
O        5.56988780       2.13592215       0.07727194        4       0.00000000       0.02895828      -0.04193899
O        6.48703187       4.80861276       0.99160372        5      -0.02420927       0.04484833      -0.00000000
O        7.57960034       1.91387909       2.25263015        6       0.02420927      -0.01589004      -0.04193899
O        3.74939221       4.20154718       1.96998575        7      -0.02420927       0.01589004       0.04193899
O        5.75910475       3.97950412       4.14534396        8      -0.00000000      -0.02895828       0.04193899
O        4.84196068       1.30681351       3.23101218        9       0.02420927      -0.04484833      -0.00000000
10
Lattice="5.476266150021355 -0.09171471545320875 -0.06332772224781617 2.928272910699884 4.628511671732239 -0.06332772224780943 2.9282729106998784 1.5806910447361824 4.350694946426099" Properties=species:S:1:pos:R:3:spacegroup_kinds:I:1:forces:R:3 spacegroup="P 1" unit_cell=conventional occupancy="_JSON {\"0\": {\"In\": 1}, \"1\": {\"In\": 1}, \"2\": {\"In\": 1}, \"3\": {\"In\": 1}, \"4\": {\"O\": 1}, \"5\": {\"O\": 1}, \"6\": {\"O\": 1}, \"7\": {\"O\": 1}, \"8\": {\"O\": 1}, \"9\": {\"O\": 1}}" n_minim_iter=4 energy=-11285.84942872274 stress="-0.21113614081213125 -0.00025304168220914526 -0.00017472172393881926 -0.00025304168220914526 -0.2108039669597779 -9.431534302259433e-05 -0.00017472172393881926 -9.431534302259433e-05 -0.21073249767102803" free_energy=-11285.84942872274 pbc="T T T"
In       9.78320497       5.28100521       3.64645989        0       0.00215807       0.00116494       0.00080437
In       7.21601299       3.89522680       2.68959937        1      -0.00215807      -0.00116494      -0.00080437
In       4.11679899       2.22226121       1.53444014        2       0.00215807       0.00116494       0.00080437
In       1.54960701       0.83648280       0.57757962        3      -0.00215807      -0.00116494      -0.00080437
O        5.57133607       2.13873823       0.07541493        4       0.00000000      -0.00103106       0.00149324
O        6.48770235       4.81252955       0.99268216        5       0.00086197      -0.00159683      -0.00000000
O        7.58324271       1.91432468       2.25076241        6      -0.00086197       0.00056577       0.00149324
O        3.74956927       4.20316333       1.97327710        7       0.00086197      -0.00056577      -0.00149324
O        5.76147591       3.97874979       4.14862457        8      -0.00000000       0.00103106      -0.00149324
O        4.84510963       1.30495846       3.23135735        9      -0.00086197       0.00159683       0.00000000
