10
Lattice="5.829160517628184 0.004965995468376949 0.0034289500888839974 3.2027393158142514 4.870482304281983 0.0034289500888842195 3.2027393158142514 1.7288488844853331 4.553316502137365" Properties=species:S:1:pos:R:3:spacegroup_kinds:I:1:forces:R:3 spacegroup="P 1" unit_cell=conventional occupancy="_JSON {\"0\": {\"In\": 1}, \"1\": {\"In\": 1}, \"2\": {\"In\": 1}, \"3\": {\"In\": 1}, \"4\": {\"O\": 1}, \"5\": {\"O\": 1}, \"6\": {\"O\": 1}, \"7\": {\"O\": 1}, \"8\": {\"O\": 1}, \"9\": {\"O\": 1}}" n_minim_iter=1 energy=-11287.639530755312 stress="-0.026320967894677822 0.0016856810669256847 0.0011639390903724223 0.0016856810669256847 -0.028533801651321133 0.000628298027788286 0.0011639390903724223 0.000628298027788286 -0.029009906702361175" free_energy=-11287.639530755312 pbc="T T T"
In      10.48743547       5.66115108       3.90894527        0       0.02125050       0.01147109       0.00792062
In       7.86452326       4.24529471       2.93131634        1      -0.02125050      -0.01147109      -0.00792062
In       4.37011589       2.35900248       1.62885806        2       0.02125050       0.01147109       0.00792062
In       1.74720369       0.94314612       0.65122914        3      -0.02125050      -0.01147109      -0.00792062
O        5.97324005       2.29328025       0.21527586        4       0.00000000       0.03894182      -0.05639770
O        7.03979813       5.07955136       1.14347255        5      -0.03255555       0.06031004       0.00000000
O        8.10942128       2.16695178       2.49193411        6       0.03255555      -0.02136823      -0.05639770
O        4.12521787       4.43734541       2.06824029        7      -0.03255555       0.02136823       0.05639770
O        6.26139911       4.31101695       4.34489854        8       0.00000000      -0.03894182       0.05639770
O        5.19484103       1.52474584       3.41670185        9       0.03255555      -0.06031004      -0.00000000
10
Lattice="5.818578509286988 -0.005952706432939856 -0.004110260144681058 3.1878046474391737 4.867627022812602 -0.00411026014468085 3.1878046474391732 1.7207871029244923 4.553317633754826" Properties=species:S:1:pos:R:3:spacegroup_kinds:I:1:forces:R:3 spacegroup="P 1" unit_cell=conventional occupancy="_JSON {\"0\": {\"In\": 1}, \"1\": {\"In\": 1}, \"2\": {\"In\": 1}, \"3\": {\"In\": 1}, \"4\": {\"O\": 1}, \"5\": {\"O\": 1}, \"6\": {\"O\": 1}, \"7\": {\"O\": 1}, \"8\": {\"O\": 1}, \"9\": {\"O\": 1}}" n_minim_iter=2 energy=-11287.640622417965 stress="-0.02731212477737094 -0.0001995809383530207 -0.00013780783170592057 -0.0001995809383530207 -0.027050130118760445 -7.438910724372597e-05 -0.00013780783170592057 -7.438910724372597e-05 -0.026993760326934662" free_energy=-11287.640622417965 pbc="T T T"
In      10.45294332       5.64253210       3.89608913        0       0.04893879       0.02641731       0.01824078
In       7.83833839       4.23116004       2.92155655        1      -0.04893879      -0.02641731      -0.01824078
In       4.35584942       2.35130139       1.62354057        2       0.04893879       0.02641731       0.01824078
In       1.74124449       0.93992933       0.64900799        3      -0.04893879      -0.02641731      -0.01824078
O        5.95783621       2.28375810       0.20571496        4       0.00000000       0.02896666      -0.04195113
O        7.01575977       5.06936767       1.13216402        5      -0.02421627       0.04486130       0.00000000
O        8.08771729       2.15123651       2.48237378        6       0.02421627      -0.01589464      -0.04195113
O        4.10647052       4.43122493       2.06272334        7      -0.02421627       0.01589464       0.04195113
O        6.23635160       4.29870333       4.33938216        8      -0.00000000      -0.02896666       0.04195113
O        5.17842804       1.51309376       3.41293310        9       0.02421627      -0.04486130       0.00000000
10
Lattice="5.817784713136591 -0.0067730912080408625 -0.004676724303864368 3.1866832283882425 4.86741356832142 -0.004676724303864198 3.186683228388241 1.7201817573487 4.553318727973516" Properties=species:S:1:pos:R:3:spacegroup_kinds:I:1:forces:R:3 spacegroup="P 1" unit_cell=conventional occupancy="_JSON {\"0\": {\"In\": 1}, \"1\": {\"In\": 1}, \"2\": {\"In\": 1}, \"3\": {\"In\": 1}, \"4\": {\"O\": 1}, \"5\": {\"O\": 1}, \"6\": {\"O\": 1}, \"7\": {\"O\": 1}, \"8\": {\"O\": 1}, \"9\": {\"O\": 1}}" n_minim_iter=3 energy=-11287.642283565781 stress="-0.026517498923075037 -0.00010295032715190165 -7.10857536872714e-05 -0.00010295032715190165 -0.026382353573084355 -3.837231549194613e-05 -7.10857536872714e-05 -3.837231549194613e-05 -0.02635327620332459" free_energy=-11287.642283565781 pbc="T T T"
In      10.45401450       5.64311033       3.89648839        0       0.03214331       0.01735106       0.01198066
In       7.83271226       4.22812303       2.91945954        1      -0.03214331      -0.01735106      -0.01198066
In       4.35843892       2.35269921       1.62450575        2       0.03214331       0.01735106       0.01198066
In       1.73713668       0.93771191       0.64747690        3      -0.03214331      -0.01735106      -0.01198066
O        5.95668015       2.28545572       0.20150263        4       0.00000000       0.00730549      -0.01058022
O        7.01193827       5.07234003       1.13131460        5      -0.00610743       0.01131418       0.00000000
O        8.08810526       2.14873238       2.47816200        6       0.00610743      -0.00400868      -0.01058022
O        4.10304592       4.43208987       2.06580329        7      -0.00610743       0.00400868       0.01058022
O        6.23447103       4.29536652       4.34246265        8       0.00000000      -0.00730549       0.01058022
O        5.17921290       1.50848222       3.41265069        9       0.00610743      -0.01131418      -0.00000000
10
Lattice="5.817191821665982 -0.007385963733195328 -0.005099904170415913 3.1858455313995604 4.867254204639344 -0.005099904170415743 3.185845531399558 1.7197295658458616 4.553319637578438" Properties=species:S:1:pos:R:3:spacegroup_kinds:I:1:forces:R:3 spacegroup="P 1" unit_cell=conventional occupancy="_JSON {\"0\": {\"In\": 1}, \"1\": {\"In\": 1}, \"2\": {\"In\": 1}, \"3\": {\"In\": 1}, \"4\": {\"O\": 1}, \"5\": {\"O\": 1}, \"6\": {\"O\": 1}, \"7\": {\"O\": 1}, \"8\": {\"O\": 1}, \"9\": {\"O\": 1}}" n_minim_iter=4 energy=-11287.6427034258 stress="-0.02587817026127219 1.516005291233692e-05 1.046780196257881e-05 1.516005291233692e-05 -0.025898071222000208 5.650553424528212e-06 1.046780196257881e-05 5.650553424528212e-06 -0.02590235303995022" free_energy=-11287.6427034258 pbc="T T T"
In      10.45517264       5.64373550       3.89692005        0       0.01460480       0.00788372       0.00544360
In       7.82815169       4.22566122       2.91775969        1      -0.01460480      -0.00788372      -0.00544360
In       4.36073120       2.35393660       1.62536014        2       0.01460480       0.00788372       0.00544360
In       1.73371025       0.93586232       0.64619978        3      -0.01460480      -0.00788372      -0.00544360
O        5.95581664       2.28665622       0.19845393        4      -0.00000000      -0.00684869       0.00991865
O        7.00914020       5.07445570       1.13068006        5       0.00572554      -0.01060671      -0.00000000
O        8.08833861       2.14689888       2.47511375        6      -0.00572554       0.00375803       0.00991865
O        4.10054428       4.43269894       2.06800609        7       0.00572554      -0.00375803      -0.00991865
O        6.23306626       4.29294159       4.34466591        8      -0.00000000       0.00684869      -0.00991865
O        5.17974270       1.50514212       3.41243978        9      -0.00572554       0.01060671      -0.00000000
10
Lattice="5.816243942571715 -0.008366003962137769 -0.005776608177002685 3.1845060909158702 4.866999542474217 -0.005776608177002519 3.184506090915868 1.7190065316061944 4.553321255956078" Properties=species:S:1:pos:R:3:spacegroup_kinds:I:1:forces:R:3 spacegroup="P 1" unit_cell=conventional occupancy="_JSON {\"0\": {\"In\": 1}, \"1\": {\"In\": 1}, \"2\": {\"In\": 1}, \"3\": {\"In\": 1}, \"4\": {\"O\": 1}, \"5\": {\"O\": 1}, \"6\": {\"O\": 1}, \"7\": {\"O\": 1}, \"8\": {\"O\": 1}, \"9\": {\"O\": 1}}" n_minim_iter=5 energy=-11287.642767208938 stress="-0.025754632202853206 4.112761960200542e-05 2.8398043280169265e-05 4.112761960200542e-05 -0.02580862140976068 1.5329354253206575e-05 2.8398043280169265e-05 1.5329354253206575e-05 -0.025820237526858768" free_energy=-11287.642767208938 pbc="T T T"
In      10.45358853       5.64288039       3.89632961        0      -0.00042553      -0.00022970      -0.00015861
In       7.82429567       4.22357973       2.91632245        1       0.00042553       0.00022970       0.00015861
In       4.36096047       2.35406035       1.62544559        2      -0.00042553      -0.00022970      -0.00015861
In       1.73166760       0.93475969       0.64543843        3       0.00042553       0.00022970       0.00015861
O        5.95443601       2.28578436       0.19762180        4      -0.00000000      -0.00320546       0.00464232
O        7.00699989       5.07351555       1.12966540        5       0.00267978      -0.00496437       0.00000000
O        8.08637821       2.14549887       2.47428243        6      -0.00267978       0.00175891       0.00464232
O        4.09887792       4.43214121       2.06748561        7       0.00267978      -0.00175891      -0.00464232
O        6.23082013       4.29185572       4.34414624        8       0.00000000       0.00320546      -0.00464232
O        5.17825624       1.50412453       3.41210264        9      -0.00267978       0.00496437       0.00000000
