10
Lattice="6.202994525407382 0.09587603609665196 0.06620105567735712 3.4838714497995773 5.133125073267058 0.06620105567735468 3.4838714497995733 1.8806049059116203 4.776680938207711" Properties=species:S:1:pos:R:3:spacegroup_kinds:I:1:forces:R:3 spacegroup="P 1" unit_cell=conventional occupancy="_JSON {\"0\": {\"In\": 1}, \"1\": {\"In\": 1}, \"2\": {\"In\": 1}, \"3\": {\"In\": 1}, \"4\": {\"O\": 1}, \"5\": {\"O\": 1}, \"6\": {\"O\": 1}, \"7\": {\"O\": 1}, \"8\": {\"O\": 1}, \"9\": {\"O\": 1}}" n_minim_iter=1 energy=-11286.91816082677 stress="0.08276239834441733 0.0004273261249311938 0.000295062684639759 0.0004273261249311938 0.08220143714257266 0.0001592757773908331 0.000295062684639759 0.0001592757773908331 0.08208074282486856" free_energy=-11286.91816082677 pbc="T T T"
In      11.21389773       6.05329772       4.17971701        0      -0.04757427      -0.02568074      -0.01773219
In       8.54220842       4.61111132       3.18390757        1       0.04757427       0.02568074       0.01773219
In       4.62852902       2.49849471       1.72517549        2      -0.04757427      -0.02568074      -0.01773219
In       1.95683971       1.05630831       0.72936604        3       0.04757427       0.02568074       0.01773219
O        6.39418162       2.47420157       0.32065333        4       0.00000000       0.02232984      -0.03233931
O        7.59366544       5.39680889       1.29347182        5      -0.01866786       0.03458271      -0.00000000
O        8.67856925       2.40959720       2.70899380        6       0.01866786      -0.01225287      -0.03233931
O        4.49216818       4.70000883       2.20008925        7      -0.01866786       0.01225287       0.03233931
O        6.77655581       4.63540445       4.58842972        8      -0.00000000      -0.02232984       0.03233931
O        5.57707199       1.71279714       3.61561123        9       0.01866786      -0.03458271       0.00000000
10
Lattice="6.197403119447247 0.09024375998985987 0.06231204817020375 3.476094712294935 5.131541182949501 0.062312048170201306 3.4760947122949295 1.8764069982350733 4.776577695445601" Properties=species:S:1:pos:R:3:spacegroup_kinds:I:1:forces:R:3 spacegroup="P 1" unit_cell=conventional occupancy="_JSON {\"0\": {\"In\": 1}, \"1\": {\"In\": 1}, \"2\": {\"In\": 1}, \"3\": {\"In\": 1}, \"4\": {\"O\": 1}, \"5\": {\"O\": 1}, \"6\": {\"O\": 1}, \"7\": {\"O\": 1}, \"8\": {\"O\": 1}, \"9\": {\"O\": 1}}" n_minim_iter=2 energy=-11286.918486067572 stress="0.08181752363988087 -0.00027533659164504003 -0.00019011604830584 -0.00027533659164504003 0.08217896455233512 -0.00010262524832719502 -0.00019011604830584 -0.00010262524832719502 0.08225673083128167" free_energy=-11286.918486067572 pbc="T T T"
In      11.19521590       6.04321321       4.17275380        0      -0.03244694      -0.01751496      -0.01209383
In       8.52917292       4.60407472       3.17904889        1       0.03244694       0.01751496       0.01209383
In       4.62041963       2.49411724       1.72215290        2      -0.03244694      -0.01751496      -0.01209383
In       1.95437665       1.05497874       0.72844800        3       0.03244694       0.01751496       0.01209383
O        6.38609970       2.46937265       0.31552091        4       0.00000000       0.01881135      -0.02724363
O        7.58099229       5.39164936       1.28761250        5      -0.01572638       0.02913354      -0.00000000
O        8.66730182       2.40136726       2.70380976        6       0.01572638      -0.01032220      -0.02724363
O        4.48229073       4.69682469       2.19739204        7      -0.01572638       0.01032220       0.02724363
O        6.76349285       4.62881930       4.58568088        8       0.00000000      -0.01881135       0.02724363
O        5.56860026       1.70654260       3.61358930        9       0.01572638      -0.02913354       0.00000000
10
Lattice="6.200108983141388 0.09297039378381128 0.06419475049034526 3.479858958261328 5.132307134959796 0.06419475049034279 3.479858958261323 1.8784389501981302 4.776626906502992" Properties=species:S:1:pos:R:3:spacegroup_kinds:I:1:forces:R:3 spacegroup="P 1" unit_cell=conventional occupancy="_JSON {\"0\": {\"In\": 1}, \"1\": {\"In\": 1}, \"2\": {\"In\": 1}, \"3\": {\"In\": 1}, \"4\": {\"O\": 1}, \"5\": {\"O\": 1}, \"6\": {\"O\": 1}, \"7\": {\"O\": 1}, \"8\": {\"O\": 1}, \"9\": {\"O\": 1}}" n_minim_iter=3 energy=-11286.919266779032 stress="0.08122107088222341 -0.0002993627905174515 -0.00020670580017146764 -0.0002993627905174515 0.08161405155950688 -0.000111580448563366 -0.00020670580017146764 -0.000111580448563366 0.08169860381599915" free_energy=-11286.919266779032 pbc="T T T"
In      11.19993090       6.04575838       4.17451120        0      -0.00699507      -0.00377596      -0.00260725
In       8.53980946       4.60981635       3.18301341        1       0.00699507       0.00377596       0.00260725
In       4.62001745       2.49390014       1.72200300        2      -0.00699507      -0.00377596      -0.00260725
In       1.95989601       1.05795811       0.73050521        3       0.00699507       0.00377596       0.00260725
O        6.39001122       2.47399226       0.31470022        4       0.00000000      -0.00677310       0.00980918
O        7.58521830       5.39768088       1.29044885        5       0.00566234      -0.01048965      -0.00000000
O        8.67466311       2.40409875       2.70301367        6      -0.00566234       0.00371655       0.00980918
O        4.48516380       4.69961774       2.20200274        7       0.00566234      -0.00371655      -0.00980918
O        6.76981569       4.62972423       4.59031620        8       0.00000000       0.00677310      -0.00980918
O        5.57460861       1.70603561       3.61456756        9      -0.00566234       0.01048965       0.00000000
10
Lattice="6.202566700760161 0.09544536462622157 0.06590368307880838 3.483276649573037 5.133003728573225 0.06590368307880591 3.4832766495730327 1.8802838308546947 4.776672826185237" Properties=species:S:1:pos:R:3:spacegroup_kinds:I:1:forces:R:3 spacegroup="P 1" unit_cell=conventional occupancy="_JSON {\"0\": {\"In\": 1}, \"1\": {\"In\": 1}, \"2\": {\"In\": 1}, \"3\": {\"In\": 1}, \"4\": {\"O\": 1}, \"5\": {\"O\": 1}, \"6\": {\"O\": 1}, \"7\": {\"O\": 1}, \"8\": {\"O\": 1}, \"9\": {\"O\": 1}}" n_minim_iter=4 energy=-11286.919328911416 stress="0.08156165626090163 -2.4524761533929366e-05 -1.6934003623513914e-05 -2.4524761533929366e-05 0.08159385050007188 -9.141029137933398e-06 -1.6934003623513914e-05 -9.141029137933398e-06 0.08160077729242997" free_energy=-11286.919328911416 pbc="T T T"
In      11.20767356       6.04993789       4.17739710        0      -0.01049931      -0.00566756      -0.00391337
In       8.54600645       4.61316151       3.18532319        1       0.01049931       0.00566756       0.00391337
In       4.62311356       2.49557143       1.72315700        2      -0.01049931      -0.00566756      -0.00391337
In       1.96144645       1.05879504       0.73108310        3       0.01049931       0.00566756       0.00391337
O        6.39356336       2.47618377       0.31685524        4      -0.00000000      -0.00643086       0.00931352
O        7.59073015       5.40005601       1.29302373        5       0.00537623      -0.00995961      -0.00000000
O        8.67967321       2.40767745       2.70519165        6      -0.00537623       0.00352875       0.00931352
O        4.48944680       4.70105548       2.20328855        7       0.00537623      -0.00352875      -0.00931352
O        6.77555665       4.63254917       4.59162496        8       0.00000000       0.00643086      -0.00931352
O        5.57838986       1.70867692       3.61545646        9      -0.00537623       0.00995961       0.00000000
10
Lattice="6.20562779955995 0.09852581255708823 0.06803068908870348 3.4875316111847345 5.1338725133566045 0.06803068908870102 3.48753161118473 1.8825806726861811 4.77673164086961" Properties=species:S:1:pos:R:3:spacegroup_kinds:I:1:forces:R:3 spacegroup="P 1" unit_cell=conventional occupancy="_JSON {\"0\": {\"In\": 1}, \"1\": {\"In\": 1}, \"2\": {\"In\": 1}, \"3\": {\"In\": 1}, \"4\": {\"O\": 1}, \"5\": {\"O\": 1}, \"6\": {\"O\": 1}, \"7\": {\"O\": 1}, \"8\": {\"O\": 1}, \"9\": {\"O\": 1}}" n_minim_iter=5 energy=-11286.919381933147 stress="0.08191386341888011 0.0002554331087151969 0.00017637297086819928 0.0002554331087151969 0.08157855028446447 9.520669105453679e-05 0.00017637297086819928 9.520669105453679e-05 0.0815064055604255" free_energy=-11286.919381933147 pbc="T T T"
In      11.21658666       6.05474921       4.18071925        0      -0.01136287      -0.00613371      -0.00423524
In       8.55444988       4.61771930       3.18847028        1       0.01136287       0.00613371       0.00423524
In       4.62624115       2.49725971       1.72432274        2      -0.01136287      -0.00613371      -0.00423524
In       1.96410437       1.06022980       0.73207378        3       0.01136287       0.00613371       0.00423524
O        6.39798666       2.47864920       0.31991848        4       0.00000000      -0.00413964       0.00599526
O        7.59781290       5.40260668       1.29622895        5       0.00346076      -0.00641115      -0.00000000
O        8.68569204       2.41227677       2.70828430        6      -0.00346076       0.00227151       0.00599526
O        4.49499900       4.70270224       2.20450872        7       0.00346076      -0.00227151      -0.00599526
O        6.78270437       4.63632981       4.59287454        8       0.00000000       0.00413964      -0.00599526
O        5.58287814       1.71237233       3.61656408        9      -0.00346076       0.00641115       0.00000000
10
Lattice="6.204997434624459 0.09789165685016427 0.06759281348421073 3.4866555588411665 5.133693500217844 0.06759281348420826 3.4866555588411625 1.8821077768405996 4.776719382481022" Properties=species:S:1:pos:R:3:spacegroup_kinds:I:1:forces:R:3 spacegroup="P 1" unit_cell=conventional occupancy="_JSON {\"0\": {\"In\": 1}, \"1\": {\"In\": 1}, \"2\": {\"In\": 1}, \"3\": {\"In\": 1}, \"4\": {\"O\": 1}, \"5\": {\"O\": 1}, \"6\": {\"O\": 1}, \"7\": {\"O\": 1}, \"8\": {\"O\": 1}, \"9\": {\"O\": 1}}" n_minim_iter=6 energy=-11286.919483082385 stress="0.08159239665195046 -4.468043432384584e-06 -3.085122068603231e-06 -4.468043432384584e-06 0.08159826195875247 -1.6653585767737827e-06 -3.085122068603231e-06 -1.6653585767737827e-06 0.08159952391734614" free_energy=-11286.919483082385 pbc="T T T"
In      11.21247985       6.05253234       4.17918853        0      -0.00017809      -0.00009613      -0.00006638
In       8.55498299       4.61800707       3.18866899        1       0.00017809       0.00009613       0.00006638
In       4.62332558       2.49568588       1.72323603        2      -0.00017809      -0.00009613      -0.00006638
In       1.96582871       1.06116060       0.73271648        3       0.00017809       0.00009613       0.00006638
O        6.39707586       2.47743316       0.32031384        4      -0.00000000       0.00014831      -0.00021479
O        7.59694682       5.40098427       1.29556907        5      -0.00012399       0.00022969      -0.00000000
O        8.68386046       2.41171859       2.70867353        6       0.00012399      -0.00008138      -0.00021479
O        4.49444810       4.70197436       2.20323149        7      -0.00012399       0.00008138       0.00021479
O        6.78123270       4.63625979       4.59159118        8      -0.00000000      -0.00014831       0.00021479
O        5.58136174       1.71270867       3.61633595        9       0.00012399      -0.00022969       0.00000000
