20
Lattice="5.541511251233467 -1.812168747902712e-62 -4.990558832649156e-45 9.166308199245578e-63 5.63075284203609 -1.0268097216164275e-17 7.215394533686864e-45 1.4610417616538105e-17 8.011966461337007" Properties=species:S:1:pos:R:3:spacegroup_kinds:I:1:forces:R:3 spacegroup="P 1" unit_cell=conventional occupancy="_JSON {\"0\": {\"In\": 1}, \"1\": {\"In\": 1}, \"2\": {\"In\": 1}, \"3\": {\"In\": 1}, \"4\": {\"In\": 1}, \"5\": {\"In\": 1}, \"6\": {\"In\": 1}, \"7\": {\"In\": 1}, \"8\": {\"O\": 1}, \"9\": {\"O\": 1}, \"10\": {\"O\": 1}, \"11\": {\"O\": 1}, \"12\": {\"O\": 1}, \"13\": {\"O\": 1}, \"14\": {\"O\": 1}, \"15\": {\"O\": 1}, \"16\": {\"O\": 1}, \"17\": {\"O\": 1}, \"18\": {\"O\": 1}, \"19\": {\"O\": 1}}" n_minim_iter=1 energy=-22574.89422491632 stress="-0.023905449190480533 5.1823745073107635e-14 -8.832343694368697e-14 5.1823745073107635e-14 -0.024046693342911065 -2.943287678806632e-14 -8.832343694368697e-14 -2.943287678806632e-14 -0.01840433067930416" free_energy=-22574.89422491632 pbc="T T T"
In       1.37428062       2.97526650       0.91876429        0       0.02180814       0.05229263       0.00705724
In       1.39647501       0.15989008       3.08721894        1      -0.02180814       0.05229263      -0.00705724
In       1.39647501       2.65548634       4.92474752        2      -0.02180814      -0.05229263       0.00705724
In       1.37428062       5.47086276       7.09320217        3       0.02180814      -0.05229263      -0.00705724
In       4.16723063       2.65548634       7.09320217        4      -0.02180814      -0.05229263      -0.00705724
In       4.14503624       5.47086276       4.92474752        5       0.02180814      -0.05229263       0.00705724
In       4.14503624       2.97526650       3.08721894        6       0.02180814       0.05229263      -0.00705724
In       4.16723063       0.15989008       0.91876429        7      -0.02180814       0.05229263       0.00705724
O        2.16265843       3.40151577       6.80474280        8      -0.02306251       0.03314595       0.04151692
O        0.60809720       0.58613935       5.21320689        9       0.02306251       0.03314595      -0.04151692
O        0.60809720       2.22923707       2.79875957       10       0.02306251      -0.03314595       0.04151692
O        2.16265843       5.04461349       1.20722366       11      -0.02306251      -0.03314595      -0.04151692
O        3.37885282       2.22923707       1.20722366       12       0.02306251      -0.03314595      -0.04151692
O        4.93341405       5.04461349       2.79875957       13      -0.02306251      -0.03314595       0.04151692
O        4.93341405       3.40151577       5.21320689       14      -0.02306251       0.03314595      -0.04151692
O        3.37885282       0.58613935       6.80474280       15       0.02306251       0.03314595       0.04151692
O        5.31095367       4.22306463      -0.00000000       16       0.05426434      -0.00000000       0.00000000
O        3.00131320       1.40768821       4.00598323       17      -0.05426434      -0.00000000      -0.00000000
O        0.23055758       1.40768821      -0.00000000       18      -0.05426434       0.00000000       0.00000000
O        2.54019805       4.22306463       4.00598323       19       0.05426434       0.00000000       0.00000000
20
Lattice="5.5553018124102485 -1.8164123963683898e-62 -2.0984712095310028e-45 -6.357949355310527e-63 5.645874765046567 -1.0215173721958079e-17 1.9369322409663048e-44 1.4649655284492343e-17 7.970671443217265" Properties=species:S:1:pos:R:3:spacegroup_kinds:I:1:forces:R:3 spacegroup="P 1" unit_cell=conventional occupancy="_JSON {\"0\": {\"In\": 1}, \"1\": {\"In\": 1}, \"2\": {\"In\": 1}, \"3\": {\"In\": 1}, \"4\": {\"In\": 1}, \"5\": {\"In\": 1}, \"6\": {\"In\": 1}, \"7\": {\"In\": 1}, \"8\": {\"O\": 1}, \"9\": {\"O\": 1}, \"10\": {\"O\": 1}, \"11\": {\"O\": 1}, \"12\": {\"O\": 1}, \"13\": {\"O\": 1}, \"14\": {\"O\": 1}, \"15\": {\"O\": 1}, \"16\": {\"O\": 1}, \"17\": {\"O\": 1}, \"18\": {\"O\": 1}, \"19\": {\"O\": 1}}" n_minim_iter=2 energy=-22574.898106956105 stress="-0.02001935660400397 5.655228234467299e-13 1.9808247650133692e-13 5.655228234467299e-13 -0.02105657399905081 8.759234079868896e-13 1.9808247650133692e-13 8.759234079868896e-13 -0.020769253678860577" free_energy=-22574.898106956105 pbc="T T T"
In       1.37782230       2.98354864       0.91406789        0       0.05431092       0.06382834      -0.01307063
In       1.39982861       0.16061126       3.07126783        1      -0.05431092       0.06382834       0.01307063
In       1.39982861       2.66232613       4.89940361        2      -0.05431092      -0.06382834      -0.01307063
In       1.37782230       5.48526351       7.05660355        3       0.05431092      -0.06382834       0.01307063
In       4.17747951       2.66232613       7.05660355        4      -0.05431092      -0.06382834       0.01307063
In       4.15547321       5.48526351       4.89940361        5       0.05431092      -0.06382834      -0.01307063
In       4.15547321       2.98354864       3.07126783        6       0.05431092       0.06382834       0.01307063
In       4.17747951       0.16061126       0.91406789        7      -0.05431092       0.06382834      -0.01307063
O        2.16791174       3.41083581       6.76989986        8      -0.00121591       0.03643577       0.06556809
O        0.60973916       0.58789843       5.18610731        9       0.00121591       0.03643577      -0.06556809
O        0.60973916       2.23503895       2.78456414       10       0.00121591      -0.03643577       0.06556809
O        2.16791174       5.05797634       1.20077159       11      -0.00121591      -0.03643577      -0.06556809
O        3.38739007       2.23503895       1.20077159       12       0.00121591      -0.03643577      -0.06556809
O        4.94556265       5.05797634       2.78456414       13      -0.00121591      -0.03643577       0.06556809
O        4.94556265       3.41083581       5.18610731       14      -0.00121591       0.03643577      -0.06556809
O        3.38739007       0.58789843       6.76989986       15       0.00121591       0.03643577       0.06556809
O        5.32447319       4.23440607      -0.00000000       16       0.04389177       0.00000000       0.00000000
O        3.00847953       1.41146869       3.98533572       17      -0.04389177       0.00000000       0.00000000
O        0.23082862       1.41146869      -0.00000000       18      -0.04389177      -0.00000000      -0.00000000
O        2.54682228       4.23440607       3.98533572       19       0.04389177      -0.00000000      -0.00000000
20
Lattice="5.546754166635497 -1.8233338952254336e-62 -7.69956338581732e-45 2.474667541425146e-62 5.65882467164236 -1.0207502601423281e-17 -4.9449394324616536e-45 1.4683257104491832e-17 7.964685839540963" Properties=species:S:1:pos:R:3:spacegroup_kinds:I:1:forces:R:3 spacegroup="P 1" unit_cell=conventional occupancy="_JSON {\"0\": {\"In\": 1}, \"1\": {\"In\": 1}, \"2\": {\"In\": 1}, \"3\": {\"In\": 1}, \"4\": {\"In\": 1}, \"5\": {\"In\": 1}, \"6\": {\"In\": 1}, \"7\": {\"In\": 1}, \"8\": {\"O\": 1}, \"9\": {\"O\": 1}, \"10\": {\"O\": 1}, \"11\": {\"O\": 1}, \"12\": {\"O\": 1}, \"13\": {\"O\": 1}, \"14\": {\"O\": 1}, \"15\": {\"O\": 1}, \"16\": {\"O\": 1}, \"17\": {\"O\": 1}, \"18\": {\"O\": 1}, \"19\": {\"O\": 1}}" n_minim_iter=3 energy=-22574.899415699394 stress="-0.02103924149799381 -1.3784285403979148e-13 2.21794424371741e-13 -1.3784285403979148e-13 -0.019423423981826594 5.923346469298518e-15 2.21794424371741e-13 5.923346469298518e-15 -0.02053877449805397" free_energy=-22574.899415699394 pbc="T T T"
In       1.37652784       2.99140417       0.91320291        0       0.02746314       0.05836120      -0.01362217
In       1.39684924       0.16199183       3.06914001        1      -0.02746314       0.05836120       0.01362217
In       1.39684924       2.66742051       4.89554583        2      -0.02746314      -0.05836120      -0.01362217
In       1.37652784       5.49683284       7.05148293        3       0.02746314      -0.05836120       0.01362217
In       4.17022633       2.66742051       7.05148293        4      -0.02746314      -0.05836120       0.01362217
In       4.14990492       5.49683284       4.89554583        5       0.02746314      -0.05836120      -0.01362217
In       4.14990492       2.99140417       3.06914001        6       0.02746314       0.05836120       0.01362217
In       4.17022633       0.16199183       0.91320291        7      -0.02746314       0.05836120      -0.01362217
O        2.16452566       3.41924170       6.76581988        8      -0.00563946       0.03518984       0.04706590
O        0.60885143       0.58982937       5.18120888        9       0.00563946       0.03518984      -0.04706590
O        0.60885143       2.23958297       2.78347696       10       0.00563946      -0.03518984       0.04706590
O        2.16452566       5.06899531       1.19886596       11      -0.00563946      -0.03518984      -0.04706590
O        3.38222851       2.23958297       1.19886596       12       0.00563946      -0.03518984      -0.04706590
O        4.93790274       5.06899531       2.78347696       13      -0.00563946      -0.03518984       0.04706590
O        4.93790274       3.41924170       5.18120888       14      -0.00563946       0.03518984      -0.04706590
O        3.38222851       0.58982937       6.76581988       15       0.00563946       0.03518984       0.04706590
O        5.31699973       4.24411850      -0.00000000       16       0.01773433      -0.00000000       0.00000000
O        3.00313152       1.41470617       3.98234292       17      -0.01773433      -0.00000000      -0.00000000
O        0.22975444       1.41470617      -0.00000000       18      -0.01773433       0.00000000       0.00000000
O        2.54362264       4.24411850       3.98234292       19       0.01773433       0.00000000       0.00000000
20
Lattice="5.5533464223153315 -1.4800639828236287e-61 1.4694449749428105e-44 -1.1292843144922535e-61 5.6562166095082365 -2.7559416761385055e-17 2.7418435000868823e-44 -1.002400321628189e-17 7.958899265620837" Properties=species:S:1:pos:R:3:spacegroup_kinds:I:1:forces:R:3 spacegroup="P 1" unit_cell=conventional occupancy="_JSON {\"0\": {\"In\": 1}, \"1\": {\"In\": 1}, \"2\": {\"In\": 1}, \"3\": {\"In\": 1}, \"4\": {\"In\": 1}, \"5\": {\"In\": 1}, \"6\": {\"In\": 1}, \"7\": {\"In\": 1}, \"8\": {\"O\": 1}, \"9\": {\"O\": 1}, \"10\": {\"O\": 1}, \"11\": {\"O\": 1}, \"12\": {\"O\": 1}, \"13\": {\"O\": 1}, \"14\": {\"O\": 1}, \"15\": {\"O\": 1}, \"16\": {\"O\": 1}, \"17\": {\"O\": 1}, \"18\": {\"O\": 1}, \"19\": {\"O\": 1}}" n_minim_iter=4 energy=-22574.901065769445 stress="-0.019575693742248 -2.935010753969174e-13 -4.448081677409262e-13 -2.935010753969174e-13 -0.01962094591495183 -4.62037012045148e-15 -4.448081677409262e-13 -4.62037012045148e-15 -0.01988350326969317" free_energy=-22574.901065769445 pbc="T T T"
In       1.37986852       2.99257830       0.91204415        0      -0.00082641       0.00286583       0.01522103
In       1.39680470       0.16446999       3.06740548        1       0.00082641       0.00286583      -0.01522103
In       1.39680470       2.66363831       4.89149378        2       0.00082641      -0.00286583       0.01522103
In       1.37986852       5.49174662       7.04685512        3      -0.00082641      -0.00286583      -0.01522103
In       4.17347791       2.66363831       7.04685512        4       0.00082641      -0.00286583      -0.01522103
In       4.15654173       5.49174662       4.89149378        5      -0.00082641      -0.00286583       0.01522103
In       4.15654173       2.99257830       3.06740548        6      -0.00082641       0.00286583      -0.01522103
In       4.17347791       0.16446999       0.91204415        7       0.00082641       0.00286583       0.01522103
O        2.16690994       3.41916571       6.76321548        8      -0.00072059       0.00604882       0.00513851
O        0.60976327       0.59105740       5.17513342        9       0.00072059       0.00604882      -0.00513851
O        0.60976327       2.23705090       2.78376585       10       0.00072059      -0.00604882       0.00513851
O        2.16690994       5.06515921       1.19568378       11      -0.00072059      -0.00604882      -0.00513851
O        3.38643648       2.23705090       1.19568378       12       0.00072059      -0.00604882      -0.00513851
O        4.94358315       5.06515921       2.78376585       13      -0.00072059      -0.00604882       0.00513851
O        4.94358315       3.41916571       5.17513342       14      -0.00072059       0.00604882      -0.00513851
O        3.38643648       0.59105740       6.76321548       15       0.00072059       0.00604882       0.00513851
O        5.32471376       4.24216246      -0.00000000       16      -0.01786187       0.00000000      -0.00000000
O        3.00530587       1.41405415       3.97944963       17       0.01786187      -0.00000000      -0.00000000
O        0.22863266       1.41405415      -0.00000000       18       0.01786187      -0.00000000      -0.00000000
O        2.54804055       4.24216246       3.97944963       19      -0.01786187       0.00000000      -0.00000000
20
Lattice="5.551062770989154 -1.1613424704809494e-61 1.9613267270592266e-44 -1.1863127870285184e-61 5.654217324604192 -1.7160179697511396e-17 2.9444094421770283e-44 4.8065595065403896e-18 7.9649888359180006" Properties=species:S:1:pos:R:3:spacegroup_kinds:I:1:forces:R:3 spacegroup="P 1" unit_cell=conventional occupancy="_JSON {\"0\": {\"In\": 1}, \"1\": {\"In\": 1}, \"2\": {\"In\": 1}, \"3\": {\"In\": 1}, \"4\": {\"In\": 1}, \"5\": {\"In\": 1}, \"6\": {\"In\": 1}, \"7\": {\"In\": 1}, \"8\": {\"O\": 1}, \"9\": {\"O\": 1}, \"10\": {\"O\": 1}, \"11\": {\"O\": 1}, \"12\": {\"O\": 1}, \"13\": {\"O\": 1}, \"14\": {\"O\": 1}, \"15\": {\"O\": 1}, \"16\": {\"O\": 1}, \"17\": {\"O\": 1}, \"18\": {\"O\": 1}, \"19\": {\"O\": 1}}" n_minim_iter=5 energy=-22574.90117576234 stress="-0.020122486800065262 -8.897135343220666e-13 -6.630108599485751e-13 -8.897135343220666e-13 -0.020046568064081255 8.632684611441013e-14 -6.630108599485751e-13 8.632684611441013e-14 -0.01942516434452992" free_energy=-22574.90117576234 pbc="T T T"
In       1.37927675       2.99172054       0.91341344        0      -0.00728711       0.00071767       0.01253183
In       1.39625463       0.16461188       3.06908098        1       0.00728711       0.00071767      -0.01253183
In       1.39625463       2.66249678       4.89590786        2       0.00728711      -0.00071767       0.01253183
In       1.37927675       5.48960545       7.05157540        3      -0.00728711      -0.00071767      -0.01253183
In       4.17178602       2.66249678       7.05157540        4       0.00728711      -0.00071767      -0.01253183
In       4.15480814       5.48960545       4.89590786        5      -0.00728711      -0.00071767       0.01253183
In       4.15480814       2.99172054       3.06908098        6      -0.00728711       0.00071767      -0.01253183
In       4.17178602       0.16461188       0.91341344        7       0.00728711       0.00071767       0.01253183
O        2.16595038       3.41827353       6.76866052        8      -0.00323987       0.00385475       0.00192619
O        0.60958101       0.59116487       5.17882273        9       0.00323987       0.00385475      -0.00192619
O        0.60958101       2.23594379       2.78616610       10       0.00323987      -0.00385475       0.00192619
O        2.16595038       5.06305245       1.19632832       11      -0.00323987      -0.00385475      -0.00192619
O        3.38511239       2.23594379       1.19632832       12       0.00323987      -0.00385475      -0.00192619
O        4.94148176       5.06305245       2.78616610       13      -0.00323987      -0.00385475       0.00192619
O        4.94148176       3.41827353       5.17882273       14      -0.00323987       0.00385475      -0.00192619
O        3.38511239       0.59116487       6.76866052       15       0.00323987       0.00385475       0.00192619
O        5.32179391       4.24066299      -0.00000000       16      -0.01397729       0.00000000       0.00000000
O        3.00480025       1.41355433       3.98249442       17       0.01397729       0.00000000       0.00000000
O        0.22926886       1.41355433      -0.00000000       18       0.01397729       0.00000000      -0.00000000
O        2.54626252       4.24066299       3.98249442       19      -0.01397729       0.00000000       0.00000000
20
Lattice="5.551691454834443 -1.1616759038795512e-61 -6.982823114090584e-44 5.783642075715002e-61 5.6567619386214405 -1.7150518057936295e-17 -2.9406405613028766e-43 4.8087226421244866e-18 7.960504334432071" Properties=species:S:1:pos:R:3:spacegroup_kinds:I:1:forces:R:3 spacegroup="P 1" unit_cell=conventional occupancy="_JSON {\"0\": {\"In\": 1}, \"1\": {\"In\": 1}, \"2\": {\"In\": 1}, \"3\": {\"In\": 1}, \"4\": {\"In\": 1}, \"5\": {\"In\": 1}, \"6\": {\"In\": 1}, \"7\": {\"In\": 1}, \"8\": {\"O\": 1}, \"9\": {\"O\": 1}, \"10\": {\"O\": 1}, \"11\": {\"O\": 1}, \"12\": {\"O\": 1}, \"13\": {\"O\": 1}, \"14\": {\"O\": 1}, \"15\": {\"O\": 1}, \"16\": {\"O\": 1}, \"17\": {\"O\": 1}, \"18\": {\"O\": 1}, \"19\": {\"O\": 1}}" n_minim_iter=6 energy=-22574.90142981728 stress="-0.019615125301322117 2.1556580725675115e-15 2.2225495359120222e-13 2.1556580725675115e-15 -0.01960655625625346 -3.1072033469591433e-13 2.2225495359120222e-13 -3.1072033469591433e-13 -0.01962979990382272" free_energy=-22574.90142981728 pbc="T T T"
In       1.37925381       2.99382949       0.91503071        0      -0.00699671       0.00200751      -0.00457547
In       1.39659192       0.16544852       3.06522146        1       0.00699671       0.00200751       0.00457547
In       1.39659192       2.66293245       4.89528288        2       0.00699671      -0.00200751      -0.00457547
In       1.37925381       5.49131342       7.04547362        3      -0.00699671      -0.00200751       0.00457547
In       4.17243765       2.66293245       7.04547362        4       0.00699671      -0.00200751       0.00457547
In       4.15509953       5.49131342       4.89528288        5      -0.00699671      -0.00200751      -0.00457547
In       4.15509953       2.99382949       3.06522146        6      -0.00699671       0.00200751       0.00457547
In       4.17243765       0.16544852       0.91503071        7       0.00699671       0.00200751      -0.00457547
O        2.16593093       3.42090034       6.76587966        8       0.00141519      -0.00137110       0.00417485
O        0.60991480       0.59251937       5.17487685        9      -0.00141519      -0.00137110      -0.00417485
O        0.60991480       2.23586160       2.78562749       10      -0.00141519       0.00137110       0.00417485
O        2.16593093       5.06424257       1.19462468       11       0.00141519       0.00137110      -0.00417485
O        3.38576053       2.23586160       1.19462468       12      -0.00141519       0.00137110      -0.00417485
O        4.94177665       5.06424257       2.78562749       13       0.00141519       0.00137110       0.00417485
O        4.94177665       3.42090034       5.17487685       14       0.00141519      -0.00137110      -0.00417485
O        3.38576053       0.59251937       6.76587966       15      -0.00141519      -0.00137110       0.00417485
O        5.32000267       4.24257145      -0.00000000       16      -0.00408898      -0.00000000       0.00000000
O        3.00753451       1.41419048       3.98025217       17       0.00408898       0.00000000      -0.00000000
O        0.23168878       1.41419048      -0.00000000       18       0.00408898       0.00000000       0.00000000
O        2.54415694       4.24257145       3.98025217       19      -0.00408898      -0.00000000      -0.00000000
