20
Lattice="5.467897347178526 -2.856367865122995e-59 9.049379944938875e-44 -2.857964388633837e-59 5.499871016877699 9.6517616981477e-18 -3.4140925576404556e-43 1.2987784126972247e-17 7.673594454944266" Properties=species:S:1:pos:R:3:spacegroup_kinds:I:1:forces:R:3 spacegroup="P 1" unit_cell=conventional occupancy="_JSON {\"0\": {\"In\": 1}, \"1\": {\"In\": 1}, \"2\": {\"In\": 1}, \"3\": {\"In\": 1}, \"4\": {\"In\": 1}, \"5\": {\"In\": 1}, \"6\": {\"In\": 1}, \"7\": {\"In\": 1}, \"8\": {\"O\": 1}, \"9\": {\"O\": 1}, \"10\": {\"O\": 1}, \"11\": {\"O\": 1}, \"12\": {\"O\": 1}, \"13\": {\"O\": 1}, \"14\": {\"O\": 1}, \"15\": {\"O\": 1}, \"16\": {\"O\": 1}, \"17\": {\"O\": 1}, \"18\": {\"O\": 1}, \"19\": {\"O\": 1}}" n_minim_iter=11 energy=-22573.804538023258 stress="-0.10139005974873395 3.1000608147194145e-13 4.202754091526617e-13 3.1000608147194145e-13 -0.10120872817527446 -1.7964405227713308e-13 4.202754091526617e-13 -1.7964405227713308e-13 -0.10113050480571101" free_energy=-22573.804538023258 pbc="T T T"
In       1.35897918       2.92170909       0.91722964        0       0.00150088       0.00161292      -0.00163737
In       1.37496950       0.17177358       2.91956758        1      -0.00150088       0.00161292       0.00163737
In       1.37496950       2.57816193       4.75402687        2      -0.00150088      -0.00161292      -0.00163737
In       1.35897918       5.32809744       6.75636481        3       0.00150088      -0.00161292       0.00163737
In       4.10891817       2.57816193       6.75636481        4      -0.00150088      -0.00161292       0.00163737
In       4.09292785       5.32809744       4.75402687        5       0.00150088      -0.00161292      -0.00163737
In       4.09292785       2.92170909       2.91956758        6       0.00150088       0.00161292       0.00163737
In       4.10891817       0.17177358       0.91722964        7      -0.00150088       0.00161292      -0.00163737
O        2.13235240       3.31638131       6.55713838        8      -0.00516340       0.00217353       0.00350360
O        0.60159628       0.56644580       4.95325331        9       0.00516340       0.00217353      -0.00350360
O        0.60159628       2.18348971       2.72034115       10       0.00516340      -0.00217353       0.00350360
O        2.13235240       4.93342522       1.11645608       11      -0.00516340      -0.00217353      -0.00350360
O        3.33554495       2.18348971       1.11645608       12       0.00516340      -0.00217353      -0.00350360
O        4.86630107       4.93342522       2.72034115       13      -0.00516340      -0.00217353       0.00350360
O        4.86630107       3.31638131       4.95325331       14      -0.00516340       0.00217353      -0.00350360
O        3.33554495       0.56644580       6.55713838       15       0.00516340       0.00217353       0.00350360
O        5.23655697       4.12490326       0.00000000       16      -0.00779274       0.00000000       0.00000000
O        2.96528905       1.37496775       3.83679723       17       0.00779274       0.00000000       0.00000000
O        0.23134038       1.37496775       0.00000000       18       0.00779274       0.00000000      -0.00000000
O        2.50260830       4.12490326       3.83679723       19      -0.00779274      -0.00000000      -0.00000000
