20
Lattice="5.69251200752195 -6.079748694844346e-62 -3.6625890568755014e-45 1.769259596632614e-61 5.738741068367174 -1.9169986722385245e-17 -5.941137947294748e-44 2.131803154876519e-18 8.241341391473453" Properties=species:S:1:pos:R:3:spacegroup_kinds:I:1:forces:R:3 spacegroup="P 1" unit_cell=conventional occupancy="_JSON {\"0\": {\"In\": 1}, \"1\": {\"In\": 1}, \"2\": {\"In\": 1}, \"3\": {\"In\": 1}, \"4\": {\"In\": 1}, \"5\": {\"In\": 1}, \"6\": {\"In\": 1}, \"7\": {\"In\": 1}, \"8\": {\"O\": 1}, \"9\": {\"O\": 1}, \"10\": {\"O\": 1}, \"11\": {\"O\": 1}, \"12\": {\"O\": 1}, \"13\": {\"O\": 1}, \"14\": {\"O\": 1}, \"15\": {\"O\": 1}, \"16\": {\"O\": 1}, \"17\": {\"O\": 1}, \"18\": {\"O\": 1}, \"19\": {\"O\": 1}}" n_minim_iter=5 energy=-22574.718376990393 stress="0.036457875110598795 -5.346722365952119e-13 -1.407746324008389e-13 -5.346722365952119e-13 0.036541469022498545 -2.085789922146473e-15 -1.407746324008389e-13 -2.085789922146473e-15 0.036347698430890966" free_energy=-22574.718376990393 pbc="T T T"
In       1.41098331       3.02136198       0.94799615        0      -0.00578009       0.00437450      -0.00296351
In       1.43527270       0.15199145       3.17267455        1       0.00578009       0.00437450       0.00296351
In       1.43527270       2.71737909       5.06866685        2       0.00578009      -0.00437450      -0.00296351
In       1.41098331       5.58674962       7.29334524        3      -0.00578009      -0.00437450       0.00296351
In       4.28152870       2.71737909       7.29334524        4       0.00578009      -0.00437450       0.00296351
In       4.25723931       5.58674962       5.06866685        5      -0.00578009      -0.00437450      -0.00296351
In       4.25723931       3.02136198       3.17267455        6      -0.00578009       0.00437450       0.00296351
In       4.28152870       0.15199145       0.94799615        7       0.00578009       0.00437450      -0.00296351
O        2.22251885       3.45697200       6.99721343        8      -0.00483352      -0.00383182      -0.00127301
O        0.62373716       0.58760147       5.36479866        9       0.00483352      -0.00383182       0.00127301
O        0.62373716       2.28176906       2.87654273       10       0.00483352       0.00383182      -0.00127301
O        2.22251885       5.15113960       1.24412796       11      -0.00483352       0.00383182       0.00127301
O        3.46999316       2.28176906       1.24412796       12       0.00483352       0.00383182       0.00127301
O        5.06877485       5.15113960       2.87654273       13      -0.00483352       0.00383182      -0.00127301
O        5.06877485       3.45697200       5.36479866       14      -0.00483352      -0.00383182       0.00127301
O        3.46999316       0.58760147       6.99721343       15       0.00483352      -0.00383182      -0.00127301
O        5.44755960       4.30405580      -0.00000000       16       0.00191389       0.00000000      -0.00000000
O        3.09120842       1.43468527       4.12067070       17      -0.00191389      -0.00000000      -0.00000000
O        0.24495241       1.43468527      -0.00000000       18      -0.00191389       0.00000000      -0.00000000
O        2.60130359       4.30405580       4.12067070       19       0.00191389      -0.00000000       0.00000000
