20
Lattice="5.588475450192051 -1.827526842430462e-62 -5.0328537206869444e-45 9.243992481108083e-63 5.678473361723051 -1.0355119138294037e-17 7.27654486057095e-45 1.4734240618730582e-17 8.079867719654581" Properties=species:S:1:pos:R:3:spacegroup_kinds:I:1:forces:R:3 spacegroup="P 1" unit_cell=conventional occupancy="_JSON {\"0\": {\"In\": 1}, \"1\": {\"In\": 1}, \"2\": {\"In\": 1}, \"3\": {\"In\": 1}, \"4\": {\"In\": 1}, \"5\": {\"In\": 1}, \"6\": {\"In\": 1}, \"7\": {\"In\": 1}, \"8\": {\"O\": 1}, \"9\": {\"O\": 1}, \"10\": {\"O\": 1}, \"11\": {\"O\": 1}, \"12\": {\"O\": 1}, \"13\": {\"O\": 1}, \"14\": {\"O\": 1}, \"15\": {\"O\": 1}, \"16\": {\"O\": 1}, \"17\": {\"O\": 1}, \"18\": {\"O\": 1}, \"19\": {\"O\": 1}}" n_minim_iter=1 energy=-22574.96438490974 stress="0.00016987472902143272 1.1051512322024642e-13 1.0732845482943355e-13 1.1051512322024642e-13 0.00012608939227040994 -2.701357745077457e-13 1.0732845482943355e-13 -2.701357745077457e-13 0.0001111469474362994" free_energy=-22574.96438490974 pbc="T T T"
In       1.38592762       3.00048182       0.92655080        0       0.00172867      -0.00476206      -0.00193244
In       1.40831011       0.16124514       3.11338306        1      -0.00172867      -0.00476206       0.00193244
In       1.40831011       2.67799154       4.96648466        2      -0.00172867       0.00476206      -0.00193244
In       1.38592762       5.51722822       7.15331692        3       0.00172867       0.00476206       0.00193244
In       4.20254783       2.67799154       7.15331692        4      -0.00172867       0.00476206       0.00193244
In       4.18016534       5.51722822       4.96648466        5       0.00172867       0.00476206      -0.00193244
In       4.18016534       3.00048182       3.11338306        6       0.00172867      -0.00476206       0.00193244
In       4.20254783       0.16124514       0.92655080        7      -0.00172867      -0.00476206      -0.00193244
O        2.18098691       3.43034355       6.86241286        8      -0.00113069       0.00009971       0.00240535
O        0.61325081       0.59110687       5.25738872        9       0.00113069       0.00009971      -0.00240535
O        0.61325081       2.24812981       2.82247900       10       0.00113069      -0.00009971       0.00240535
O        2.18098691       5.08736649       1.21745486       11      -0.00113069      -0.00009971      -0.00240535
O        3.40748854       2.24812981       1.21745486       12       0.00113069      -0.00009971      -0.00240535
O        4.97522464       5.08736649       2.82247900       13      -0.00113069      -0.00009971       0.00240535
O        4.97522464       3.43034355       5.25738872       14      -0.00113069       0.00009971      -0.00240535
O        3.40748854       0.59110687       6.86241286       15       0.00113069       0.00009971       0.00240535
O        5.35596390       4.25885502      -0.00000000       16       0.00279206      -0.00000000       0.00000000
O        3.02674927       1.41961834       4.03993386       17      -0.00279206      -0.00000000      -0.00000000
O        0.23251155       1.41961834      -0.00000000       18      -0.00279206      -0.00000000      -0.00000000
O        2.56172618       4.25885502       4.03993386       19       0.00279206       0.00000000      -0.00000000
