20
Lattice="5.784771838268747 -2.3410723475546712e-60 -2.226047017211417e-43 1.011769216120056e-60 5.811463822143512 -1.8209299263148864e-17 3.7679237116318916e-43 2.3112490861155492e-17 8.389770931572682" Properties=species:S:1:pos:R:3:spacegroup_kinds:I:1:forces:R:3 spacegroup="P 1" unit_cell=conventional occupancy="_JSON {\"0\": {\"In\": 1}, \"1\": {\"In\": 1}, \"2\": {\"In\": 1}, \"3\": {\"In\": 1}, \"4\": {\"In\": 1}, \"5\": {\"In\": 1}, \"6\": {\"In\": 1}, \"7\": {\"In\": 1}, \"8\": {\"O\": 1}, \"9\": {\"O\": 1}, \"10\": {\"O\": 1}, \"11\": {\"O\": 1}, \"12\": {\"O\": 1}, \"13\": {\"O\": 1}, \"14\": {\"O\": 1}, \"15\": {\"O\": 1}, \"16\": {\"O\": 1}, \"17\": {\"O\": 1}, \"18\": {\"O\": 1}, \"19\": {\"O\": 1}}" n_minim_iter=7 energy=-22574.07883160494 stress="0.061280607637954225 -7.933382519951476e-14 -2.2664219453405013e-13 -7.933382519951476e-14 0.061151844594820925 -2.9089267947977206e-13 -2.2664219453405013e-13 -2.9089267947977206e-13 0.06119798478379275" free_energy=-22574.07883160494 pbc="T T T"
In       1.42824892       3.06822920       0.97476495        0      -0.00234566      -0.00192307       0.00429650
In       1.46413700       0.16249729       3.22012051        1       0.00234566      -0.00192307      -0.00429650
In       1.46413700       2.74323463       5.16965042        2       0.00234566       0.00192307       0.00429650
In       1.42824892       5.64896654       7.41500598        3      -0.00234566       0.00192307      -0.00429650
In       4.35652291       2.74323463       7.41500598        4       0.00234566       0.00192307      -0.00429650
In       4.32063484       5.64896654       5.16965042        5      -0.00234566       0.00192307       0.00429650
In       4.32063484       3.06822920       3.22012051        6      -0.00234566      -0.00192307      -0.00429650
In       4.35652291       0.16249729       0.97476495        7       0.00234566      -0.00192307       0.00429650
O        2.25884074       3.47640096       7.12225424        8       0.00486772      -0.00076505       0.00116132
O        0.63354518       0.57066905       5.46240216        9      -0.00486772      -0.00076505      -0.00116132
O        0.63354518       2.33506287       2.92736877       10      -0.00486772       0.00076505       0.00116132
O        2.25884074       5.24079478       1.26751670       11       0.00486772       0.00076505      -0.00116132
O        3.52593110       2.33506287       1.26751670       12      -0.00486772       0.00076505      -0.00116132
O        5.15122666       5.24079478       2.92736877       13       0.00486772       0.00076505       0.00116132
O        5.15122666       3.47640096       5.46240216       14       0.00486772      -0.00076505      -0.00116132
O        3.52593110       0.57066905       7.12225424       15      -0.00486772      -0.00076505       0.00116132
O        5.50981575       4.35859787       0.00000000       16       0.00937228      -0.00000000       0.00000000
O        3.16734200       1.45286596       4.19488547       17      -0.00937228      -0.00000000      -0.00000000
O        0.27495608       1.45286596       0.00000000       18      -0.00937228      -0.00000000       0.00000000
O        2.61742984       4.35859787       4.19488547       19       0.00937228      -0.00000000       0.00000000
