20
Lattice="5.768674360987897 7.206307328037491e-58 -1.2252105234540111e-44 -7.701302958981704e-58 5.987397283684601 -1.0441340323975035e-14 1.1825269546914424e-44 9.709447768918535e-15 5.5677067688536495" Properties=species:S:1:pos:R:3:spacegroup_kinds:I:1:forces:R:3 spacegroup="P 1" unit_cell=conventional occupancy="_JSON {\"0\": {\"In\": 1}, \"1\": {\"In\": 1}, \"2\": {\"In\": 1}, \"3\": {\"In\": 1}, \"4\": {\"In\": 1}, \"5\": {\"In\": 1}, \"6\": {\"In\": 1}, \"7\": {\"In\": 1}, \"8\": {\"O\": 1}, \"9\": {\"O\": 1}, \"10\": {\"O\": 1}, \"11\": {\"O\": 1}, \"12\": {\"O\": 1}, \"13\": {\"O\": 1}, \"14\": {\"O\": 1}, \"15\": {\"O\": 1}, \"16\": {\"O\": 1}, \"17\": {\"O\": 1}, \"18\": {\"O\": 1}, \"19\": {\"O\": 1}}" n_minim_iter=1 energy=-22574.696081614224 stress="-0.16065351656065896 1.663561196397509e-13 -4.895067099597868e-13 1.663561196397509e-13 -0.177746716473499 -9.350171269121267e-13 -4.895067099597868e-13 -9.350171269121267e-13 -0.1309491403710256" free_energy=-22574.696081614224 pbc="T T T"
In       1.49532895       3.33580001       0.61234417        0       0.11895270      -0.03251722      -0.00456260
In       1.38900823       0.34210137       2.17150922        1      -0.11895270      -0.03251722       0.00456260
In       1.38900823       2.65159728       3.39619755        2      -0.11895270       0.03251722      -0.00456260
In       1.49532895       5.64529592       4.95536260        3       0.11895270       0.03251722       0.00456260
In       4.27334541       2.65159728       4.95536260        4      -0.11895270       0.03251722       0.00456260
In       4.37966613       5.64529592       3.39619755        5       0.11895270       0.03251722      -0.00456260
In       4.37966613       3.33580001       2.17150922        6       0.11895270      -0.03251722       0.00456260
In       4.27334541       0.34210137       0.61234417        7      -0.11895270      -0.03251722      -0.00456260
O        2.80968286       3.98627776       4.29936898        8      -0.11689034       0.19175148       0.37891389
O        0.07465432       0.99257912       4.05219117        9       0.11689034       0.19175148      -0.37891389
O        0.07465432       2.00111952       1.51551560       10       0.11689034      -0.19175148       0.37891389
O        2.80968286       4.99481816       1.26833779       11      -0.11689034      -0.19175148      -0.37891389
O        2.95899150       2.00111952       1.26833779       12       0.11689034      -0.19175148      -0.37891389
O        5.69402004       4.99481816       1.51551560       13      -0.11689034      -0.19175148       0.37891389
O        5.69402004       3.98627776       4.05219117       14      -0.11689034       0.19175148      -0.37891389
O        2.95899150       0.99257912       4.29936898       15       0.11689034       0.19175148       0.37891389
O        5.45094523       4.49054796      -0.00000000       16       0.13655855      -0.00000000       0.00000000
O        3.20206631       1.49684932       2.78385338       17      -0.13655855      -0.00000000       0.00000000
O        0.31772913       1.49684932      -0.00000000       18      -0.13655855      -0.00000000      -0.00000000
O        2.56660805       4.49054796       2.78385338       19       0.13655855       0.00000000      -0.00000000
20
Lattice="5.7784439647531896 7.2455649984989e-58 -1.2348782276904382e-44 -7.73878802916449e-58 6.038945891066073 -1.0591925126832246e-14 1.1633856007349322e-44 9.558887477388379e-15 5.510847712987825" Properties=species:S:1:pos:R:3:spacegroup_kinds:I:1:forces:R:3 spacegroup="P 1" unit_cell=conventional occupancy="_JSON {\"0\": {\"In\": 1}, \"1\": {\"In\": 1}, \"2\": {\"In\": 1}, \"3\": {\"In\": 1}, \"4\": {\"In\": 1}, \"5\": {\"In\": 1}, \"6\": {\"In\": 1}, \"7\": {\"In\": 1}, \"8\": {\"O\": 1}, \"9\": {\"O\": 1}, \"10\": {\"O\": 1}, \"11\": {\"O\": 1}, \"12\": {\"O\": 1}, \"13\": {\"O\": 1}, \"14\": {\"O\": 1}, \"15\": {\"O\": 1}, \"16\": {\"O\": 1}, \"17\": {\"O\": 1}, \"18\": {\"O\": 1}, \"19\": {\"O\": 1}}" n_minim_iter=2 energy=-22574.74404937758 stress="-0.1492403851302692 -1.0234988274827622e-12 -3.1760135533798865e-13 -1.0234988274827622e-12 -0.13880679814123456 -2.3006211294470464e-13 -3.1760135533798865e-13 -2.3006211294470464e-13 -0.14041451035692695" free_energy=-22574.74404937758 pbc="T T T"
In       1.49811079       3.36445099       0.60608127        0       0.16984364       0.01619435      -0.00831091
In       1.39111119       0.34497804       2.14934258        1      -0.16984364       0.01619435       0.00831091
In       1.39111119       2.67449490       3.36150513        2      -0.16984364      -0.01619435      -0.00831091
In       1.49811079       5.69396785       4.90476644        3       0.16984364      -0.01619435       0.00831091
In       4.28033317       2.67449490       4.90476644        4      -0.16984364      -0.01619435       0.00831091
In       4.38733278       5.69396785       3.36150513        5       0.16984364      -0.01619435      -0.00831091
In       4.38733278       3.36445099       2.14934258        6       0.16984364       0.01619435       0.00831091
In       4.28033317       0.34497804       0.60608127        7      -0.16984364       0.01619435      -0.00831091
O        2.81419614       4.02100252       4.25624760        8      -0.08915278       0.01401917       0.46542589
O        0.07502584       1.00152958       4.01002397        9       0.08915278       0.01401917      -0.46542589
O        0.07502584       2.01794337       1.50082375       10       0.08915278      -0.01401917       0.46542589
O        2.81419614       5.03741631       1.25460011       11      -0.08915278      -0.01401917      -0.46542589
O        2.96424783       2.01794337       1.25460011       12       0.08915278      -0.01401917      -0.46542589
O        5.70341812       5.03741631       1.50082375       13      -0.08915278      -0.01401917       0.46542589
O        5.70341812       4.02100252       4.01002397       14      -0.08915278       0.01401917      -0.46542589
O        2.96424783       1.00152958       4.25624760       15       0.08915278       0.01401917       0.46542589
O        5.46046306       4.52920942      -0.00000000       16       0.10384160       0.00000000       0.00000000
O        3.20720288       1.50973647       2.75542386       17      -0.10384160      -0.00000000      -0.00000000
O        0.31798090       1.50973647      -0.00000000       18      -0.10384160      -0.00000000       0.00000000
O        2.57124108       4.52920942       2.75542386       19       0.10384160       0.00000000       0.00000000
20
Lattice="5.7953868346138995 6.956525645262015e-58 -2.9893901733343607e-44 -7.723799169459586e-58 6.032174693118595 -1.0590076008989577e-14 2.77829181654353e-45 9.532258194979642e-15 5.500904612523623" Properties=species:S:1:pos:R:3:spacegroup_kinds:I:1:forces:R:3 spacegroup="P 1" unit_cell=conventional occupancy="_JSON {\"0\": {\"In\": 1}, \"1\": {\"In\": 1}, \"2\": {\"In\": 1}, \"3\": {\"In\": 1}, \"4\": {\"In\": 1}, \"5\": {\"In\": 1}, \"6\": {\"In\": 1}, \"7\": {\"In\": 1}, \"8\": {\"O\": 1}, \"9\": {\"O\": 1}, \"10\": {\"O\": 1}, \"11\": {\"O\": 1}, \"12\": {\"O\": 1}, \"13\": {\"O\": 1}, \"14\": {\"O\": 1}, \"15\": {\"O\": 1}, \"16\": {\"O\": 1}, \"17\": {\"O\": 1}, \"18\": {\"O\": 1}, \"19\": {\"O\": 1}}" n_minim_iter=3 energy=-22574.749325403514 stress="-0.13636072755455902 1.6754009150955752e-13 1.5504094745337308e-13 1.6754009150955752e-13 -0.14449296045970572 1.3427494687454352e-12 1.5504094745337308e-13 1.3427494687454352e-12 -0.1438750271483117" free_energy=-22574.749325403514 pbc="T T T"
In       1.50290988       3.36071090       0.60496859        0       0.14039572      -0.02580091       0.01743197
In       1.39478354       0.34462356       2.14548372        1      -0.14039572      -0.02580091      -0.01743197
In       1.39478354       2.67146379       3.35542089        2      -0.14039572       0.02580091       0.01743197
In       1.50290988       5.68755114       4.89593603        3       0.14039572       0.02580091      -0.01743197
In       4.29247695       2.67146379       4.89593603        4      -0.14039572       0.02580091      -0.01743197
In       4.40060330       5.68755114       3.35542089        5       0.14039572       0.02580091       0.01743197
In       4.40060330       3.36071090       2.14548372        6       0.14039572      -0.02580091      -0.01743197
In       4.29247695       0.34462356       0.60496859        7      -0.14039572      -0.02580091       0.01743197
O        2.82222579       4.01655606       4.24965929        8      -0.06281448       0.00147523       0.45084741
O        0.07546763       1.00046871       4.00169763        9       0.06281448       0.00147523      -0.45084741
O        0.07546763       2.01561864       1.49920699       10       0.06281448      -0.00147523       0.45084741
O        2.82222579       5.03170598       1.25124532       11      -0.06281448      -0.00147523      -0.45084741
O        2.97316105       2.01561864       1.25124532       12       0.06281448      -0.00147523      -0.45084741
O        5.71991921       5.03170598       1.49920699       13      -0.06281448      -0.00147523       0.45084741
O        5.71991921       4.01655606       4.00169763       14      -0.06281448       0.00147523      -0.45084740
O        2.97316105       1.00046871       4.24965929       15       0.06281448       0.00147523       0.45084741
O        5.47673200       4.52413102      -0.00000000       16       0.06831551      -0.00000000       0.00000000
O        3.21634825       1.50804367       2.75045231       17      -0.06831551      -0.00000000      -0.00000000
O        0.31865483       1.50804367      -0.00000000       18      -0.06831551       0.00000000      -0.00000000
O        2.57903858       4.52413102       2.75045231       19       0.06831551      -0.00000000       0.00000000
20
Lattice="5.791534166649595 7.09564408418258e-58 -2.1814370999018754e-44 -7.733377182133067e-58 6.042196135105943 -1.0630853738043266e-14 -1.1141029522817285e-45 9.5008653130965e-15 5.495434208612115" Properties=species:S:1:pos:R:3:spacegroup_kinds:I:1:forces:R:3 spacegroup="P 1" unit_cell=conventional occupancy="_JSON {\"0\": {\"In\": 1}, \"1\": {\"In\": 1}, \"2\": {\"In\": 1}, \"3\": {\"In\": 1}, \"4\": {\"In\": 1}, \"5\": {\"In\": 1}, \"6\": {\"In\": 1}, \"7\": {\"In\": 1}, \"8\": {\"O\": 1}, \"9\": {\"O\": 1}, \"10\": {\"O\": 1}, \"11\": {\"O\": 1}, \"12\": {\"O\": 1}, \"13\": {\"O\": 1}, \"14\": {\"O\": 1}, \"15\": {\"O\": 1}, \"16\": {\"O\": 1}, \"17\": {\"O\": 1}, \"18\": {\"O\": 1}, \"19\": {\"O\": 1}}" n_minim_iter=4 energy=-22574.78203942368 stress="-0.13156047592311348 3.6053108797608394e-13 -1.5657155230668578e-13 3.6053108797608394e-13 -0.13332476923029016 -7.274270704629611e-14 -1.5657155230668578e-13 -7.274270704629611e-14 -0.1350566230211934" free_energy=-22574.78203942368 pbc="T T T"
In       1.50590826       3.36607722       0.60452334        0      -0.03299323      -0.03937121      -0.00547201
In       1.38985882       0.34497915       2.14319376        1       0.03299323      -0.03937121       0.00547201
In       1.38985882       2.67611892       3.35224045        2       0.03299323       0.03937121      -0.00547201
In       1.50590826       5.69721699       4.89091087        3      -0.03299323       0.03937121       0.00547201
In       4.28562590       2.67611892       4.89091087        4       0.03299323       0.03937121       0.00547201
In       4.40167535       5.69721699       3.35224045        5      -0.03299323       0.03937121      -0.00547201
In       4.40167535       3.36607722       2.14319376        6      -0.03299323      -0.03937121       0.00547201
In       4.28562590       0.34497915       0.60452334        7       0.03299323      -0.03937121      -0.00547201
O        2.81838499       4.02350040       4.25701533        8      -0.13634368      -0.01914537       0.15610675
O        0.07738209       1.00240233       3.98613598        9       0.13634368      -0.01914537      -0.15610675
O        0.07738209       2.01869574       1.50929823       10       0.13634368       0.01914537       0.15610675
O        2.81838499       5.03979380       1.23841888       11      -0.13634368       0.01914537      -0.15610675
O        2.97314918       2.01869574       1.23841888       12       0.13634368       0.01914537      -0.15610675
O        5.71415207       5.03979380       1.50929823       13      -0.13634368       0.01914537       0.15610675
O        5.71415207       4.02350040       3.98613598       14      -0.13634368      -0.01914537      -0.15610675
O        2.97314918       1.00240233       4.25701533       15       0.13634368      -0.01914537       0.15610675
O        5.47530843       4.53164710      -0.00000000       16       0.13723702      -0.00000000      -0.00000000
O        3.21199282       1.51054903       2.74771710       17      -0.13723702      -0.00000000      -0.00000000
O        0.31622574       1.51054903      -0.00000000       18      -0.13723702      -0.00000000       0.00000000
O        2.57954135       4.53164710       2.74771710       19       0.13723702       0.00000000       0.00000000
20
Lattice="5.787902084910196 7.095498832797509e-58 -2.1813910525140932e-44 -7.729837234848278e-58 6.045164696420334 -1.069033421854098e-14 -8.88336479006304e-45 9.451635669487167e-15 5.496182455957222" Properties=species:S:1:pos:R:3:spacegroup_kinds:I:1:forces:R:3 spacegroup="P 1" unit_cell=conventional occupancy="_JSON {\"0\": {\"In\": 1}, \"1\": {\"In\": 1}, \"2\": {\"In\": 1}, \"3\": {\"In\": 1}, \"4\": {\"In\": 1}, \"5\": {\"In\": 1}, \"6\": {\"In\": 1}, \"7\": {\"In\": 1}, \"8\": {\"O\": 1}, \"9\": {\"O\": 1}, \"10\": {\"O\": 1}, \"11\": {\"O\": 1}, \"12\": {\"O\": 1}, \"13\": {\"O\": 1}, \"14\": {\"O\": 1}, \"15\": {\"O\": 1}, \"16\": {\"O\": 1}, \"17\": {\"O\": 1}, \"18\": {\"O\": 1}, \"19\": {\"O\": 1}}" n_minim_iter=5 energy=-22574.79332411485 stress="-0.1279939866537435 -2.498691651047651e-13 -4.318774557510724e-14 -2.498691651047651e-13 -0.12849669493914884 5.725807771803292e-13 -4.318774557510724e-14 5.725807771803292e-13 -0.12882163033566055" free_energy=-22574.79332411485 pbc="T T T"
In       1.50583549       3.36687678       0.60447186        0      -0.08529822      -0.04579459      -0.01698864
In       1.38811555       0.34429443       2.14361937        1       0.08529822      -0.04579459       0.01698864
In       1.38811555       2.67828792       3.35256309        2       0.08529822       0.04579459      -0.01698864
In       1.50583549       5.70087027       4.89171060        3      -0.08529822       0.04579459       0.01698864
In       4.28206659       2.67828792       4.89171060        4       0.08529822       0.04579459       0.01698864
In       4.39978654       5.70087027       3.35256309        5      -0.08529822       0.04579459      -0.01698864
In       4.39978654       3.36687678       2.14361937        6      -0.08529822      -0.04579459       0.01698864
In       4.28206659       0.34429443       0.60447186        7       0.08529822      -0.04579459      -0.01698864
O        2.81278100       4.02535424       4.26532844        8      -0.13460852      -0.02107593       0.00139962
O        0.08117004       1.00277189       3.97894524        9       0.13460852      -0.02107593      -0.00139962
O        0.08117004       2.01981046       1.51723722       10       0.13460852       0.02107593       0.00139962
O        2.81278100       5.04239281       1.23085401       11      -0.13460852       0.02107593      -0.00139962
O        2.97512108       2.01981046       1.23085401       12       0.13460852       0.02107593      -0.00139962
O        5.70673204       5.04239281       1.51723722       13      -0.13460852       0.02107593       0.00139962
O        5.70673204       4.02535424       3.97894524       14      -0.13460852      -0.02107593      -0.00139962
O        2.97512108       1.00277189       4.26532844       15       0.13460852      -0.02107593       0.00139962
O        5.47586213       4.53387352      -0.00000000       16       0.13727955       0.00000000       0.00000000
O        3.20599099       1.51129117       2.74809123       17      -0.13727955       0.00000000       0.00000000
O        0.31203995       1.51129117      -0.00000000       18      -0.13727955       0.00000000      -0.00000000
O        2.58191109       4.53387352       2.74809123       19       0.13727955      -0.00000000      -0.00000000
20
Lattice="5.784152788215267 7.093645034170892e-58 -2.181892054829395e-44 -7.731598014976666e-58 6.047357981799089 -1.0700881785261718e-14 -6.932992977555483e-45 9.448108854533938e-15 5.497750415385805" Properties=species:S:1:pos:R:3:spacegroup_kinds:I:1:forces:R:3 spacegroup="P 1" unit_cell=conventional occupancy="_JSON {\"0\": {\"In\": 1}, \"1\": {\"In\": 1}, \"2\": {\"In\": 1}, \"3\": {\"In\": 1}, \"4\": {\"In\": 1}, \"5\": {\"In\": 1}, \"6\": {\"In\": 1}, \"7\": {\"In\": 1}, \"8\": {\"O\": 1}, \"9\": {\"O\": 1}, \"10\": {\"O\": 1}, \"11\": {\"O\": 1}, \"12\": {\"O\": 1}, \"13\": {\"O\": 1}, \"14\": {\"O\": 1}, \"15\": {\"O\": 1}, \"16\": {\"O\": 1}, \"17\": {\"O\": 1}, \"18\": {\"O\": 1}, \"19\": {\"O\": 1}}" n_minim_iter=6 energy=-22574.7999163425 stress="-0.1254299489670882 3.600963369135031e-13 -1.2624484736324222e-13 3.600963369135031e-13 -0.12479107613755132 3.598034626388959e-13 -1.2624484736324222e-13 3.598034626388959e-13 -0.12486404376777391" free_energy=-22574.7999163425 pbc="T T T"
In       1.50399683       3.36668532       0.60422330        0      -0.06325280      -0.03519435      -0.02365781
In       1.38807956       0.34300633       2.14465190        1       0.06325280      -0.03519435       0.02365781
In       1.38807956       2.68067266       3.35309851        2       0.06325280       0.03519435      -0.02365781
In       1.50399683       5.70435165       4.89352711        3      -0.06325280       0.03519435       0.02365781
In       4.28015595       2.68067266       4.89352711        4       0.06325280       0.03519435       0.02365781
In       4.39607323       5.70435165       3.35309851        5      -0.06325280       0.03519435      -0.02365781
In       4.39607323       3.36668532       2.14465190        6      -0.06325280      -0.03519435       0.02365781
In       4.28015595       0.34300633       0.60422330        7       0.06325280      -0.03519435      -0.02365781
O        2.80599336       4.02635851       4.27172342        8      -0.08784368      -0.01824258      -0.06383242
O        0.08608304       1.00267952       3.97490220        9       0.08784368      -0.01824258       0.06383242
O        0.08608304       2.02099947       1.52284821       10       0.08784368       0.01824258      -0.06383242
O        2.80599336       5.04467846       1.22602699       11      -0.08784368       0.01824258       0.06383242
O        2.97815943       2.02099947       1.22602699       12       0.08784368       0.01824258       0.06383242
O        5.69806975       5.04467846       1.52284821       13      -0.08784368       0.01824258      -0.06383242
O        5.69806975       4.02635851       3.97490220       14      -0.08784368      -0.01824258       0.06383242
O        2.97815943       1.00267952       4.27172342       15       0.08784368      -0.01824258      -0.06383242
O        5.47745585       4.53551849      -0.00000000       16       0.09024815       0.00000000       0.00000000
O        3.19877333       1.51183950       2.74887521       17      -0.09024815      -0.00000000       0.00000000
O        0.30669694       1.51183950      -0.00000000       18      -0.09024815      -0.00000000       0.00000000
O        2.58537946       4.53551849       2.74887521       19       0.09024815       0.00000000       0.00000000
20
Lattice="5.781787357218067 7.095753470261243e-58 -2.1825540102825518e-44 -7.728255962760165e-58 6.047547291560797 -1.0748158228278152e-14 -6.928513124841722e-45 9.408128829559926e-15 5.4998274722987714" Properties=species:S:1:pos:R:3:spacegroup_kinds:I:1:forces:R:3 spacegroup="P 1" unit_cell=conventional occupancy="_JSON {\"0\": {\"In\": 1}, \"1\": {\"In\": 1}, \"2\": {\"In\": 1}, \"3\": {\"In\": 1}, \"4\": {\"In\": 1}, \"5\": {\"In\": 1}, \"6\": {\"In\": 1}, \"7\": {\"In\": 1}, \"8\": {\"O\": 1}, \"9\": {\"O\": 1}, \"10\": {\"O\": 1}, \"11\": {\"O\": 1}, \"12\": {\"O\": 1}, \"13\": {\"O\": 1}, \"14\": {\"O\": 1}, \"15\": {\"O\": 1}, \"16\": {\"O\": 1}, \"17\": {\"O\": 1}, \"18\": {\"O\": 1}, \"19\": {\"O\": 1}}" n_minim_iter=7 energy=-22574.802848326377 stress="-0.12432499068900059 5.739177401636725e-13 9.26017326458967e-13 5.739177401636725e-13 -0.12368827365945877 4.22477274508184e-13 9.26017326458967e-13 4.22477274508184e-13 -0.12352611963666525" free_energy=-22574.802848326377 pbc="T T T"
In       1.50197393       3.36541208       0.60381657        0      -0.00601358      -0.01638379      -0.02557050
In       1.38891975       0.34163844       2.14609717        1       0.00601358      -0.01638379       0.02557050
In       1.38891975       2.68213521       3.35373031        2       0.00601358       0.01638379      -0.02557050
In       1.50197393       5.70590885       4.89601090        3      -0.00601358       0.01638379       0.02557050
In       4.27981343       2.68213521       4.89601090        4       0.00601358       0.01638379       0.02557050
In       4.39286761       5.70590885       3.35373031        5      -0.00601358       0.01638379      -0.02557050
In       4.39286761       3.36541208       2.14609717        6      -0.00601358      -0.01638379       0.02557050
In       4.27981343       0.34163844       0.60381657        7       0.00601358      -0.01638379      -0.02557050
O        2.80082812       4.02590597       4.27499567        8      -0.02985556      -0.00834575      -0.05217631
O        0.09006556       1.00213233       3.97474553        9       0.02985556      -0.00834575       0.05217631
O        0.09006556       2.02164132       1.52508194       10       0.02985556       0.00834575      -0.05217631
O        2.80082812       5.04541496       1.22483180       11      -0.02985556       0.00834575       0.05217631
O        2.98095924       2.02164132       1.22483180       12       0.02985556       0.00834575       0.05217631
O        5.69172180       5.04541496       1.52508194       13      -0.02985556       0.00834575      -0.05217631
O        5.69172180       4.02590597       3.97474553       14      -0.02985556      -0.00834575       0.05217631
O        2.98095924       1.00213233       4.27499567       15       0.02985556      -0.00834575      -0.05217631
O        5.47936165       4.53566047      -0.00000000       16       0.02969338       0.00000000      -0.00000000
O        3.19331938       1.51188682       2.74991374       17      -0.02969338       0.00000000      -0.00000000
O        0.30242570       1.51188682      -0.00000000       18      -0.02969338       0.00000000       0.00000000
O        2.58846798       4.53566047       2.74991374       19       0.02969338       0.00000000      -0.00000000
20
Lattice="5.781510739685149 7.094767681008725e-58 -2.2074228190104515e-44 -7.723577267218877e-58 6.047124343487265 -1.0742309142986013e-14 -7.165709266334602e-45 9.414048505275018e-15 5.500475300070691" Properties=species:S:1:pos:R:3:spacegroup_kinds:I:1:forces:R:3 spacegroup="P 1" unit_cell=conventional occupancy="_JSON {\"0\": {\"In\": 1}, \"1\": {\"In\": 1}, \"2\": {\"In\": 1}, \"3\": {\"In\": 1}, \"4\": {\"In\": 1}, \"5\": {\"In\": 1}, \"6\": {\"In\": 1}, \"7\": {\"In\": 1}, \"8\": {\"O\": 1}, \"9\": {\"O\": 1}, \"10\": {\"O\": 1}, \"11\": {\"O\": 1}, \"12\": {\"O\": 1}, \"13\": {\"O\": 1}, \"14\": {\"O\": 1}, \"15\": {\"O\": 1}, \"16\": {\"O\": 1}, \"17\": {\"O\": 1}, \"18\": {\"O\": 1}, \"19\": {\"O\": 1}}" n_minim_iter=8 energy=-22574.80345486114 stress="-0.12431219412005391 -3.125593851820415e-14 -3.909177080933916e-13 -3.125593851820415e-14 -0.12414760334885341 2.673524944562389e-13 -3.909177080933916e-13 2.673524944562389e-13 -0.12402227479219344" free_energy=-22574.80345486114 pbc="T T T"
In       1.50152777       3.36464938       0.60335784        0       0.02311160      -0.00655746      -0.02386657
In       1.38922760       0.34108721       2.14687981        1      -0.02311160      -0.00655746       0.02386657
In       1.38922760       2.68247496       3.35359549        2      -0.02311160       0.00655746      -0.02386657
In       1.50152777       5.70603714       4.89711746        3       0.02311160       0.00655746       0.02386657
In       4.27998297       2.68247496       4.89711746        4      -0.02311160       0.00655746       0.02386657
In       4.39228314       5.70603714       3.35359549        5       0.02311160       0.00655746      -0.02386657
In       4.39228314       3.36464938       2.14687981        6       0.02311160      -0.00655746       0.02386657
In       4.27998297       0.34108721       0.60335784        7      -0.02311160      -0.00655746      -0.02386657
O        2.79960433       4.02535572       4.27469603        8      -0.00739011      -0.00226633      -0.02057793
O        0.09115104       1.00179355       3.97601692        9       0.00739011      -0.00226633       0.02057793
O        0.09115104       2.02176862       1.52445838       10       0.00739011       0.00226633      -0.02057793
O        2.79960433       5.04533079       1.22577927       11      -0.00739011       0.00226633       0.02057793
O        2.98190641       2.02176862       1.22577927       12       0.00739011       0.00226633       0.02057793
O        5.69035969       5.04533079       1.52445838       13      -0.00739011       0.00226633      -0.02057793
O        5.69035969       4.02535572       3.97601692       14      -0.00739011      -0.00226633       0.02057793
O        2.98190641       1.00179355       4.27469603       15       0.00739011      -0.00226633      -0.02057793
O        5.48019276       4.53534326      -0.00000000       16       0.00606312      -0.00000000      -0.00000000
O        3.19207335       1.51178109       2.75023765       17      -0.00606312      -0.00000000      -0.00000000
O        0.30131798       1.51178109      -0.00000000       18      -0.00606312       0.00000000      -0.00000000
O        2.58943739       4.53534326       2.75023765       19       0.00606312      -0.00000000      -0.00000000
20
Lattice="5.781278011147077 7.105462819810956e-58 -2.2080880278527878e-44 -7.716544057019355e-58 6.046941264586206 -1.0865784470518924e-14 -7.231056021623379e-45 9.299630442857662e-15 5.500863265387743" Properties=species:S:1:pos:R:3:spacegroup_kinds:I:1:forces:R:3 spacegroup="P 1" unit_cell=conventional occupancy="_JSON {\"0\": {\"In\": 1}, \"1\": {\"In\": 1}, \"2\": {\"In\": 1}, \"3\": {\"In\": 1}, \"4\": {\"In\": 1}, \"5\": {\"In\": 1}, \"6\": {\"In\": 1}, \"7\": {\"In\": 1}, \"8\": {\"O\": 1}, \"9\": {\"O\": 1}, \"10\": {\"O\": 1}, \"11\": {\"O\": 1}, \"12\": {\"O\": 1}, \"13\": {\"O\": 1}, \"14\": {\"O\": 1}, \"15\": {\"O\": 1}, \"16\": {\"O\": 1}, \"17\": {\"O\": 1}, \"18\": {\"O\": 1}, \"19\": {\"O\": 1}}" n_minim_iter=9 energy=-22574.803835462248 stress="-0.12437283199666921 -2.4039856207362317e-13 -8.963750655880869e-13 -2.4039856207362317e-13 -0.12489185453508027 -1.9978961245291059e-13 -8.963750655880869e-13 -1.9978961245291059e-13 -0.12500430409965876" free_energy=-22574.803835462248 pbc="T T T"
In       1.50209893       3.36394314       0.60209528        0       0.04269584       0.00217317      -0.01824391
In       1.38854008       0.34047251       2.14833635        1      -0.04269584       0.00217317       0.01824391
In       1.38854008       2.68299812       3.35252691        2      -0.04269584      -0.00217317      -0.01824391
In       1.50209893       5.70646876       4.89876798        3       0.04269584      -0.00217317       0.01824391
In       4.27917908       2.68299812       4.89876798        4      -0.04269584      -0.00217317       0.01824391
In       4.39273793       5.70646876       3.35252691        5       0.04269584      -0.00217317      -0.01824391
In       4.39273793       3.36394314       2.14833635        6       0.04269584       0.00217317       0.01824391
In       4.27917908       0.34047251       0.60209528        7      -0.04269584       0.00217317      -0.01824391
O        2.79864378       4.02493741       4.27322080        8       0.00868524       0.00407788       0.02089718
O        0.09199522       1.00146678       3.97807410        9      -0.00868524       0.00407788      -0.02089718
O        0.09199522       2.02200385       1.52278917       10      -0.00868524      -0.00407788       0.02089718
O        2.79864378       5.04547448       1.22764246       11       0.00868524      -0.00407788      -0.02089718
O        2.98263423       2.02200385       1.22764246       12      -0.00868524      -0.00407788      -0.02089718
O        5.68928279       5.04547448       1.52278917       13       0.00868524      -0.00407788       0.02089718
O        5.68928279       4.02493741       3.97807410       14       0.00868524       0.00407788      -0.02089718
O        2.98263423       1.00146678       4.27322080       15      -0.00868524       0.00407788       0.02089718
O        5.48074989       4.53520595      -0.00000000       16      -0.01174062       0.00000000      -0.00000000
O        3.19116713       1.51173532       2.75043163       17       0.01174062      -0.00000000       0.00000000
O        0.30052812       1.51173532      -0.00000000       18       0.01174062       0.00000000      -0.00000000
O        2.59011089       4.53520595       2.75043163       19      -0.01174062      -0.00000000       0.00000000
20