20
Lattice="5.493241900831369 -2.273255640187138e-59 2.5297732700204433e-43 -1.819225696101269e-60 5.010419483377826 4.897398980060106e-16 -3.432173563425076e-43 -7.284634484643747e-16 7.45274679472757" Properties=species:S:1:pos:R:3:spacegroup_kinds:I:1:forces:R:3 spacegroup="P 1" unit_cell=conventional occupancy="_JSON {\"0\": {\"In\": 1}, \"1\": {\"In\": 1}, \"2\": {\"In\": 1}, \"3\": {\"In\": 1}, \"4\": {\"In\": 1}, \"5\": {\"In\": 1}, \"6\": {\"In\": 1}, \"7\": {\"In\": 1}, \"8\": {\"O\": 1}, \"9\": {\"O\": 1}, \"10\": {\"O\": 1}, \"11\": {\"O\": 1}, \"12\": {\"O\": 1}, \"13\": {\"O\": 1}, \"14\": {\"O\": 1}, \"15\": {\"O\": 1}, \"16\": {\"O\": 1}, \"17\": {\"O\": 1}, \"18\": {\"O\": 1}, \"19\": {\"O\": 1}}" n_minim_iter=1 energy=-22568.375835088253 stress="-0.4038141822134595 -5.021650591729757e-14 2.9894944599639594e-13 -5.021650591729757e-14 -0.3932532587598333 9.541394039679477e-13 2.9894944599639594e-13 9.541394039679477e-13 -0.3917709353406361" free_energy=-22568.375835088253 pbc="T T T"
In       1.38544481       2.59684567       0.89853200        0      -0.01322071       0.23975693      -0.07163475
In       1.36117614       0.09163592       2.82784140        1       0.01322071       0.23975693       0.07163475
In       1.36117614       2.41357382       4.62490540        2       0.01322071      -0.23975693      -0.07163475
In       1.38544481       4.91878356       6.55421479        3      -0.01322071      -0.23975693       0.07163475
In       4.10779709       2.41357382       6.55421479        4       0.01322071      -0.23975693       0.07163475
In       4.13206576       4.91878356       4.62490540        5      -0.01322071      -0.23975693      -0.07163475
In       4.13206576       2.59684567       2.82784140        6      -0.01322071       0.23975693       0.07163475
In       4.10779709       0.09163592       0.89853200        7       0.01322071       0.23975693      -0.07163475
O        2.14414672       2.97771904       6.38708387        8       0.11519651       0.03361328       0.02156170
O        0.60247423       0.47250930       4.79203632        9      -0.11519651       0.03361328      -0.02156170
O        0.60247423       2.03270044       2.66071048       10      -0.11519651      -0.03361328       0.02156170
O        2.14414672       4.53791018       1.06566292       11       0.11519651      -0.03361328      -0.02156170
O        3.34909518       2.03270044       1.06566292       12      -0.11519651      -0.03361328      -0.02156170
O        4.89076767       4.53791018       2.66071048       13       0.11519651      -0.03361328       0.02156170
O        4.89076767       2.97771904       4.79203632       14       0.11519651       0.03361328      -0.02156170
O        3.34909518       0.47250930       6.38708387       15      -0.11519651       0.03361328       0.02156170
O        5.32065960       3.75781461       0.00000000       16       0.02615497       0.00000000       0.00000000
O        2.91920325       1.25260487       3.72637340       17      -0.02615497       0.00000000      -0.00000000
O        0.17258230       1.25260487       0.00000000       18      -0.02615497      -0.00000000       0.00000000
O        2.57403865       3.75781461       3.72637340       19       0.02615497      -0.00000000      -0.00000000
20
Lattice="5.514496592448107 -2.577164846914723e-59 2.5088262550015533e-43 -4.7506763541660625e-60 5.0026542433723735 4.883118458478753e-16 -3.4042193577529987e-43 -7.27731072743748e-16 7.435545190820996" Properties=species:S:1:pos:R:3:spacegroup_kinds:I:1:forces:R:3 spacegroup="P 1" unit_cell=conventional occupancy="_JSON {\"0\": {\"In\": 1}, \"1\": {\"In\": 1}, \"2\": {\"In\": 1}, \"3\": {\"In\": 1}, \"4\": {\"In\": 1}, \"5\": {\"In\": 1}, \"6\": {\"In\": 1}, \"7\": {\"In\": 1}, \"8\": {\"O\": 1}, \"9\": {\"O\": 1}, \"10\": {\"O\": 1}, \"11\": {\"O\": 1}, \"12\": {\"O\": 1}, \"13\": {\"O\": 1}, \"14\": {\"O\": 1}, \"15\": {\"O\": 1}, \"16\": {\"O\": 1}, \"17\": {\"O\": 1}, \"18\": {\"O\": 1}, \"19\": {\"O\": 1}}" n_minim_iter=2 energy=-22568.381089376766 stress="-0.393207158264415 -4.516190386492018e-13 -1.4168636189460637e-14 -4.516190386492018e-13 -0.3942561391415854 5.3009187975429236e-14 -1.4168636189460637e-14 5.3009187975429236e-14 -0.39567774370183595" free_energy=-22568.381089376766 pbc="T T T"
In       1.39077227       2.59341916       0.89627953        0       0.04276210       0.18908102      -0.08146219
In       1.36647603       0.09209204       2.82149306        1      -0.04276210       0.18908102       0.08146219
In       1.36647603       2.40923508       4.61405213        2      -0.04276210      -0.18908102      -0.08146219
In       1.39077227       4.91056221       6.53926566        3       0.04276210      -0.18908102       0.08146219
In       4.12372432       2.40923508       6.53926566        4      -0.04276210      -0.18908102       0.08146219
In       4.14802057       4.91056221       4.61405213        5       0.04276210      -0.18908102      -0.08146219
In       4.14802057       2.59341916       2.82149306        6       0.04276210       0.18908102       0.08146219
In       4.12372432       0.09209204       0.89627953        7      -0.04276210       0.18908102      -0.08146219
O        2.15273189       2.97318797       6.37239567        8       0.17480737      -0.00141364       0.01260005
O        0.60451640       0.47186085       4.78092212        9      -0.17480737      -0.00141364      -0.01260005
O        0.60451640       2.02946627       2.65462307       10      -0.17480737       0.00141364       0.01260005
O        2.15273189       4.53079339       1.06314952       11       0.17480737       0.00141364      -0.01260005
O        3.36176470       2.02946627       1.06314952       12      -0.17480737       0.00141364      -0.01260005
O        4.90998019       4.53079339       2.65462307       13       0.17480737       0.00141364       0.01260005
O        4.90998019       2.97318797       4.78092212       14       0.17480737      -0.00141364      -0.01260005
O        3.36176470       0.47186085       6.37239567       15      -0.17480737      -0.00141364       0.01260005
O        5.34131214       3.75199068       0.00000000       16       0.02587572       0.00000000      -0.00000000
O        2.93043275       1.25066356       3.71777260       17      -0.02587572       0.00000000      -0.00000000
O        0.17318446       1.25066356       0.00000000       18      -0.02587572       0.00000000       0.00000000
O        2.58406384       3.75199068       3.71777260       19       0.02587572      -0.00000000      -0.00000000
20
Lattice="5.517076720108712 -2.602011320361214e-59 2.508551573337854e-43 -4.920977802890008e-60 4.993060196709964 4.870861074526484e-16 -3.414291713001797e-43 -7.292102201615323e-16 7.446348410190592" Properties=species:S:1:pos:R:3:spacegroup_kinds:I:1:forces:R:3 spacegroup="P 1" unit_cell=conventional occupancy="_JSON {\"0\": {\"In\": 1}, \"1\": {\"In\": 1}, \"2\": {\"In\": 1}, \"3\": {\"In\": 1}, \"4\": {\"In\": 1}, \"5\": {\"In\": 1}, \"6\": {\"In\": 1}, \"7\": {\"In\": 1}, \"8\": {\"O\": 1}, \"9\": {\"O\": 1}, \"10\": {\"O\": 1}, \"11\": {\"O\": 1}, \"12\": {\"O\": 1}, \"13\": {\"O\": 1}, \"14\": {\"O\": 1}, \"15\": {\"O\": 1}, \"16\": {\"O\": 1}, \"17\": {\"O\": 1}, \"18\": {\"O\": 1}, \"19\": {\"O\": 1}}" n_minim_iter=3 energy=-22568.38667413065 stress="-0.39106670321400155 1.2741246941881447e-13 3.6590273387190394e-13 1.2741246941881447e-13 -0.3963140556148367 -8.389437379281433e-13 3.6590273387190394e-13 -8.389437379281433e-13 -0.38845450857211833" free_energy=-22568.38667413065 pbc="T T T"
In       1.39200098       2.59171297       0.89625064        0      -0.04194832       0.07173942       0.00894118
In       1.36653738       0.09518287       2.82692357        1       0.04194832       0.07173942      -0.00894118
In       1.36653738       2.40134722       4.61942484        2       0.04194832      -0.07173942       0.00894118
In       1.39200098       4.89787732       6.55009777        3      -0.04194832      -0.07173942      -0.00894118
In       4.12507574       2.40134722       6.55009777        4       0.04194832      -0.07173942      -0.00894118
In       4.15053934       4.89787732       4.61942484        5      -0.04194832      -0.07173942       0.00894118
In       4.15053934       2.59171297       2.82692357        6      -0.04194832       0.07173942      -0.00894118
In       4.12507574       0.09518287       0.89625064        7       0.04194832       0.07173942       0.00894118
O        2.15652862       2.96755017       6.38188640        8       0.11048065      -0.07316090      -0.10499913
O        0.60200974       0.47102007       4.78763622        9      -0.11048065      -0.07316090       0.10499913
O        0.60200974       2.02551003       2.65871219       10      -0.11048065       0.07316090      -0.10499913
O        2.15652862       4.52204013       1.06446201       11       0.11048065       0.07316090       0.10499913
O        3.36054810       2.02551003       1.06446201       12      -0.11048065       0.07316090       0.10499913
O        4.91506698       4.52204013       2.65871219       13       0.11048065       0.07316090      -0.10499913
O        4.91506698       2.96755017       4.78763622       14       0.11048065      -0.07316090       0.10499913
O        3.36054810       0.47102007       6.38188640       15      -0.11048065      -0.07316090      -0.10499913
O        5.34424710       3.74479515       0.00000000       16      -0.01991139       0.00000000       0.00000000
O        2.93136798       1.24826505       3.72317421       17       0.01991139       0.00000000      -0.00000000
O        0.17282962       1.24826505       0.00000000       18       0.01991139      -0.00000000       0.00000000
O        2.58570874       3.74479515       3.72317421       19      -0.01991139       0.00000000      -0.00000000
20
Lattice="5.513131161913567 -3.042603701848443e-59 2.6989282155423667e-43 -6.083610958103229e-60 5.016691693854355 4.960921734576312e-16 -3.466552156628192e-43 -7.164941599148032e-16 7.416575827577579" Properties=species:S:1:pos:R:3:spacegroup_kinds:I:1:forces:R:3 spacegroup="P 1" unit_cell=conventional occupancy="_JSON {\"0\": {\"In\": 1}, \"1\": {\"In\": 1}, \"2\": {\"In\": 1}, \"3\": {\"In\": 1}, \"4\": {\"In\": 1}, \"5\": {\"In\": 1}, \"6\": {\"In\": 1}, \"7\": {\"In\": 1}, \"8\": {\"O\": 1}, \"9\": {\"O\": 1}, \"10\": {\"O\": 1}, \"11\": {\"O\": 1}, \"12\": {\"O\": 1}, \"13\": {\"O\": 1}, \"14\": {\"O\": 1}, \"15\": {\"O\": 1}, \"16\": {\"O\": 1}, \"17\": {\"O\": 1}, \"18\": {\"O\": 1}, \"19\": {\"O\": 1}}" n_minim_iter=4 energy=-22568.3947618045 stress="-0.38971368374421866 -1.0622711070779729e-13 4.713702260524183e-13 -1.0622711070779729e-13 -0.38895570385943184 4.604059601074422e-13 4.713702260524183e-13 4.604059601074422e-13 -0.3908676660699973" free_energy=-22568.3947618045 pbc="T T T"
In       1.39150117       2.60947234       0.89077205        0      -0.14813911       0.04799852       0.05961517
In       1.36506441       0.10112649       2.81751587        1       0.14813911       0.04799852      -0.05961517
In       1.36506441       2.40721935       4.59905996        2       0.14813911      -0.04799852       0.05961517
In       1.39150117       4.91556520       6.52580378        3      -0.14813911      -0.04799852      -0.05961517
In       4.12162999       2.40721935       6.52580378        4       0.14813911      -0.04799852      -0.05961517
In       4.14806675       4.91556520       4.59905996        5      -0.14813911      -0.04799852       0.05961517
In       4.14806675       2.60947234       2.81751587        6      -0.14813911       0.04799852      -0.05961517
In       4.12162999       0.10112649       0.89077205        7       0.14813911       0.04799852       0.05961517
O        2.16007346       2.98107302       6.35582706        8       0.02784651       0.00803734      -0.14236925
O        0.59649212       0.47272717       4.76903668        9      -0.02784651       0.00803734       0.14236925
O        0.59649212       2.03561867       2.64753914       10      -0.02784651      -0.00803734      -0.14236925
O        2.16007346       4.54396452       1.06074877       11       0.02784651      -0.00803734       0.14236925
O        3.35305770       2.03561867       1.06074877       12      -0.02784651      -0.00803734       0.14236925
O        4.91663904       4.54396452       2.64753914       13       0.02784651      -0.00803734      -0.14236925
O        4.91663904       2.98107302       4.76903668       14       0.02784651       0.00803734       0.14236925
O        3.35305770       0.47272717       6.35582706       15      -0.02784651       0.00803734      -0.14236925
O        5.34090222       3.76251877       0.00000000       16      -0.11087282      -0.00000000      -0.00000000
O        2.92879452       1.25417292       3.70828791       17       0.11087282       0.00000000       0.00000000
O        0.17222894       1.25417292       0.00000000       18       0.11087282       0.00000000      -0.00000000
O        2.58433664       3.76251877       3.70828791       19      -0.11087282       0.00000000      -0.00000000
20
Lattice="5.509062900390561 -4.473411554095906e-59 3.180388673515457e-43 -8.720904368251779e-60 5.02001831875896 4.984819263130732e-16 -2.9742386998256755e-43 -7.134760566197005e-16 7.41713433905202" Properties=species:S:1:pos:R:3:spacegroup_kinds:I:1:forces:R:3 spacegroup="P 1" unit_cell=conventional occupancy="_JSON {\"0\": {\"In\": 1}, \"1\": {\"In\": 1}, \"2\": {\"In\": 1}, \"3\": {\"In\": 1}, \"4\": {\"In\": 1}, \"5\": {\"In\": 1}, \"6\": {\"In\": 1}, \"7\": {\"In\": 1}, \"8\": {\"O\": 1}, \"9\": {\"O\": 1}, \"10\": {\"O\": 1}, \"11\": {\"O\": 1}, \"12\": {\"O\": 1}, \"13\": {\"O\": 1}, \"14\": {\"O\": 1}, \"15\": {\"O\": 1}, \"16\": {\"O\": 1}, \"17\": {\"O\": 1}, \"18\": {\"O\": 1}, \"19\": {\"O\": 1}}" n_minim_iter=5 energy=-22568.403531577205 stress="-0.38560660354372805 -9.080550990173467e-13 3.009516921794487e-13 -9.080550990173467e-13 -0.3863237217812144 -6.481582904645239e-13 3.009516921794487e-13 -6.481582904645239e-13 -0.3847907942171242" free_energy=-22568.403531577205 pbc="T T T"
In       1.38602937       2.61961232       0.89051750        0      -0.07800213      -0.01708079       0.01418675
In       1.36850208       0.10960316       2.81804967        1       0.07800213      -0.01708079      -0.01418675
In       1.36850208       2.40040600       4.59908467        2       0.07800213       0.01708079       0.01418675
In       1.38602937       4.91041516       6.52661684        3      -0.07800213       0.01708079      -0.01418675
In       4.12303353       2.40040600       6.52661684        4       0.07800213       0.01708079      -0.01418675
In       4.14056082       4.91041516       4.59908467        5      -0.07800213       0.01708079       0.01418675
In       4.14056082       2.61961232       2.81804967        6      -0.07800213      -0.01708079      -0.01418675
In       4.12303353       0.10960316       0.89051750        7       0.07800213      -0.01708079       0.01418675
O        2.16570250       2.98259328       6.35081978        8      -0.01163778       0.03082554       0.04083532
O        0.58882895       0.47258412       4.77488173        9       0.01163778       0.03082554      -0.04083532
O        0.58882895       2.03742504       2.64225261       10       0.01163778      -0.03082554       0.04083532
O        2.16570250       4.54743420       1.06631456       11      -0.01163778      -0.03082554      -0.04083532
O        3.34336040       2.03742504       1.06631456       12       0.01163778      -0.03082554      -0.04083532
O        4.92023395       4.54743420       2.64225261       13      -0.01163778      -0.03082554       0.04083532
O        4.92023395       2.98259328       4.77488173       14      -0.01163778       0.03082554      -0.04083532
O        3.34336040       0.47258412       6.35081978       15       0.01163778       0.03082554       0.04083532
O        5.33381219       3.76501374       0.00000000       16      -0.08243911       0.00000000      -0.00000000
O        2.92978216       1.25500458       3.70856717       17       0.08243911      -0.00000000       0.00000000
O        0.17525071       1.25500458       0.00000000       18       0.08243911      -0.00000000      -0.00000000
O        2.57928074       3.76501374       3.70856717       19      -0.08243911       0.00000000       0.00000000
20
Lattice="5.5029087970841495 -3.504914193473164e-59 2.9401870513039982e-43 -1.5548521946785345e-59 5.030233050561524 5.040945598266862e-16 -3.4559940431115736e-43 -7.058733098937914e-16 7.4103506112418955" Properties=species:S:1:pos:R:3:spacegroup_kinds:I:1:forces:R:3 spacegroup="P 1" unit_cell=conventional occupancy="_JSON {\"0\": {\"In\": 1}, \"1\": {\"In\": 1}, \"2\": {\"In\": 1}, \"3\": {\"In\": 1}, \"4\": {\"In\": 1}, \"5\": {\"In\": 1}, \"6\": {\"In\": 1}, \"7\": {\"In\": 1}, \"8\": {\"O\": 1}, \"9\": {\"O\": 1}, \"10\": {\"O\": 1}, \"11\": {\"O\": 1}, \"12\": {\"O\": 1}, \"13\": {\"O\": 1}, \"14\": {\"O\": 1}, \"15\": {\"O\": 1}, \"16\": {\"O\": 1}, \"17\": {\"O\": 1}, \"18\": {\"O\": 1}, \"19\": {\"O\": 1}}" n_minim_iter=6 energy=-22568.405864418735 stress="-0.38573010962930787 -5.501487682685467e-14 -1.7644060743088812e-14 -5.501487682685467e-14 -0.3849040222474411 -2.5456967029931863e-13 -1.7644060743088812e-14 -2.5456967029931863e-13 -0.3870139484690173" free_energy=-22568.405864418735 pbc="T T T"
In       1.38077076       2.62525118       0.89025983        0       0.03834381       0.05195861       0.01624479
In       1.37068364       0.11013466       2.81491547        1      -0.03834381       0.05195861      -0.01624479
In       1.37068364       2.40498187       4.59543514        2      -0.03834381      -0.05195861       0.01624479
In       1.38077076       4.92009839       6.52009078        3       0.03834381      -0.05195861      -0.01624479
In       4.12213803       2.40498187       6.52009078        4      -0.03834381      -0.05195861      -0.01624479
In       4.13222516       4.92009839       4.59543514        5       0.03834381      -0.05195861       0.01624479
In       4.13222516       2.62525118       2.81491547        6       0.03834381       0.05195861      -0.01624479
In       4.12213803       0.11013466       0.89025983        7      -0.03834381       0.05195861       0.01624479
O        2.16351922       2.99010667       6.34593283        8       0.02032735       0.06495857       0.07497416
O        0.58793518       0.47499015       4.76959309        9      -0.02032735       0.06495857      -0.07497416
O        0.58793518       2.04012638       2.64075752       10      -0.02032735      -0.06495857       0.07497416
O        2.16351922       4.55524290       1.06441779       11       0.02032735      -0.06495857      -0.07497416
O        3.33938958       2.04012638       1.06441779       12      -0.02032735      -0.06495857      -0.07497416
O        4.91497361       4.55524290       2.64075752       13       0.02032735      -0.06495857       0.07497416
O        4.91497361       2.99010667       4.76959309       14       0.02032735       0.06495857      -0.07497416
O        3.33938958       0.47499015       6.34593283       15      -0.02032735       0.06495857       0.07497416
O        5.32407338       3.77267479       0.00000000       16      -0.01081216      -0.00000000       0.00000000
O        2.93028981       1.25755826       3.70517531       17       0.01081216       0.00000000       0.00000000
O        0.17883541       1.25755826       0.00000000       18       0.01081216       0.00000000       0.00000000
O        2.57261898       3.77267479       3.70517531       19      -0.01081216      -0.00000000       0.00000000
20
Lattice="5.493641924670749 -2.8536563350065395e-59 2.6090911525048334e-43 -1.9777997540804982e-59 5.043004586911454 5.426286650285822e-16 -3.0796731438858047e-43 -6.496933396091475e-16 7.404052100110772" Properties=species:S:1:pos:R:3:spacegroup_kinds:I:1:forces:R:3 spacegroup="P 1" unit_cell=conventional occupancy="_JSON {\"0\": {\"In\": 1}, \"1\": {\"In\": 1}, \"2\": {\"In\": 1}, \"3\": {\"In\": 1}, \"4\": {\"In\": 1}, \"5\": {\"In\": 1}, \"6\": {\"In\": 1}, \"7\": {\"In\": 1}, \"8\": {\"O\": 1}, \"9\": {\"O\": 1}, \"10\": {\"O\": 1}, \"11\": {\"O\": 1}, \"12\": {\"O\": 1}, \"13\": {\"O\": 1}, \"14\": {\"O\": 1}, \"15\": {\"O\": 1}, \"16\": {\"O\": 1}, \"17\": {\"O\": 1}, \"18\": {\"O\": 1}, \"19\": {\"O\": 1}}" n_minim_iter=7 energy=-22568.40889063737 stress="-0.3837397317930615 1.795474362552451e-13 3.2465533755366055e-13 1.795474362552451e-13 -0.38480584817196367 -1.4150324813837253e-12 3.2465533755366055e-13 -1.4150324813837253e-12 -0.38316006877713865" free_energy=-22568.40889063737 pbc="T T T"
In       1.37504234       2.63716723       0.89109377        0       0.03543977      -0.00004953       0.10398160
In       1.37177862       0.11566494       2.81093228        1      -0.03543977      -0.00004953      -0.10398160
In       1.37177862       2.40583736       4.59311982        2      -0.03543977       0.00004953       0.10398160
In       1.37504234       4.92733965       6.51295833        3       0.03543977       0.00004953      -0.10398160
In       4.11859958       2.40583736       6.51295833        4      -0.03543977       0.00004953      -0.10398160
In       4.12186330       4.92733965       4.59311982        5       0.03543977       0.00004953       0.10398160
In       4.12186330       2.63716723       2.81093228        6       0.03543977      -0.00004953      -0.10398160
In       4.11859958       0.11566494       0.89109377        7      -0.03543977      -0.00004953       0.10398160
O        2.16340874       3.00227328       6.34423242        8      -0.01592370       0.01919555      -0.05325264
O        0.58341222       0.48077099       4.76184573        9       0.01592370       0.01919555       0.05325264
O        0.58341222       2.04073130       2.64220637       10       0.01592370      -0.01919555      -0.05325264
O        2.16340874       4.56223360       1.05981968       11      -0.01592370      -0.01919555       0.05325264
O        3.33023318       2.04073130       1.05981968       12       0.01592370      -0.01919555       0.05325264
O        4.91022971       4.56223360       2.64220637       13      -0.01592370      -0.01919555      -0.05325264
O        4.91022971       3.00227328       4.76184573       14      -0.01592370       0.01919555       0.05325264
O        3.33023318       0.48077099       6.34423242       15       0.01592370       0.01919555      -0.05325264
O        5.30931445       3.78225344       0.00000000       16      -0.00975677       0.00000000       0.00000000
O        2.93114844       1.26075115       3.70202605       17       0.00975677       0.00000000      -0.00000000
O        0.18432748       1.26075115       0.00000000       18       0.00975677      -0.00000000      -0.00000000
O        2.56249348       3.78225344       3.70202605       19      -0.00975677       0.00000000      -0.00000000
20
Lattice="5.483688822916462 -2.774021111054997e-59 2.549287743577065e-43 -1.7807691853796558e-59 5.057718841494561 5.874760692940954e-16 -2.7432168158629368e-43 -5.838866127553399e-16 7.395911272437556" Properties=species:S:1:pos:R:3:spacegroup_kinds:I:1:forces:R:3 spacegroup="P 1" unit_cell=conventional occupancy="_JSON {\"0\": {\"In\": 1}, \"1\": {\"In\": 1}, \"2\": {\"In\": 1}, \"3\": {\"In\": 1}, \"4\": {\"In\": 1}, \"5\": {\"In\": 1}, \"6\": {\"In\": 1}, \"7\": {\"In\": 1}, \"8\": {\"O\": 1}, \"9\": {\"O\": 1}, \"10\": {\"O\": 1}, \"11\": {\"O\": 1}, \"12\": {\"O\": 1}, \"13\": {\"O\": 1}, \"14\": {\"O\": 1}, \"15\": {\"O\": 1}, \"16\": {\"O\": 1}, \"17\": {\"O\": 1}, \"18\": {\"O\": 1}, \"19\": {\"O\": 1}}" n_minim_iter=8 energy=-22568.41135425222 stress="-0.38464333850039584 3.3254436761637135e-13 8.148295508994006e-13 3.3254436761637135e-13 -0.38359787413544183 -4.900833114967519e-13 8.148295508994006e-13 -4.900833114967519e-13 -0.3835488749180391" free_energy=-22568.41135425222 pbc="T T T"
In       1.37179064       2.64782077       0.89534504        0       0.00315721       0.00872257      -0.00324751
In       1.37005377       0.11896135       2.80261060        1      -0.00315721       0.00872257       0.00324751
In       1.37005377       2.40989807       4.59330068        2      -0.00315721      -0.00872257      -0.00324751
In       1.37179064       4.93875749       6.50056623        3       0.00315721      -0.00872257       0.00324751
In       4.11189819       2.40989807       6.50056623        4      -0.00315721      -0.00872257       0.00324751
In       4.11363505       4.93875749       4.59330068        5       0.00315721      -0.00872257      -0.00324751
In       4.11363505       2.64782077       2.80261060        6       0.00315721       0.00872257       0.00324751
In       4.11189819       0.11896135       0.89534504        7      -0.00315721       0.00872257      -0.00324751
O        2.16033522       3.01584009       6.33898816        8      -0.01186338       0.00193760      -0.00538789
O        0.58150919       0.48698067       4.75487875        9       0.01186338       0.00193760       0.00538789
O        0.58150919       2.04187875       2.64103252       10       0.01186338      -0.00193760      -0.00538789
O        2.16033522       4.57073817       1.05692311       11      -0.01186338      -0.00193760       0.00538789
O        3.32335360       2.04187875       1.05692311       12       0.01186338      -0.00193760       0.00538789
O        4.90217963       4.57073817       2.64103252       13      -0.01186338      -0.00193760      -0.00538789
O        4.90217963       3.01584009       4.75487875       14      -0.01186338       0.00193760       0.00538789
O        3.32335360       0.48698067       6.33898816       15       0.01186338       0.00193760      -0.00538789
O        5.29513814       3.79328913       0.00000000       16      -0.01679679       0.00000000      -0.00000000
O        2.93039510       1.26442971       3.69795564       17       0.01679679      -0.00000000      -0.00000000
O        0.18855068       1.26442971       0.00000000       18       0.01679679       0.00000000      -0.00000000
O        2.55329373       3.79328913       3.69795564       19      -0.01679679      -0.00000000      -0.00000000
20
Lattice="5.485726344661829 -2.7304255018827756e-59 2.551782571540296e-43 -1.684334024680542e-59 5.0563278181031555 5.802291311210475e-16 -2.760941124344029e-43 -5.944210508167911e-16 7.395198165044441" Properties=species:S:1:pos:R:3:spacegroup_kinds:I:1:forces:R:3 spacegroup="P 1" unit_cell=conventional occupancy="_JSON {\"0\": {\"In\": 1}, \"1\": {\"In\": 1}, \"2\": {\"In\": 1}, \"3\": {\"In\": 1}, \"4\": {\"In\": 1}, \"5\": {\"In\": 1}, \"6\": {\"In\": 1}, \"7\": {\"In\": 1}, \"8\": {\"O\": 1}, \"9\": {\"O\": 1}, \"10\": {\"O\": 1}, \"11\": {\"O\": 1}, \"12\": {\"O\": 1}, \"13\": {\"O\": 1}, \"14\": {\"O\": 1}, \"15\": {\"O\": 1}, \"16\": {\"O\": 1}, \"17\": {\"O\": 1}, \"18\": {\"O\": 1}, \"19\": {\"O\": 1}}" n_minim_iter=9 energy=-22568.41142014804 stress="-0.38376556979275867 -1.528945592035532e-13 7.896611540624662e-14 -1.528945592035532e-13 -0.38385842667689607 4.407892048595228e-13 7.896611540624662e-14 4.407892048595228e-13 -0.38378574015019634" free_energy=-22568.41142014804 pbc="T T T"
In       1.37253401       2.64705684       0.89515881        0       0.00486526       0.00305541      -0.00475798
In       1.37032916       0.11889293       2.80244027        1      -0.00486526       0.00305541       0.00475798
In       1.37032916       2.40927098       4.59275789        2      -0.00486526      -0.00305541      -0.00475798
In       1.37253401       4.93743488       6.50003936        3       0.00486526      -0.00305541       0.00475798
In       4.11319233       2.40927098       6.50003936        4      -0.00486526      -0.00305541       0.00475798
In       4.11539719       4.93743488       4.59275789        5       0.00486526      -0.00305541      -0.00475798
In       4.11539719       2.64705684       2.80244027        6       0.00486526       0.00305541       0.00475798
In       4.11319233       0.11889293       0.89515881        7      -0.00486526       0.00305541      -0.00475798
O        2.16096625       3.01487367       6.33820455        8      -0.00518043      -0.00153727      -0.00182031
O        0.58189692       0.48670976       4.75459270        9       0.00518043      -0.00153727       0.00182031
O        0.58189692       2.04145415       2.64060547       10       0.00518043       0.00153727      -0.00182031
O        2.16096625       4.56961805       1.05699362       11      -0.00518043       0.00153727       0.00182031
O        3.32476009       2.04145415       1.05699362       12       0.00518043       0.00153727       0.00182031
O        4.90382942       4.56961805       2.64060547       13      -0.00518043       0.00153727      -0.00182031
O        4.90382942       3.01487367       4.75459270       14      -0.00518043      -0.00153727       0.00182031
O        3.32476009       0.48670976       6.33820455       15       0.00518043      -0.00153727      -0.00182031
O        5.29705643       3.79224586       0.00000000       16      -0.01314347      -0.00000000      -0.00000000
O        2.93153309       1.26408195       3.69759908       17       0.01314347       0.00000000      -0.00000000
O        0.18866992       1.26408195       0.00000000       18       0.01314347       0.00000000       0.00000000
O        2.55419325       3.79224586       3.69759908       19      -0.01314347      -0.00000000       0.00000000
20