20
Lattice="5.838790155909135 -2.866629290990404e-60 -5.237485307653412e-43 1.5720912568744604e-60 5.910823799767616 -1.4825873921060508e-17 7.664010682572688e-43 2.1430309346000552e-17 8.543899886993072" Properties=species:S:1:pos:R:3:spacegroup_kinds:I:1:forces:R:3 spacegroup="P 1" unit_cell=conventional occupancy="_JSON {\"0\": {\"In\": 1}, \"1\": {\"In\": 1}, \"2\": {\"In\": 1}, \"3\": {\"In\": 1}, \"4\": {\"In\": 1}, \"5\": {\"In\": 1}, \"6\": {\"In\": 1}, \"7\": {\"In\": 1}, \"8\": {\"O\": 1}, \"9\": {\"O\": 1}, \"10\": {\"O\": 1}, \"11\": {\"O\": 1}, \"12\": {\"O\": 1}, \"13\": {\"O\": 1}, \"14\": {\"O\": 1}, \"15\": {\"O\": 1}, \"16\": {\"O\": 1}, \"17\": {\"O\": 1}, \"18\": {\"O\": 1}, \"19\": {\"O\": 1}}" n_minim_iter=1 energy=-22573.164125176943 stress="0.08553311382137378 -4.2093285637259155e-13 -1.2167815629016656e-13 -4.2093285637259155e-13 0.0843986961919331 3.957851191777448e-13 -1.2167815629016656e-13 3.957851191777448e-13 0.0805530388258969" free_energy=-22573.164125176943 pbc="T T T"
In       1.43274740       3.13831556       1.00147683        0      -0.01849787       0.01468157       0.01183325
In       1.48664767       0.18290366       3.27047312        1       0.01849787       0.01468157      -0.01183325
In       1.48664767       2.77250824       5.27342677        2       0.01849787      -0.01468157       0.01183325
In       1.43274740       5.72792014       7.54242306        3      -0.01849787      -0.01468157      -0.01183325
In       4.40604275       2.77250824       7.54242306        4       0.01849787      -0.01468157      -0.01183325
In       4.35214248       5.72792014       5.27342677        5      -0.01849787      -0.01468157       0.01183325
In       4.35214248       3.13831556       3.27047312        6      -0.01849787       0.01468157      -0.01183325
In       4.40604275       0.18290366       1.00147683        7       0.01849787       0.01468157       0.01183325
O        2.28308384       3.51463555       7.24963268        8       0.00287092      -0.03642330      -0.01895172
O        0.63631124       0.55922365       5.56621715        9      -0.00287092      -0.03642330       0.01895172
O        0.63631124       2.39618825       2.97768274       10      -0.00287092       0.03642330      -0.01895172
O        2.28308384       5.35160015       1.29426720       11       0.00287092       0.03642330       0.01895172
O        3.55570632       2.39618825       1.29426720       12      -0.00287092       0.03642330       0.01895172
O        5.20247892       5.35160015       2.97768274       13       0.00287092       0.03642330      -0.01895172
O        5.20247892       3.51463555       5.56621715       14       0.00287092      -0.03642330       0.01895172
O        3.55570632       0.55922365       7.24963268       15      -0.00287092      -0.03642330      -0.01895172
O        5.55616980       4.43311785       0.00000000       16      -0.03297852       0.00000000      -0.00000000
O        3.20201543       1.47770595       4.27194994       17       0.03297852       0.00000000      -0.00000000
O        0.28262036       1.47770595       0.00000000       18       0.03297852       0.00000000       0.00000000
O        2.63677472       4.43311785       4.27194994       19      -0.03297852       0.00000000       0.00000000
20
Lattice="5.820105024788812 -8.429046596907335e-61 -5.21124137985478e-43 3.777026629519812e-60 5.902428889855063 -1.297988687929172e-17 7.713121365772037e-43 2.4093672853658018e-17 8.58352044915156" Properties=species:S:1:pos:R:3:spacegroup_kinds:I:1:forces:R:3 spacegroup="P 1" unit_cell=conventional occupancy="_JSON {\"0\": {\"In\": 1}, \"1\": {\"In\": 1}, \"2\": {\"In\": 1}, \"3\": {\"In\": 1}, \"4\": {\"In\": 1}, \"5\": {\"In\": 1}, \"6\": {\"In\": 1}, \"7\": {\"In\": 1}, \"8\": {\"O\": 1}, \"9\": {\"O\": 1}, \"10\": {\"O\": 1}, \"11\": {\"O\": 1}, \"12\": {\"O\": 1}, \"13\": {\"O\": 1}, \"14\": {\"O\": 1}, \"15\": {\"O\": 1}, \"16\": {\"O\": 1}, \"17\": {\"O\": 1}, \"18\": {\"O\": 1}, \"19\": {\"O\": 1}}" n_minim_iter=2 energy=-22573.167284009556 stress="0.08211816099900691 1.5028152830762508e-13 7.628413619720657e-13 1.5028152830762508e-13 0.08219193815776048 1.701286614640564e-14 7.628413619720657e-13 1.701286614640564e-14 0.08226677354067281" free_energy=-22573.167284009556 pbc="T T T"
In       1.42806403       3.13393652       1.00618437        0      -0.03130306       0.01575305       0.03757679
In       1.48198849       0.18272208       3.28557585        1       0.03130306       0.01575305      -0.03757679
In       1.48198849       2.76849237       5.29794460        2       0.03130306      -0.01575305       0.03757679
In       1.42806403       5.71970681       7.57733608        3      -0.03130306      -0.01575305      -0.03757679
In       4.39204100       2.76849237       7.57733608        4       0.03130306      -0.01575305      -0.03757679
In       4.33811654       5.71970681       5.29794460        5      -0.03130306      -0.01575305       0.03757679
In       4.33811654       3.13393652       3.28557585        6      -0.03130306       0.01575305      -0.03757679
In       4.39204100       0.18272208       1.00618437        7       0.03130306       0.01575305       0.03757679
O        2.27579284       3.50944987       7.28314981        8      -0.00861308      -0.03665522      -0.04729658
O        0.63425967       0.55823542       5.59213087        9       0.00861308      -0.03665522       0.04729658
O        0.63425967       2.39297902       2.99138958       10       0.00861308       0.03665522      -0.04729658
O        2.27579284       5.34419347       1.30037064       11      -0.00861308       0.03665522       0.04729658
O        3.54431219       2.39297902       1.30037064       12       0.00861308       0.03665522       0.04729658
O        5.18584535       5.34419347       2.99138958       13      -0.00861308       0.03665522      -0.04729658
O        5.18584535       3.50944987       5.59213087       14      -0.00861308      -0.03665522       0.04729658
O        3.54431219       0.55823542       7.28314981       15       0.00861308      -0.03665522      -0.04729658
O        5.53821378       4.42682167       0.00000000       16      -0.03991496       0.00000000      -0.00000000
O        3.19194376       1.47560722       4.29176022       17       0.03991496      -0.00000000      -0.00000000
O        0.28189125       1.47560722       0.00000000       18       0.03991496      -0.00000000       0.00000000
O        2.62816127       4.42682167       4.29176022       19      -0.03991496       0.00000000       0.00000000
20
Lattice="5.81351696464528 -1.2892318929598847e-60 -5.199287421770028e-43 3.7466819718446055e-60 5.889903034084113 -8.205253518067483e-18 7.747234965225962e-43 3.1005024026033746e-17 8.611522530628285" Properties=species:S:1:pos:R:3:spacegroup_kinds:I:1:forces:R:3 spacegroup="P 1" unit_cell=conventional occupancy="_JSON {\"0\": {\"In\": 1}, \"1\": {\"In\": 1}, \"2\": {\"In\": 1}, \"3\": {\"In\": 1}, \"4\": {\"In\": 1}, \"5\": {\"In\": 1}, \"6\": {\"In\": 1}, \"7\": {\"In\": 1}, \"8\": {\"O\": 1}, \"9\": {\"O\": 1}, \"10\": {\"O\": 1}, \"11\": {\"O\": 1}, \"12\": {\"O\": 1}, \"13\": {\"O\": 1}, \"14\": {\"O\": 1}, \"15\": {\"O\": 1}, \"16\": {\"O\": 1}, \"17\": {\"O\": 1}, \"18\": {\"O\": 1}, \"19\": {\"O\": 1}}" n_minim_iter=3 energy=-22573.172158399888 stress="0.08155290491514174 -4.596145929095844e-13 3.8040484243234914e-13 -4.596145929095844e-13 0.07897814040743009 4.724463704219891e-13 3.8040484243234914e-13 4.724463704219891e-13 0.08043901501344501" free_energy=-22573.172158399888 pbc="T T T"
In       1.42104326       3.13005541       1.01600020        0       0.00846079       0.03027609       0.01530551
In       1.48571522       0.18510389       3.28976106        1      -0.00846079       0.03027609      -0.01530551
In       1.48571522       2.75984763       5.32176147        2      -0.00846079      -0.03027609       0.01530551
In       1.42104326       5.70479915       7.59552233        3       0.00846079      -0.03027609      -0.01530551
In       4.39247370       2.75984763       7.59552233        4      -0.00846079      -0.03027609      -0.01530551
In       4.32780174       5.70479915       5.32176147        5       0.00846079      -0.03027609       0.01530551
In       4.32780174       3.13005541       3.28976106        6       0.00846079       0.03027609      -0.01530551
In       4.39247370       0.18510389       1.01600020        7      -0.00846079       0.03027609       0.01530551
O        2.27179348       3.49553974       7.29865351        8       0.01189260      -0.00951863       0.00639609
O        0.63496500       0.55058822       5.61863029        9      -0.01189260      -0.00951863      -0.00639609
O        0.63496500       2.39436329       2.99289224       10      -0.01189260       0.00951863       0.00639609
O        2.27179348       5.33931481       1.31286902       11       0.01189260       0.00951863      -0.00639609
O        3.54172349       2.39436329       1.31286902       12      -0.01189260       0.00951863      -0.00639609
O        5.17855196       5.33931481       2.99289224       13       0.01189260       0.00951863       0.00639609
O        5.17855196       3.49553974       5.61863029       14       0.01189260      -0.00951863      -0.00639609
O        3.54172349       0.55058822       7.29865351       15      -0.01189260      -0.00951863       0.00639609
O        5.52497858       4.41742728       0.00000000       16       0.02174022       0.00000000       0.00000000
O        3.19529686       1.47247576       4.30576127       17      -0.02174022       0.00000000      -0.00000000
O        0.28853838       1.47247576       0.00000000       18      -0.02174022      -0.00000000       0.00000000
O        2.61822010       4.41742728       4.30576127       19       0.02174022       0.00000000       0.00000000
20
Lattice="5.803375193080139 -1.492522319481334e-60 -5.053339374986609e-43 3.682108353751391e-60 5.89959180188629 -5.712089340989782e-18 8.488043453402268e-43 3.466102753149379e-17 8.612404494360998" Properties=species:S:1:pos:R:3:spacegroup_kinds:I:1:forces:R:3 spacegroup="P 1" unit_cell=conventional occupancy="_JSON {\"0\": {\"In\": 1}, \"1\": {\"In\": 1}, \"2\": {\"In\": 1}, \"3\": {\"In\": 1}, \"4\": {\"In\": 1}, \"5\": {\"In\": 1}, \"6\": {\"In\": 1}, \"7\": {\"In\": 1}, \"8\": {\"O\": 1}, \"9\": {\"O\": 1}, \"10\": {\"O\": 1}, \"11\": {\"O\": 1}, \"12\": {\"O\": 1}, \"13\": {\"O\": 1}, \"14\": {\"O\": 1}, \"15\": {\"O\": 1}, \"16\": {\"O\": 1}, \"17\": {\"O\": 1}, \"18\": {\"O\": 1}, \"19\": {\"O\": 1}}" n_minim_iter=4 energy=-22573.17286397681 stress="0.08013085528844413 -4.4614568633150305e-14 2.493319070392217e-13 -4.4614568633150305e-14 0.08016232850983297 5.082921800624097e-13 2.493319070392217e-13 5.082921800624097e-13 0.07982168239497682" free_energy=-22573.17286397681 pbc="T T T"
In       1.41784021       3.13573894       1.01710562        0       0.00666811       0.03991204       0.00545740
In       1.48384739       0.18594304       3.28909663        1      -0.00666811       0.03991204      -0.00545740
In       1.48384739       2.76385286       5.32330787        2      -0.00666811      -0.03991204       0.00545740
In       1.41784021       5.71364876       7.59529887        3       0.00666811      -0.03991204      -0.00545740
In       4.38553498       2.76385286       7.59529887        4      -0.00666811      -0.03991204      -0.00545740
In       4.31952781       5.71364876       5.32330787        5       0.00666811      -0.03991204       0.00545740
In       4.31952781       3.13573894       3.28909663        6       0.00666811       0.03991204      -0.00545740
In       4.38553498       0.18594304       1.01710562        7      -0.00666811       0.03991204       0.00545740
O        2.26768330       3.50033165       7.29826078        8       0.01393773      -0.00402313       0.01007527
O        0.63400430       0.55053575       5.62034596        9      -0.01393773      -0.00402313      -0.01007527
O        0.63400430       2.39926015       2.99205853       10      -0.01393773       0.00402313       0.01007527
O        2.26768330       5.34905606       1.31414372       11       0.01393773       0.00402313      -0.01007527
O        3.53569189       2.39926015       1.31414372       12      -0.01393773       0.00402313      -0.01007527
O        5.16937090       5.34905606       2.99205853       13       0.01393773       0.00402313       0.01007527
O        5.16937090       3.50033165       5.62034596       14       0.01393773      -0.00402313      -0.01007527
O        3.53569189       0.55053575       7.29826078       15      -0.01393773      -0.00402313       0.01007527
O        5.51445993       4.42469385       0.00000000       16       0.02601935       0.00000000       0.00000000
O        3.19060286       1.47489795       4.30620225       17      -0.02601935       0.00000000      -0.00000000
O        0.28891527       1.47489795       0.00000000       18      -0.02601935      -0.00000000       0.00000000
O        2.61277233       4.42469385       4.30620225       19       0.02601935       0.00000000      -0.00000000
20
Lattice="5.795236645259156 -1.267974642610032e-60 -4.00678958940482e-43 3.6315634050059476e-60 5.8976063825008 -8.685576478088882e-18 9.09906885914995e-43 3.036566448434218e-17 8.627402758734851" Properties=species:S:1:pos:R:3:spacegroup_kinds:I:1:forces:R:3 spacegroup="P 1" unit_cell=conventional occupancy="_JSON {\"0\": {\"In\": 1}, \"1\": {\"In\": 1}, \"2\": {\"In\": 1}, \"3\": {\"In\": 1}, \"4\": {\"In\": 1}, \"5\": {\"In\": 1}, \"6\": {\"In\": 1}, \"7\": {\"In\": 1}, \"8\": {\"O\": 1}, \"9\": {\"O\": 1}, \"10\": {\"O\": 1}, \"11\": {\"O\": 1}, \"12\": {\"O\": 1}, \"13\": {\"O\": 1}, \"14\": {\"O\": 1}, \"15\": {\"O\": 1}, \"16\": {\"O\": 1}, \"17\": {\"O\": 1}, \"18\": {\"O\": 1}, \"19\": {\"O\": 1}}" n_minim_iter=5 energy=-22573.173756962355 stress="0.07874662720383589 -3.1685280097538267e-13 4.555355891780497e-13 -3.1685280097538267e-13 0.07924044116738181 -4.5303509866857627e-13 4.555355891780497e-13 -4.5303509866857627e-13 0.08009721264483448" free_energy=-22573.173756962355 pbc="T T T"
In       1.41580725       3.13790802       1.02003830        0      -0.00772000       0.02657650       0.01322252
In       1.48181107       0.18910483       3.29366308        1       0.00772000       0.02657650      -0.01322252
In       1.48181107       2.75969837       5.33373968        2       0.00772000      -0.02657650       0.01322252
In       1.41580725       5.70850156       7.60736445        3      -0.00772000      -0.02657650      -0.01322252
In       4.37942940       2.75969837       7.60736445        4       0.00772000      -0.02657650      -0.01322252
In       4.31342557       5.70850156       5.33373968        5      -0.00772000      -0.02657650       0.01322252
In       4.31342557       3.13790802       3.29366308        6      -0.00772000       0.02657650      -0.01322252
In       4.37942940       0.18910483       1.02003830        7       0.00772000       0.02657650       0.01322252
O        2.26536120       3.49822175       7.31085599        8       0.00457621      -0.00686435      -0.00174284
O        0.63225712       0.54941855       5.63024814        9      -0.00457621      -0.00686435       0.00174284
O        0.63225712       2.39938464       2.99715461       10      -0.00457621       0.00686435      -0.00174284
O        2.26536120       5.34818783       1.31654676       11       0.00457621       0.00686435       0.00174284
O        3.52987545       2.39938464       1.31654676       12      -0.00457621       0.00686435       0.00174284
O        5.16297952       5.34818783       2.99715461       13       0.00457621       0.00686435      -0.00174284
O        5.16297952       3.49822175       5.63024814       14       0.00457621      -0.00686435       0.00174284
O        3.52987545       0.54941855       7.31085599       15      -0.00457621      -0.00686435      -0.00174284
O        5.50797217       4.42320479       0.00000000       16       0.01095780       0.00000000      -0.00000000
O        3.18488280       1.47440160       4.31370138       17      -0.01095780      -0.00000000       0.00000000
O        0.28726448       1.47440160       0.00000000       18      -0.01095780      -0.00000000      -0.00000000
O        2.61035384       4.42320479       4.31370138       19       0.01095780       0.00000000       0.00000000
20
Lattice="5.791026692402553 -1.2639794150945908e-60 -5.497821573195749e-43 3.697622716790921e-60 5.8979931895271065 -8.69132066818128e-18 8.451242615606062e-43 3.0367656080867825e-17 8.633108475744525" Properties=species:S:1:pos:R:3:spacegroup_kinds:I:1:forces:R:3 spacegroup="P 1" unit_cell=conventional occupancy="_JSON {\"0\": {\"In\": 1}, \"1\": {\"In\": 1}, \"2\": {\"In\": 1}, \"3\": {\"In\": 1}, \"4\": {\"In\": 1}, \"5\": {\"In\": 1}, \"6\": {\"In\": 1}, \"7\": {\"In\": 1}, \"8\": {\"O\": 1}, \"9\": {\"O\": 1}, \"10\": {\"O\": 1}, \"11\": {\"O\": 1}, \"12\": {\"O\": 1}, \"13\": {\"O\": 1}, \"14\": {\"O\": 1}, \"15\": {\"O\": 1}, \"16\": {\"O\": 1}, \"17\": {\"O\": 1}, \"18\": {\"O\": 1}, \"19\": {\"O\": 1}}" n_minim_iter=6 energy=-22573.17491304448 stress="0.07826199003737681 -5.550503468531639e-13 3.011917469266798e-13 -5.550503468531639e-13 0.07840799815422962 -1.6123912357058178e-14 3.011917469266798e-13 -1.6123912357058178e-14 0.0791006512549374" free_energy=-22573.17491304448 pbc="T T T"
In       1.41333774       3.14621890       1.02482089        0      -0.01758471      -0.00097325       0.00098752
In       1.48217560       0.19722230       3.29173334        1       0.01758471      -0.00097325      -0.00098752
In       1.48217560       2.75177429       5.34137513        2       0.01758471       0.00097325       0.00098752
In       1.41333774       5.70077089       7.60828758        3      -0.01758471       0.00097325      -0.00098752
In       4.37768895       2.75177429       7.60828758        4       0.01758471       0.00097325      -0.00098752
In       4.30885109       5.70077089       5.34137513        5      -0.01758471       0.00097325       0.00098752
In       4.30885109       3.14621890       3.29173334        6      -0.01758471      -0.00097325      -0.00098752
In       4.37768895       0.19722230       1.02482089        7       0.01758471      -0.00097325       0.00098752
O        2.26539832       3.49493865       7.31386211        8       0.00059060      -0.00618847       0.01118961
O        0.63011503       0.54594206       5.63580060        9      -0.00059060      -0.00618847      -0.01118961
O        0.63011503       2.40305453       2.99730787       10      -0.00059060       0.00618847       0.01118961
O        2.26539832       5.35205113       1.31924636       11       0.00059060       0.00618847      -0.01118961
O        3.52562837       2.40305453       1.31924636       12      -0.00059060       0.00618847      -0.01118961
O        5.16091166       5.35205113       2.99730787       13       0.00059060       0.00618847       0.01118961
O        5.16091166       3.49493865       5.63580060       14       0.00059060      -0.00618847      -0.01118961
O        3.52562837       0.54594206       7.31386211       15      -0.00059060      -0.00618847       0.01118961
O        5.50551320       4.42349489       0.00000000       16      -0.00405557       0.00000000      -0.00000000
O        3.18102684       1.47449830       4.31655424       17       0.00405557       0.00000000      -0.00000000
O        0.28551349       1.47449830       0.00000000       18       0.00405557       0.00000000       0.00000000
O        2.60999985       4.42349489       4.31655424       19      -0.00405557      -0.00000000      -0.00000000
20
Lattice="5.794558012281519 -1.499970882726866e-60 -5.576792660279013e-43 3.7073998440462723e-60 5.8996846898448725 -6.210154368550061e-18 8.37163556572111e-43 3.395155303995222e-17 8.625373593666632" Properties=species:S:1:pos:R:3:spacegroup_kinds:I:1:forces:R:3 spacegroup="P 1" unit_cell=conventional occupancy="_JSON {\"0\": {\"In\": 1}, \"1\": {\"In\": 1}, \"2\": {\"In\": 1}, \"3\": {\"In\": 1}, \"4\": {\"In\": 1}, \"5\": {\"In\": 1}, \"6\": {\"In\": 1}, \"7\": {\"In\": 1}, \"8\": {\"O\": 1}, \"9\": {\"O\": 1}, \"10\": {\"O\": 1}, \"11\": {\"O\": 1}, \"12\": {\"O\": 1}, \"13\": {\"O\": 1}, \"14\": {\"O\": 1}, \"15\": {\"O\": 1}, \"16\": {\"O\": 1}, \"17\": {\"O\": 1}, \"18\": {\"O\": 1}, \"19\": {\"O\": 1}}" n_minim_iter=7 energy=-22573.17508331534 stress="0.07885624828466017 -2.247301190649354e-13 -1.657256946754788e-13 -2.247301190649354e-13 0.078881646257681 1.6547680883068582e-13 -1.657256946754788e-13 1.6547680883068582e-13 0.07902011386405125" free_energy=-22573.17508331534 pbc="T T T"
In       1.41418500       3.14696118       1.02360197        0      -0.01473837      -0.00135140      -0.00116376
In       1.48309401       0.19711884       3.28908483        1       0.01473837      -0.00135140       0.00116376
In       1.48309401       2.75272351       5.33628877        2       0.01473837       0.00135140      -0.00116376
In       1.41418500       5.70256585       7.60177162        3      -0.01473837       0.00135140       0.00116376
In       4.38037302       2.75272351       7.60177162        4       0.01473837       0.00135140       0.00116376
In       4.31146400       5.70256585       5.33628877        5      -0.01473837       0.00135140      -0.00116376
In       4.31146400       3.14696118       3.28908483        6      -0.01473837      -0.00135140       0.00116376
In       4.38037302       0.19711884       1.02360197        7       0.01473837      -0.00135140      -0.00116376
O        2.26685163       3.49612147       7.30784319        8       0.00219995      -0.00665140       0.01367628
O        0.63042738       0.54627913       5.63021720        9      -0.00219995      -0.00665140      -0.01367628
O        0.63042738       2.40356322       2.99515639       10      -0.00219995       0.00665140       0.01367628
O        2.26685163       5.35340556       1.31753041       11       0.00219995       0.00665140      -0.01367628
O        3.52770638       2.40356322       1.31753041       12      -0.00219995       0.00665140      -0.01367628
O        5.16413064       5.35340556       2.99515639       13       0.00219995       0.00665140       0.01367628
O        5.16413064       3.49612147       5.63021720       14       0.00219995      -0.00665140      -0.01367628
O        3.52770638       0.54627913       7.30784319       15      -0.00219995      -0.00665140       0.01367628
O        5.50908322       4.42476352       0.00000000       16      -0.00410461       0.00000000      -0.00000000
O        3.18275380       1.47492117       4.31268680       17       0.00410461       0.00000000       0.00000000
O        0.28547479       1.47492117       0.00000000       18       0.00410461       0.00000000      -0.00000000
O        2.61180422       4.42476352       4.31268680       19      -0.00410461       0.00000000       0.00000000
20
Lattice="5.798571468441717 4.913842144448935e-60 -5.505247323462834e-43 1.1770541037432574e-59 5.901837594323525 1.0576773595216211e-17 7.705160757205386e-43 5.823398157357755e-17 8.616259345635479" Properties=species:S:1:pos:R:3:spacegroup_kinds:I:1:forces:R:3 spacegroup="P 1" unit_cell=conventional occupancy="_JSON {\"0\": {\"In\": 1}, \"1\": {\"In\": 1}, \"2\": {\"In\": 1}, \"3\": {\"In\": 1}, \"4\": {\"In\": 1}, \"5\": {\"In\": 1}, \"6\": {\"In\": 1}, \"7\": {\"In\": 1}, \"8\": {\"O\": 1}, \"9\": {\"O\": 1}, \"10\": {\"O\": 1}, \"11\": {\"O\": 1}, \"12\": {\"O\": 1}, \"13\": {\"O\": 1}, \"14\": {\"O\": 1}, \"15\": {\"O\": 1}, \"16\": {\"O\": 1}, \"17\": {\"O\": 1}, \"18\": {\"O\": 1}, \"19\": {\"O\": 1}}" n_minim_iter=8 energy=-22573.17520475759 stress="0.0795177327540597 7.717128139103876e-15 -2.7544318238664926e-13 7.717128139103876e-15 0.07940136301902119 3.1751087427252285e-13 -2.7544318238664926e-13 3.1751087427252285e-13 0.07891171195368889" free_energy=-22573.17520475759 pbc="T T T"
In       1.41461488       3.14829970       1.02228983        0      -0.00819807      -0.00236552      -0.00204032
In       1.48467085       0.19738091       3.28583985        1       0.00819807      -0.00236552       0.00204032
In       1.48467085       2.75353789       5.33041950        2       0.00819807       0.00236552      -0.00204032
In       1.41461488       5.70445669       7.59396952        3      -0.00819807       0.00236552       0.00204032
In       4.38395659       2.75353789       7.59396952        4       0.00819807       0.00236552       0.00204032
In       4.31390062       5.70445669       5.33041950        5      -0.00819807       0.00236552      -0.00204032
In       4.31390062       3.14829970       3.28583985        6      -0.00819807      -0.00236552       0.00204032
In       4.38395659       0.19738091       1.02228983        7       0.00819807      -0.00236552      -0.00204032
O        2.26869884       3.49722054       7.30121494        8       0.00329204      -0.00684813       0.01425686
O        0.63058690       0.54630174       5.62317407        9      -0.00329204      -0.00684813      -0.01425686
O        0.63058690       2.40461706       2.99308527       10      -0.00329204       0.00684813       0.01425686
O        2.26869884       5.35553586       1.31504440       11       0.00329204       0.00684813      -0.01425686
O        3.52987263       2.40461706       1.31504440       12      -0.00329204       0.00684813      -0.01425686
O        5.16798457       5.35553586       2.99308527       13       0.00329204       0.00684813       0.01425686
O        5.16798457       3.49722054       5.62317407       14       0.00329204      -0.00684813      -0.01425686
O        3.52987263       0.54630174       7.30121494       15      -0.00329204      -0.00684813       0.01425686
O        5.51313685       4.42637820       0.00000000       16      -0.00342203      -0.00000000       0.00000000
O        3.18472035       1.47545940       4.30812967       17       0.00342203       0.00000000       0.00000000
O        0.28543462       1.47545940       0.00000000       18       0.00342203       0.00000000      -0.00000000
O        2.61385112       4.42637820       4.30812967       19      -0.00342203       0.00000000       0.00000000
20
Lattice="5.79560157357991 5.10662318354494e-60 -4.891109731657387e-43 1.1824575219586119e-59 5.901439114525327 8.551647003309094e-18 8.297579483592771e-43 5.5295449327314196e-17 8.621256746127212" Properties=species:S:1:pos:R:3:spacegroup_kinds:I:1:forces:R:3 spacegroup="P 1" unit_cell=conventional occupancy="_JSON {\"0\": {\"In\": 1}, \"1\": {\"In\": 1}, \"2\": {\"In\": 1}, \"3\": {\"In\": 1}, \"4\": {\"In\": 1}, \"5\": {\"In\": 1}, \"6\": {\"In\": 1}, \"7\": {\"In\": 1}, \"8\": {\"O\": 1}, \"9\": {\"O\": 1}, \"10\": {\"O\": 1}, \"11\": {\"O\": 1}, \"12\": {\"O\": 1}, \"13\": {\"O\": 1}, \"14\": {\"O\": 1}, \"15\": {\"O\": 1}, \"16\": {\"O\": 1}, \"17\": {\"O\": 1}, \"18\": {\"O\": 1}, \"19\": {\"O\": 1}}" n_minim_iter=9 energy=-22573.175472995583 stress="0.07893840355392663 -5.89819453826874e-13 1.0901905667342548e-13 -5.89819453826874e-13 0.07895496224665573 -2.744600584004408e-13 1.0901905667342548e-13 -2.744600584004408e-13 0.0789156129904234" free_energy=-22573.175472995583 pbc="T T T"
In       1.41166184       3.14960654       1.02373527        0       0.00382356      -0.00310367       0.00458330
In       1.48613895       0.19888698       3.28689311        1      -0.00382356      -0.00310367      -0.00458330
In       1.48613895       2.75183258       5.33436364        2      -0.00382356       0.00310367       0.00458330
In       1.41166184       5.70255213       7.59752148        3       0.00382356       0.00310367      -0.00458330
In       4.38393974       2.75183258       7.59752148        4      -0.00382356       0.00310367      -0.00458330
In       4.30946262       5.70255213       5.33436364        5       0.00382356       0.00310367       0.00458330
In       4.30946262       3.14960654       3.28689311        6       0.00382356      -0.00310367      -0.00458330
In       4.38393974       0.19888698       1.02373527        7      -0.00382356      -0.00310367       0.00458330
O        2.26820839       3.49512497       7.30692770        8       0.00010560      -0.00403411       0.00424389
O        0.62959240       0.54440541       5.62495741        9      -0.00010560      -0.00403411      -0.00424389
O        0.62959240       2.40631414       2.99629933       10      -0.00010560       0.00403411       0.00424389
O        2.26820839       5.35703370       1.31432904       11       0.00010560       0.00403411      -0.00424389
O        3.52739318       2.40631414       1.31432904       12      -0.00010560       0.00403411      -0.00424389
O        5.16600918       5.35703370       2.99629933       13       0.00010560       0.00403411       0.00424389
O        5.16600918       3.49512497       5.62495741       14       0.00010560      -0.00403411      -0.00424389
O        3.52739318       0.54440541       7.30692770       15      -0.00010560      -0.00403411       0.00424389
O        5.50995285       4.42607934       0.00000000       16       0.00157883       0.00000000       0.00000000
O        3.18344951       1.47535978       4.31062837       17      -0.00157883       0.00000000      -0.00000000
O        0.28564872       1.47535978       0.00000000       18      -0.00157883       0.00000000       0.00000000
O        2.61215206       4.42607934       4.31062837       19       0.00157883       0.00000000       0.00000000
