20
Lattice="5.832071463216727 2.8779561173606894e-58 -2.651295879461948e-43 -2.684137934503787e-60 6.053198126984996 7.02109663440238e-15 1.1955227969844167e-44 9.816153541210768e-15 5.62889525915781" Properties=species:S:1:pos:R:3:spacegroup_kinds:I:1:forces:R:3 spacegroup="P 1" unit_cell=conventional occupancy="_JSON {\"0\": {\"In\": 1}, \"1\": {\"In\": 1}, \"2\": {\"In\": 1}, \"3\": {\"In\": 1}, \"4\": {\"In\": 1}, \"5\": {\"In\": 1}, \"6\": {\"In\": 1}, \"7\": {\"In\": 1}, \"8\": {\"O\": 1}, \"9\": {\"O\": 1}, \"10\": {\"O\": 1}, \"11\": {\"O\": 1}, \"12\": {\"O\": 1}, \"13\": {\"O\": 1}, \"14\": {\"O\": 1}, \"15\": {\"O\": 1}, \"16\": {\"O\": 1}, \"17\": {\"O\": 1}, \"18\": {\"O\": 1}, \"19\": {\"O\": 1}}" n_minim_iter=31 energy=-22575.431805056094 stress="-0.07440337364436433 -6.50017777044151e-13 -6.043746198737237e-13 -6.50017777044151e-13 -0.07451719406038085 3.939251675930464e-13 -6.043746198737237e-13 3.939251675930464e-13 -0.07416269020134714" free_energy=-22575.431805056094 pbc="T T T"
In       1.51176245       3.37246009       0.61907376        0      -0.00199932      -0.00461537      -0.00774441
In       1.40427328       0.34586102       2.19537387        1       0.00199932      -0.00461537       0.00774441
In       1.40427328       2.68073804       3.43352139        2       0.00199932       0.00461537      -0.00774441
In       1.51176245       5.70733710       5.00982150        3      -0.00199932       0.00461537       0.00774441
In       4.32030901       2.68073804       5.00982150        4       0.00199932       0.00461537       0.00774441
In       4.42779818       5.70733710       3.43352139        5      -0.00199932       0.00461537      -0.00774441
In       4.42779818       3.37246009       2.19537387        6      -0.00199932      -0.00461537       0.00774441
In       4.32030901       0.34586102       0.61907376        7       0.00199932      -0.00461537      -0.00774441
O        2.84056097       4.03008652       4.34661858        8       0.00278862       0.00156747       0.00263332
O        0.07547477       1.00348746       4.09672431        9      -0.00278862       0.00156747      -0.00263332
O        0.07547477       2.02311160       1.53217095       10      -0.00278862      -0.00156747       0.00263332
O        2.84056097       5.04971067       1.28227668       11       0.00278862      -0.00156747      -0.00263332
O        2.99151050       2.02311160       1.28227668       12      -0.00278862      -0.00156747      -0.00263332
O        5.75659670       5.04971067       1.53217095       13       0.00278862      -0.00156747       0.00263332
O        5.75659670       4.03008652       4.09672431       14       0.00278862       0.00156747      -0.00263332
O        2.99151050       1.00348746       4.34661858       15      -0.00278862       0.00156747       0.00263332
O        5.51085052       4.53989860       0.00000000       16      -0.00556724       0.00000000       0.00000000
O        3.23725667       1.51329953       2.81444763       17       0.00556724      -0.00000000       0.00000000
O        0.32122094       1.51329953       0.00000000       18       0.00556724       0.00000000      -0.00000000
O        2.59481479       4.53989860       2.81444763       19      -0.00556724       0.00000000      -0.00000000
