20
Lattice="5.7134816700253 -3.236426845775646e-59 2.2412647806944706e-43 -3.926309294257455e-61 5.061060921935301 -6.816778862736016e-16 -7.191957965936048e-43 -9.04007617305758e-16 7.758805062321958" Properties=species:S:1:pos:R:3:spacegroup_kinds:I:1:forces:R:3 spacegroup="P 1" unit_cell=conventional occupancy="_JSON {\"0\": {\"In\": 1}, \"1\": {\"In\": 1}, \"2\": {\"In\": 1}, \"3\": {\"In\": 1}, \"4\": {\"In\": 1}, \"5\": {\"In\": 1}, \"6\": {\"In\": 1}, \"7\": {\"In\": 1}, \"8\": {\"O\": 1}, \"9\": {\"O\": 1}, \"10\": {\"O\": 1}, \"11\": {\"O\": 1}, \"12\": {\"O\": 1}, \"13\": {\"O\": 1}, \"14\": {\"O\": 1}, \"15\": {\"O\": 1}, \"16\": {\"O\": 1}, \"17\": {\"O\": 1}, \"18\": {\"O\": 1}, \"19\": {\"O\": 1}}" n_minim_iter=17 energy=-22573.169747177646 stress="-0.14039583236928718 -2.8703242063356596e-13 -5.021355574078105e-13 -2.8703242063356596e-13 -0.14048036901861963 1.7187502777682134e-13 -5.021355574078105e-13 1.7187502777682134e-13 -0.14042265668589454" free_energy=-22573.169747177646 pbc="T T T"
In       1.45951069       2.58404770       0.91289752        0      -0.00444792      -0.00478886      -0.00394246
In       1.39723014       0.05351724       2.96650501        1       0.00444792      -0.00478886       0.00394246
In       1.39723014       2.47701323       4.79230005        2       0.00444792       0.00478886      -0.00394246
In       1.45951069       5.00754369       6.84590755        3      -0.00444792       0.00478886       0.00394246
In       4.25397098       2.47701323       6.84590755        4       0.00444792       0.00478886       0.00394246
In       4.31625153       5.00754369       4.79230005        5      -0.00444792       0.00478886      -0.00394246
In       4.31625153       2.58404770       2.96650501        6      -0.00444792      -0.00478886       0.00394246
In       4.25397098       0.05351724       0.91289752        7       0.00444792      -0.00478886      -0.00394246
O        2.19982629       2.96761604       6.64073226        8       0.00259851      -0.00252079       0.00059755
O        0.65691454       0.43708558       4.99747534        9      -0.00259851      -0.00252079      -0.00059755
O        0.65691454       2.09344488       2.76132972       10      -0.00259851       0.00252079       0.00059755
O        2.19982629       4.62397534       1.11807281       11       0.00259851       0.00252079      -0.00059755
O        3.51365538       2.09344488       1.11807281       12      -0.00259851       0.00252079      -0.00059755
O        5.05656713       4.62397534       2.76132972       13       0.00259851       0.00252079       0.00059755
O        5.05656713       2.96761604       4.99747534       14       0.00259851      -0.00252079      -0.00059755
O        3.51365538       0.43708558       6.64073226       15      -0.00259851      -0.00252079       0.00059755
O        5.56921836       3.79579569       0.00000000       16      -0.00833070      -0.00000000       0.00000000
O        3.00100414       1.26526523       3.87940253       17       0.00833070       0.00000000       0.00000000
O        0.14426331       1.26526523       0.00000000       18       0.00833070       0.00000000      -0.00000000
O        2.71247753       3.79579569       3.87940253       19      -0.00833070       0.00000000       0.00000000
