20
Lattice="5.740418261759153 3.2622847842158674e-60 -8.384523578955393e-43 -1.7713943301030903e-59 5.914948570809428 -1.1459363146641267e-16 2.337095437798142e-43 -5.5148574076542264e-17 8.873042206547051" Properties=species:S:1:pos:R:3:spacegroup_kinds:I:1:forces:R:3 spacegroup="P 1" unit_cell=conventional occupancy="_JSON {\"0\": {\"In\": 1}, \"1\": {\"In\": 1}, \"2\": {\"In\": 1}, \"3\": {\"In\": 1}, \"4\": {\"In\": 1}, \"5\": {\"In\": 1}, \"6\": {\"In\": 1}, \"7\": {\"In\": 1}, \"8\": {\"O\": 1}, \"9\": {\"O\": 1}, \"10\": {\"O\": 1}, \"11\": {\"O\": 1}, \"12\": {\"O\": 1}, \"13\": {\"O\": 1}, \"14\": {\"O\": 1}, \"15\": {\"O\": 1}, \"16\": {\"O\": 1}, \"17\": {\"O\": 1}, \"18\": {\"O\": 1}, \"19\": {\"O\": 1}}" n_minim_iter=10 energy=-22572.664452309265 stress="0.07997160401193651 -2.4683867556237677e-13 2.674551199467544e-14 -2.4683867556237677e-13 0.0803352826700537 -5.200122595515949e-13 2.674551199467544e-14 -5.200122595515949e-13 0.08014278609953487" free_energy=-22572.664452309265 pbc="T T T"
In       1.38408999       3.18192408       1.07780534        0      -0.00481702       0.00279045      -0.00581227
In       1.48611915       0.22444979       3.35871576        1       0.00481702       0.00279045       0.00581227
In       1.48611915       2.73302449       5.51432644        2       0.00481702      -0.00279045      -0.00581227
In       1.38408999       5.69049878       7.79523687        3      -0.00481702      -0.00279045       0.00581227
In       4.35632828       2.73302449       7.79523687        4       0.00481702      -0.00279045       0.00581227
In       4.25429912       5.69049878       5.51432644        5      -0.00481702      -0.00279045      -0.00581227
In       4.25429912       3.18192408       3.35871576        6      -0.00481702       0.00279045       0.00581227
In       4.35632828       0.22444979       1.07780534        7       0.00481702       0.00279045      -0.00581227
O        2.24554108       3.48285764       7.50406658        8      -0.00365535      -0.00093398      -0.00280857
O        0.62466805       0.52538335       5.80549673        9       0.00365535      -0.00093398       0.00280857
O        0.62466805       2.43209093       3.06754547       10       0.00365535       0.00093398      -0.00280857
O        2.24554108       5.38956522       1.36897563       11      -0.00365535       0.00093398       0.00280857
O        3.49487718       2.43209093       1.36897563       12       0.00365535       0.00093398       0.00280857
O        5.11575022       5.38956522       3.06754547       13      -0.00365535       0.00093398      -0.00280857
O        5.11575022       3.48285764       5.80549673       14      -0.00365535      -0.00093398       0.00280857
O        3.49487718       0.52538335       7.50406658       15       0.00365535      -0.00093398      -0.00280857
O        5.45267743       4.43621143       0.00000000       16       0.00499018       0.00000000       0.00000000
O        3.15794997       1.47873714       4.43652110       17      -0.00499018       0.00000000       0.00000000
O        0.28774084       1.47873714       0.00000000       18      -0.00499018       0.00000000      -0.00000000
O        2.58246829       4.43621143       4.43652110       19       0.00499018      -0.00000000       0.00000000
