20
Lattice="5.79560157357991 5.10662318354494e-60 -4.891109731657387e-43 1.1824575219586119e-59 5.901439114525327 8.551647003309094e-18 8.297579483592771e-43 5.5295449327314196e-17 8.621256746127212" Properties=species:S:1:pos:R:3:spacegroup_kinds:I:1:forces:R:3 spacegroup="P 1" unit_cell=conventional occupancy="_JSON {\"0\": {\"In\": 1}, \"1\": {\"In\": 1}, \"2\": {\"In\": 1}, \"3\": {\"In\": 1}, \"4\": {\"In\": 1}, \"5\": {\"In\": 1}, \"6\": {\"In\": 1}, \"7\": {\"In\": 1}, \"8\": {\"O\": 1}, \"9\": {\"O\": 1}, \"10\": {\"O\": 1}, \"11\": {\"O\": 1}, \"12\": {\"O\": 1}, \"13\": {\"O\": 1}, \"14\": {\"O\": 1}, \"15\": {\"O\": 1}, \"16\": {\"O\": 1}, \"17\": {\"O\": 1}, \"18\": {\"O\": 1}, \"19\": {\"O\": 1}}" n_minim_iter=9 energy=-22573.175472995583 stress="0.07893840355392663 -5.89819453826874e-13 1.0901905667342548e-13 -5.89819453826874e-13 0.07895496224665573 -2.744600584004408e-13 1.0901905667342548e-13 -2.744600584004408e-13 0.0789156129904234" free_energy=-22573.175472995583 pbc="T T T"
In       1.41166184       3.14960654       1.02373527        0       0.00382356      -0.00310367       0.00458330
In       1.48613895       0.19888698       3.28689311        1      -0.00382356      -0.00310367      -0.00458330
In       1.48613895       2.75183258       5.33436364        2      -0.00382356       0.00310367       0.00458330
In       1.41166184       5.70255213       7.59752148        3       0.00382356       0.00310367      -0.00458330
In       4.38393974       2.75183258       7.59752148        4      -0.00382356       0.00310367      -0.00458330
In       4.30946262       5.70255213       5.33436364        5       0.00382356       0.00310367       0.00458330
In       4.30946262       3.14960654       3.28689311        6       0.00382356      -0.00310367      -0.00458330
In       4.38393974       0.19888698       1.02373527        7      -0.00382356      -0.00310367       0.00458330
O        2.26820839       3.49512497       7.30692770        8       0.00010560      -0.00403411       0.00424389
O        0.62959240       0.54440541       5.62495741        9      -0.00010560      -0.00403411      -0.00424389
O        0.62959240       2.40631414       2.99629933       10      -0.00010560       0.00403411       0.00424389
O        2.26820839       5.35703370       1.31432904       11       0.00010560       0.00403411      -0.00424389
O        3.52739318       2.40631414       1.31432904       12      -0.00010560       0.00403411      -0.00424389
O        5.16600918       5.35703370       2.99629933       13       0.00010560       0.00403411       0.00424389
O        5.16600918       3.49512497       5.62495741       14       0.00010560      -0.00403411      -0.00424389
O        3.52739318       0.54440541       7.30692770       15      -0.00010560      -0.00403411       0.00424389
O        5.50995285       4.42607934       0.00000000       16       0.00157883       0.00000000       0.00000000
O        3.18344951       1.47535978       4.31062837       17      -0.00157883       0.00000000      -0.00000000
O        0.28564872       1.47535978       0.00000000       18      -0.00157883       0.00000000       0.00000000
O        2.61215206       4.42607934       4.31062837       19       0.00157883       0.00000000       0.00000000
