20
Lattice="5.837297982540666 5.143362743013663e-60 -4.9262987813278846e-43 1.190964703100785e-59 5.943896970824143 8.61317175897268e-18 8.35727635252687e-43 5.569327199327022e-17 8.683282308526277" Properties=species:S:1:pos:R:3:spacegroup_kinds:I:1:forces:R:3 spacegroup="P 1" unit_cell=conventional occupancy="_JSON {\"0\": {\"In\": 1}, \"1\": {\"In\": 1}, \"2\": {\"In\": 1}, \"3\": {\"In\": 1}, \"4\": {\"In\": 1}, \"5\": {\"In\": 1}, \"6\": {\"In\": 1}, \"7\": {\"In\": 1}, \"8\": {\"O\": 1}, \"9\": {\"O\": 1}, \"10\": {\"O\": 1}, \"11\": {\"O\": 1}, \"12\": {\"O\": 1}, \"13\": {\"O\": 1}, \"14\": {\"O\": 1}, \"15\": {\"O\": 1}, \"16\": {\"O\": 1}, \"17\": {\"O\": 1}, \"18\": {\"O\": 1}, \"19\": {\"O\": 1}}" n_minim_iter=9 energy=-22573.175472995583 stress="0.07893840355392663 -5.89819453826874e-13 1.0901905667342548e-13 -5.89819453826874e-13 0.07895496224665573 -2.744600584004408e-13 1.0901905667342548e-13 -2.744600584004408e-13 0.0789156129904234" free_energy=-22573.175472995583 pbc="T T T"
In       1.42181803       3.17226636       1.03110052        0       0.00382356      -0.00310367       0.00458330
In       1.49683096       0.20031787       3.31054063        1      -0.00382356      -0.00310367      -0.00458330
In       1.49683096       2.77163061       5.37274168        2      -0.00382356       0.00310367       0.00458330
In       1.42181803       5.74357910       7.65218179        3       0.00382356       0.00310367      -0.00458330
In       4.41547995       2.77163061       7.65218179        4      -0.00382356       0.00310367      -0.00458330
In       4.34046702       5.74357910       5.37274168        5       0.00382356       0.00310367       0.00458330
In       4.34046702       3.17226636       3.31054063        6       0.00382356      -0.00310367      -0.00458330
In       4.41547995       0.20031787       1.03110052        7      -0.00382356      -0.00310367       0.00458330
O        2.28452700       3.52027062       7.35949734        8       0.00010560      -0.00403411       0.00424389
O        0.63412199       0.54832213       5.66542613        9      -0.00010560      -0.00403411      -0.00424389
O        0.63412199       2.42362635       3.01785618       10      -0.00010560       0.00403411       0.00424389
O        2.28452700       5.39557484       1.32378497       11       0.00010560       0.00403411      -0.00424389
O        3.55277098       2.42362635       1.32378497       12      -0.00010560       0.00403411      -0.00424389
O        5.20317599       5.39557484       3.01785618       13       0.00010560       0.00403411       0.00424389
O        5.20317599       3.52027062       5.66542613       14       0.00010560      -0.00403411      -0.00424389
O        3.55277098       0.54832213       7.35949734       15      -0.00010560      -0.00403411       0.00424389
O        5.54959416       4.45792273       0.00000000       16       0.00157883       0.00000000       0.00000000
O        3.20635281       1.48597424       4.34164115       17      -0.00157883       0.00000000      -0.00000000
O        0.28770382       1.48597424       0.00000000       18      -0.00157883       0.00000000       0.00000000
O        2.63094517       4.45792273       4.34164115       19       0.00157883       0.00000000       0.00000000
