20
Lattice="5.78559410313359 7.945286127101546e-61 7.292475472015843e-43 5.191285170751778e-61 5.8167900296717905 1.415798512577672e-17 3.5698044479823825e-43 2.4669717153308948e-17 8.380897459920407" Properties=species:S:1:pos:R:3:spacegroup_kinds:I:1:forces:R:3 spacegroup="P 1" unit_cell=conventional occupancy="_JSON {\"0\": {\"In\": 1}, \"1\": {\"In\": 1}, \"2\": {\"In\": 1}, \"3\": {\"In\": 1}, \"4\": {\"In\": 1}, \"5\": {\"In\": 1}, \"6\": {\"In\": 1}, \"7\": {\"In\": 1}, \"8\": {\"O\": 1}, \"9\": {\"O\": 1}, \"10\": {\"O\": 1}, \"11\": {\"O\": 1}, \"12\": {\"O\": 1}, \"13\": {\"O\": 1}, \"14\": {\"O\": 1}, \"15\": {\"O\": 1}, \"16\": {\"O\": 1}, \"17\": {\"O\": 1}, \"18\": {\"O\": 1}, \"19\": {\"O\": 1}}" n_minim_iter=7 energy=-22574.439036721848 stress="0.050385414658824144 3.2389602213146647e-13 -1.8253754205993704e-13 3.2389602213146647e-13 0.05038686448468674 1.850391247107125e-14 -1.8253754205993704e-13 1.850391247107125e-14 0.050379579219875244" free_energy=-22574.439036721848 pbc="T T T"
In       1.43250361       3.06267580       0.96732550        0      -0.00047183       0.00056737       0.00261597
In       1.46029344       0.15428079       3.22312323        1       0.00047183       0.00056737      -0.00261597
In       1.46029344       2.75411423       5.15777423        2       0.00047183      -0.00056737       0.00261597
In       1.43250361       5.66250924       7.41357196        3      -0.00047183      -0.00056737      -0.00261597
In       4.35309049       2.75411423       7.41357196        4       0.00047183      -0.00056737      -0.00261597
In       4.32530066       5.66250924       5.15777423        5      -0.00047183      -0.00056737       0.00261597
In       4.32530066       3.06267580       3.22312323        6      -0.00047183       0.00056737      -0.00261597
In       4.35309049       0.15428079       0.96732550        7       0.00047183       0.00056737       0.00261597
O        2.25779717       3.49408033       7.11532853        8       0.00381165      -0.00148861      -0.00056473
O        0.63499988       0.58568531       5.45601766        9      -0.00381165      -0.00148861       0.00056473
O        0.63499988       2.32270970       2.92487980       10      -0.00381165       0.00148861      -0.00056473
O        2.25779717       5.23110472       1.26556893       11       0.00381165       0.00148861       0.00056473
O        3.52779693       2.32270970       1.26556893       12      -0.00381165       0.00148861       0.00056473
O        5.15059423       5.23110472       2.92487980       13       0.00381165       0.00148861      -0.00056473
O        5.15059423       3.49408033       5.45601766       14       0.00381165      -0.00148861       0.00056473
O        3.52779693       0.58568531       7.11532853       15      -0.00381165      -0.00148861      -0.00056473
O        5.52468526       4.36259252       0.00000000       16       0.00314769       0.00000000       0.00000000
O        3.15370590       1.45419751       4.19044873       17      -0.00314769      -0.00000000      -0.00000000
O        0.26090885       1.45419751       0.00000000       18      -0.00314769      -0.00000000      -0.00000000
O        2.63188821       4.36259252       4.19044873       19       0.00314769       0.00000000      -0.00000000
