20
Lattice="5.780845074424494 3.285259377672072e-60 -8.443571465112506e-43 -1.783869349078028e-59 5.956604510654474 -1.154006554602556e-16 2.3535543986502273e-43 -5.553695711263654e-17 8.93553047808039" Properties=species:S:1:pos:R:3:spacegroup_kinds:I:1:forces:R:3 spacegroup="P 1" unit_cell=conventional occupancy="_JSON {\"0\": {\"In\": 1}, \"1\": {\"In\": 1}, \"2\": {\"In\": 1}, \"3\": {\"In\": 1}, \"4\": {\"In\": 1}, \"5\": {\"In\": 1}, \"6\": {\"In\": 1}, \"7\": {\"In\": 1}, \"8\": {\"O\": 1}, \"9\": {\"O\": 1}, \"10\": {\"O\": 1}, \"11\": {\"O\": 1}, \"12\": {\"O\": 1}, \"13\": {\"O\": 1}, \"14\": {\"O\": 1}, \"15\": {\"O\": 1}, \"16\": {\"O\": 1}, \"17\": {\"O\": 1}, \"18\": {\"O\": 1}, \"19\": {\"O\": 1}}" n_minim_iter=10 energy=-22572.664452309265 stress="0.07997160401193651 -2.4683867556237677e-13 2.674551199467544e-14 -2.4683867556237677e-13 0.0803352826700537 -5.200122595515949e-13 2.674551199467544e-14 -5.200122595515949e-13 0.08014278609953487" free_energy=-22572.664452309265 pbc="T T T"
In       1.39383742       3.20433273       1.08539577        0      -0.00481702       0.00279045      -0.00581227
In       1.49658512       0.22603048       3.38236947        1       0.00481702       0.00279045       0.00581227
In       1.49658512       2.75227178       5.55316101        2       0.00481702      -0.00279045      -0.00581227
In       1.39383742       5.73057403       7.85013471        3      -0.00481702      -0.00279045       0.00581227
In       4.38700766       2.75227178       7.85013471        4       0.00481702      -0.00279045       0.00581227
In       4.28425996       5.73057403       5.55316101        5      -0.00481702      -0.00279045      -0.00581227
In       4.28425996       3.20433273       3.38236947        6      -0.00481702       0.00279045       0.00581227
In       4.38700766       0.22603048       1.08539577        7       0.00481702       0.00279045      -0.00581227
O        2.26135527       3.50738561       7.55691386        8      -0.00365535      -0.00093398      -0.00280857
O        0.62906726       0.52908336       5.84638186        9       0.00365535      -0.00093398       0.00280857
O        0.62906726       2.44921890       3.08914862       10       0.00365535       0.00093398      -0.00280857
O        2.26135527       5.42752116       1.37861662       11      -0.00365535       0.00093398       0.00280857
O        3.51948980       2.44921890       1.37861662       12       0.00365535       0.00093398       0.00280857
O        5.15177781       5.42752116       3.08914862       13      -0.00365535       0.00093398      -0.00280857
O        5.15177781       3.50738561       5.84638186       14      -0.00365535      -0.00093398       0.00280857
O        3.51948980       0.52908336       7.55691386       15       0.00365535      -0.00093398      -0.00280857
O        5.49107783       4.46745338       0.00000000       16       0.00499018       0.00000000       0.00000000
O        3.18018978       1.48915113       4.46776524       17      -0.00499018       0.00000000       0.00000000
O        0.28976725       1.48915113       0.00000000       18      -0.00499018       0.00000000      -0.00000000
O        2.60065529       4.46745338       4.46776524       19       0.00499018      -0.00000000       0.00000000
