20
Lattice="5.771362629754167 -9.519185135952069e-61 -1.4273584029825883e-43 1.9515401889205825e-60 5.982718599127912 3.71198151301279e-17 2.0560710458140363e-43 -5.663099179176449e-17 9.096793593254262" Properties=species:S:1:pos:R:3:spacegroup_kinds:I:1:forces:R:3 spacegroup="P 1" unit_cell=conventional occupancy="_JSON {\"0\": {\"In\": 1}, \"1\": {\"In\": 1}, \"2\": {\"In\": 1}, \"3\": {\"In\": 1}, \"4\": {\"In\": 1}, \"5\": {\"In\": 1}, \"6\": {\"In\": 1}, \"7\": {\"In\": 1}, \"8\": {\"O\": 1}, \"9\": {\"O\": 1}, \"10\": {\"O\": 1}, \"11\": {\"O\": 1}, \"12\": {\"O\": 1}, \"13\": {\"O\": 1}, \"14\": {\"O\": 1}, \"15\": {\"O\": 1}, \"16\": {\"O\": 1}, \"17\": {\"O\": 1}, \"18\": {\"O\": 1}, \"19\": {\"O\": 1}}" n_minim_iter=6 energy=-22572.123128404066 stress="0.09037523482138154 -3.3576644146295704e-13 1.279892313709055e-13 -3.3576644146295704e-13 0.0903604371018756 6.144948761825291e-13 1.279892313709055e-13 6.144948761825291e-13 0.0903005468226837" free_energy=-22572.123128404066 pbc="T T T"
In       1.38501459       3.22672478       1.11205761        0       0.00133663       0.00085153       0.00668468
In       1.50066672       0.23536548       3.43633918        1      -0.00133663       0.00085153      -0.00668468
In       1.50066672       2.75599382       5.66045441        2      -0.00133663      -0.00085153       0.00668468
In       1.38501459       5.74735312       7.98473598        3       0.00133663      -0.00085153      -0.00668468
In       4.38634804       2.75599382       7.98473598        4      -0.00133663      -0.00085153      -0.00668468
In       4.27069591       5.74735312       5.66045441        5       0.00133663      -0.00085153       0.00668468
In       4.27069591       3.22672478       3.43633918        6       0.00133663       0.00085153      -0.00668468
In       4.38634804       0.23536548       1.11205761        7      -0.00133663       0.00085153       0.00668468
O        2.25320933       3.51947276       7.68372074        8       0.00272608      -0.00662261       0.00116454
O        0.63247198       0.52811346       5.96146965        9      -0.00272608      -0.00662261      -0.00116454
O        0.63247198       2.46324584       3.13532394       10      -0.00272608       0.00662261       0.00116454
O        2.25320933       5.45460514       1.41307285       11       0.00272608       0.00662261      -0.00116454
O        3.51815330       2.46324584       1.41307285       12      -0.00272608       0.00662261      -0.00116454
O        5.13889065       5.45460514       3.13532394       13       0.00272608       0.00662261       0.00116454
O        5.13889065       3.51947276       5.96146965       14       0.00272608      -0.00662261      -0.00116454
O        3.51815330       0.52811346       7.68372074       15      -0.00272608      -0.00662261       0.00116454
O        5.48105412       4.48703895       0.00000000       16       0.00131289       0.00000000      -0.00000000
O        3.17598982       1.49567965       4.54839680       17      -0.00131289       0.00000000       0.00000000
O        0.29030851       1.49567965       0.00000000       18      -0.00131289       0.00000000       0.00000000
O        2.59537281       4.48703895       4.54839680       19       0.00131289       0.00000000       0.00000000
