20
Lattice="5.432883740530312 -2.63708558391745e-60 7.607849047314231e-44 1.2023036782950618e-59 5.530778161334361 -3.417910334212794e-17 -2.6474479052109393e-43 -2.046392732928304e-19 7.67989088243819" Properties=species:S:1:pos:R:3:spacegroup_kinds:I:1:forces:R:3 spacegroup="P 1" unit_cell=conventional occupancy="_JSON {\"0\": {\"In\": 1}, \"1\": {\"In\": 1}, \"2\": {\"In\": 1}, \"3\": {\"In\": 1}, \"4\": {\"In\": 1}, \"5\": {\"In\": 1}, \"6\": {\"In\": 1}, \"7\": {\"In\": 1}, \"8\": {\"O\": 1}, \"9\": {\"O\": 1}, \"10\": {\"O\": 1}, \"11\": {\"O\": 1}, \"12\": {\"O\": 1}, \"13\": {\"O\": 1}, \"14\": {\"O\": 1}, \"15\": {\"O\": 1}, \"16\": {\"O\": 1}, \"17\": {\"O\": 1}, \"18\": {\"O\": 1}, \"19\": {\"O\": 1}}" n_minim_iter=9 energy=-22574.349723251868 stress="-0.06959634074867378 -3.3865803014645505e-13 -1.0000847251505513e-12 -3.3865803014645505e-13 -0.06956941912926735 1.1843509853723375e-13 -1.0000847251505513e-12 1.1843509853723375e-13 -0.0695109359589027" free_energy=-22574.349723251868 pbc="T T T"
In       1.35010864       2.93791775       0.90053610        0       0.00057365       0.00094948       0.00179620
In       1.36633323       0.17252867       2.93940934        1      -0.00057365       0.00094948      -0.00179620
In       1.36633323       2.59286041       4.74048154        2      -0.00057365      -0.00094948       0.00179620
In       1.35010864       5.35824949       6.77935478        3       0.00057365      -0.00094948      -0.00179620
In       4.08277510       2.59286041       6.77935478        4      -0.00057365      -0.00094948      -0.00179620
In       4.06655051       5.35824949       4.74048154        5       0.00057365      -0.00094948       0.00179620
In       4.06655051       2.93791775       2.93940934        6       0.00057365       0.00094948      -0.00179620
In       4.08277510       0.17252867       0.90053610        7      -0.00057365       0.00094948       0.00179620
O        2.11929376       3.34365972       6.54576644        8      -0.00441023      -0.00216325      -0.00225862
O        0.59714811       0.57827064       4.97406988        9       0.00441023      -0.00216325       0.00225862
O        0.59714811       2.18711844       2.70582100       10       0.00441023       0.00216325      -0.00225862
O        2.11929376       4.95250752       1.13412444       11      -0.00441023       0.00216325       0.00225862
O        3.31358998       2.18711844       1.13412444       12       0.00441023       0.00216325       0.00225862
O        4.83573563       4.95250752       2.70582100       13      -0.00441023       0.00216325      -0.00225862
O        4.83573563       3.34365972       4.97406988       14      -0.00441023      -0.00216325       0.00225862
O        3.31358998       0.57827064       6.54576644       15       0.00441023      -0.00216325      -0.00225862
O        5.20265598       4.14808362       0.00000000       16      -0.00231730      -0.00000000      -0.00000000
O        2.94666963       1.38269454       3.83994544       17       0.00231730       0.00000000      -0.00000000
O        0.23022776       1.38269454       0.00000000       18       0.00231730       0.00000000      -0.00000000
O        2.48621411       4.14808362       3.83994544       19      -0.00231730       0.00000000       0.00000000
