20
Lattice="5.737336782276599 -6.1276227029186665e-62 -3.691429528230916e-45 1.7831913481680985e-61 5.783929866462796 -1.932093771480214e-17 -5.987920487221214e-44 2.1485896976387167e-18 8.306236515288884" Properties=species:S:1:pos:R:3:spacegroup_kinds:I:1:forces:R:3 spacegroup="P 1" unit_cell=conventional occupancy="_JSON {\"0\": {\"In\": 1}, \"1\": {\"In\": 1}, \"2\": {\"In\": 1}, \"3\": {\"In\": 1}, \"4\": {\"In\": 1}, \"5\": {\"In\": 1}, \"6\": {\"In\": 1}, \"7\": {\"In\": 1}, \"8\": {\"O\": 1}, \"9\": {\"O\": 1}, \"10\": {\"O\": 1}, \"11\": {\"O\": 1}, \"12\": {\"O\": 1}, \"13\": {\"O\": 1}, \"14\": {\"O\": 1}, \"15\": {\"O\": 1}, \"16\": {\"O\": 1}, \"17\": {\"O\": 1}, \"18\": {\"O\": 1}, \"19\": {\"O\": 1}}" n_minim_iter=5 energy=-22574.718376990393 stress="0.036457875110598795 -5.346722365952119e-13 -1.407746324008389e-13 -5.346722365952119e-13 0.036541469022498545 -2.085789922146473e-15 -1.407746324008389e-13 -2.085789922146473e-15 0.036347698430890966" free_energy=-22574.718376990393 pbc="T T T"
In       1.42209387       3.04515321       0.95546099        0      -0.00578009       0.00437450      -0.00296351
In       1.44657452       0.15318828       3.19765726        1       0.00578009       0.00437450       0.00296351
In       1.44657452       2.73877665       5.10857925        2       0.00578009      -0.00437450      -0.00296351
In       1.42209387       5.63074159       7.35077552        3      -0.00578009      -0.00437450       0.00296351
In       4.31524291       2.73877665       7.35077552        4       0.00578009      -0.00437450       0.00296351
In       4.29076226       5.63074159       5.10857925        5      -0.00578009      -0.00437450      -0.00296351
In       4.29076226       3.04515321       3.19765726        6      -0.00578009       0.00437450       0.00296351
In       4.31524291       0.15318828       0.95546099        7       0.00578009       0.00437450      -0.00296351
O        2.24001971       3.48419338       7.05231186        8      -0.00483352      -0.00383182      -0.00127301
O        0.62864868       0.59222844       5.40704291        9       0.00483352      -0.00383182       0.00127301
O        0.62864868       2.29973649       2.89919361       10       0.00483352       0.00383182      -0.00127301
O        2.24001971       5.19170142       1.25392465       11      -0.00483352       0.00383182       0.00127301
O        3.49731707       2.29973649       1.25392465       12       0.00483352       0.00383182       0.00127301
O        5.10868811       5.19170142       2.89919361       13      -0.00483352       0.00383182      -0.00127301
O        5.10868811       3.48419338       5.40704291       14      -0.00483352      -0.00383182       0.00127301
O        3.49731707       0.59222844       7.05231186       15       0.00483352      -0.00383182      -0.00127301
O        5.49045553       4.33794740      -0.00000000       16       0.00191389       0.00000000      -0.00000000
O        3.11554964       1.44598247       4.15311826       17      -0.00191389      -0.00000000      -0.00000000
O        0.24688125       1.44598247      -0.00000000       18      -0.00191389       0.00000000      -0.00000000
O        2.62178714       4.33794740       4.15311826       19       0.00191389      -0.00000000       0.00000000
