20
Lattice="5.768674360987897 2.8466715078813383e-58 -2.622475163363175e-43 -2.654960211270581e-60 5.987397283684601 6.944774321842068e-15 1.1825269546914429e-44 9.709447768918535e-15 5.56770676885365" Properties=species:S:1:pos:R:3:spacegroup_kinds:I:1:forces:R:3 spacegroup="P 1" unit_cell=conventional occupancy="_JSON {\"0\": {\"In\": 1}, \"1\": {\"In\": 1}, \"2\": {\"In\": 1}, \"3\": {\"In\": 1}, \"4\": {\"In\": 1}, \"5\": {\"In\": 1}, \"6\": {\"In\": 1}, \"7\": {\"In\": 1}, \"8\": {\"O\": 1}, \"9\": {\"O\": 1}, \"10\": {\"O\": 1}, \"11\": {\"O\": 1}, \"12\": {\"O\": 1}, \"13\": {\"O\": 1}, \"14\": {\"O\": 1}, \"15\": {\"O\": 1}, \"16\": {\"O\": 1}, \"17\": {\"O\": 1}, \"18\": {\"O\": 1}, \"19\": {\"O\": 1}}" n_minim_iter=31 energy=-22575.431805056094 stress="-0.07440337364436433 -6.50017777044151e-13 -6.043746198737237e-13 -6.50017777044151e-13 -0.07451719406038085 3.939251675930464e-13 -6.043746198737237e-13 3.939251675930464e-13 -0.07416269020134714" free_energy=-22575.431805056094 pbc="T T T"
In       1.49532895       3.33580001       0.61234417        0      -0.00199932      -0.00461537      -0.00774441
In       1.38900823       0.34210137       2.17150922        1       0.00199932      -0.00461537       0.00774441
In       1.38900823       2.65159728       3.39619755        2       0.00199932       0.00461537      -0.00774441
In       1.49532895       5.64529592       4.95536260        3      -0.00199932       0.00461537       0.00774441
In       4.27334541       2.65159728       4.95536260        4       0.00199932       0.00461537       0.00774441
In       4.37966613       5.64529592       3.39619755        5      -0.00199932       0.00461537      -0.00774441
In       4.37966613       3.33580001       2.17150922        6      -0.00199932      -0.00461537       0.00774441
In       4.27334541       0.34210137       0.61234417        7       0.00199932      -0.00461537      -0.00774441
O        2.80968286       3.98627776       4.29936898        8       0.00278862       0.00156747       0.00263332
O        0.07465432       0.99257912       4.05219117        9      -0.00278862       0.00156747      -0.00263332
O        0.07465432       2.00111952       1.51551560       10      -0.00278862      -0.00156747       0.00263332
O        2.80968286       4.99481816       1.26833779       11       0.00278862      -0.00156747      -0.00263332
O        2.95899150       2.00111952       1.26833779       12      -0.00278862      -0.00156747      -0.00263332
O        5.69402004       4.99481816       1.51551560       13       0.00278862      -0.00156747       0.00263332
O        5.69402004       3.98627776       4.05219117       14       0.00278862       0.00156747      -0.00263332
O        2.95899150       0.99257912       4.29936898       15      -0.00278862       0.00156747       0.00263332
O        5.45094523       4.49054796       0.00000000       16      -0.00556724       0.00000000       0.00000000
O        3.20206631       1.49684932       2.78385338       17       0.00556724      -0.00000000       0.00000000
O        0.31772913       1.49684932       0.00000000       18       0.00556724       0.00000000      -0.00000000
O        2.56660805       4.49054796       2.78385338       19      -0.00556724       0.00000000      -0.00000000
