80
Lattice="11.755483960318193 0.003804752864529521 0.002627128388677982 6.453671649638002 9.825555447713965 0.002627128388678433 6.4536716496380055 3.483712513603263 9.187235377439135" Properties=species:S:1:pos:R:3:spacegroup_kinds:I:1:forces:R:3 spacegroup="P 1" unit_cell=conventional occupancy="_JSON {\"0\": {\"In\": 1}, \"1\": {\"In\": 1}, \"2\": {\"In\": 1}, \"3\": {\"In\": 1}, \"4\": {\"O\": 1}, \"5\": {\"O\": 1}, \"6\": {\"O\": 1}, \"7\": {\"O\": 1}, \"8\": {\"O\": 1}, \"9\": {\"O\": 1}}" n_minim_iter=3 energy=-90301.48515708864 stress="0.000727452487767183 -0.0004926804338779987 -0.00032865018099854774 -0.0004926804338779987 0.0014167462828924182 -0.00018698563693593618 -0.00032865018099854774 -0.00018698563693593618 0.0015104027207118679" free_energy=-11287.686850907627 pbc="T T T"
In      10.57102682       5.70627396       3.94010198        0       0.00339880       0.00153732       0.00107392
In      16.44876880       5.70817634       3.94141554        0       0.00186525       0.00081165       0.00107598
In      13.79786264      10.61905168       3.94141554        0       0.00012446       0.00011197       0.00013722
In      19.67560462      10.62095406       3.94272911        0       0.00350109       0.00188316       0.00063142
In      13.79786264       7.44813022       8.53371967        0      -0.00964806      -0.01342488       0.00322456
In      19.67560462       7.45003259       8.53503323        0       0.00520046      -0.00056978       0.00197791
In      17.02469847      12.36090794       8.53503323        0       0.00491558       0.00715907       0.00349450
In      22.90244045      12.36281032       8.53634680        0       0.00114451       0.00158117       0.00037790
In       7.92609363       4.27853059       2.95426525        1      -0.00034178      -0.00148722       0.00385141
In      13.80383561       4.28043297       2.95557881        1      -0.00294365      -0.00244007      -0.00134069
In      11.15292945       9.19130831       2.95557881        1      -0.00318856       0.00101628      -0.00514064
In      17.03067143       9.19321069       2.95689238        1      -0.00194263      -0.00082790      -0.00071936
In      11.15292945       6.02038685       7.54788294        1      -0.01021641      -0.00972688      -0.00166087
In      17.03067143       6.02228922       7.54919650        1       0.00108909      -0.00142867      -0.00335016
In      14.37976528      10.93316457       7.54919650        1      -0.00127673       0.00052936      -0.00130890
In      20.25750726      10.93506695       7.55051007        1      -0.00339377      -0.00034431      -0.00086105
In       4.40532001       2.37800578       1.64197957        2      -0.01458689      -0.00519487       0.01361838
In      10.28306199       2.37990816       1.64329313        2       0.00509967       0.00070409       0.00316240
In       7.63215583       7.29078350       1.64329313        2       0.00426142       0.00618144       0.00139199
In      13.50989781       7.29268588       1.64460670        2       0.00144455       0.00318372       0.00108157
In       7.63215583       4.11986204       6.23559726        2       0.00351572       0.00126498       0.00190778
In      13.50989781       4.12176441       6.23691082        2       0.00053324      -0.00194420       0.00235971
In      10.85899166       9.03263976       6.23691082        2       0.00083051       0.00255170      -0.00277566
In      16.73673364       9.03454214       6.23822439        2       0.00322987       0.00254183       0.00047706
In       1.76038681       0.95026241       0.65614284        3       0.00215179      -0.00145474      -0.00081186
In       7.63812879       0.95216479       0.65745640        3      -0.00426404      -0.01191429       0.00085940
In       4.98722263       5.86304013       0.65745640        3      -0.00620992       0.00170705       0.00054037
In      10.86496461       5.86494251       0.65876997        3      -0.00117400       0.00018614      -0.00069079
In       4.98722263       2.69211867       5.24976053        3      -0.00270267      -0.00291104      -0.00255148
In      10.86496461       2.69402104       5.25107409        3      -0.00163644      -0.00010167       0.00157005
In       8.21405846       7.60489639       5.25107409        3      -0.00235090      -0.00073922      -0.00048970
In      14.09180044       7.60679877       5.25238766        3      -0.00209936      -0.00003048      -0.00303732
O        6.01591411       2.30161558       0.21504589        4       0.05495503       0.05746172      -0.02794127
O       11.89946638       2.31236398       0.21636182        4      -0.00323967       0.00210471      -0.00290427
O        9.24856022       7.22323932       0.21636182        4      -0.00178273      -0.00003435      -0.00230087
O       15.12630220       7.22514170       0.21767539        4       0.00129290       0.00108826      -0.00281551
O        9.24856022       4.05231786       4.80866595        4      -0.00101333       0.00232112      -0.00375068
O       15.12630220       4.05422023       4.80997951        4       0.00010917       0.00258612      -0.00256073
O       12.47539605       8.96509558       4.80997951        4       0.00024471       0.00088165      -0.00077217
O       18.35313803       8.96699796       4.81129308        4      -0.00043203       0.00138904      -0.00258898
O        7.09560450       5.12098255       1.15037477        5      -0.00424821      -0.00867026      -0.00613225
O       12.97334648       5.12288493       1.15168833        5      -0.00182012       0.00317722       0.00015804
O       10.32244032      10.03376027       1.15168833        5      -0.00965339      -0.00539812       0.00264692
O       16.20018230      10.03566265       1.15300190        5      -0.00142732       0.00383487      -0.00027544
O       10.32244032       6.86283881       5.74399246        5      -0.00104749       0.00358982       0.00021760
O       16.20018230       6.86474118       5.74530602        5      -0.00195161       0.00271356       0.00084069
O       13.54927615      11.77561653       5.74530602        5      -0.00133021       0.00285515       0.00018920
O       19.42701813      11.77751891       5.74661959        5      -0.00109229       0.00215813      -0.00044522
O        8.17468013       2.18188133       2.51185710        6       0.00047743       0.00107104      -0.00615183
O       14.05242211       2.18378371       2.51317066        6       0.00080260      -0.00017964      -0.00182978
O       11.40151595       7.09465905       2.51317066        6       0.00114948      -0.00243890      -0.00220224
O       17.27925793       7.09656143       2.51448423        6       0.00242133      -0.00200154      -0.00344451
O       11.40151595       3.92373759       7.10547479        6       0.00043759      -0.00551356      -0.01048345
O       17.27925793       3.92563996       7.10678835        6       0.00115534      -0.00030876      -0.00239810
O       14.62835178       8.83651531       7.10678835        6       0.00076714      -0.00218047      -0.00153235
O       20.50609376       8.83841769       7.10810192        6       0.00241901      -0.00073189      -0.00283097
O        4.15673351       4.47465504       2.08438772        7       0.00042801       0.00248370       0.00184892
O       10.03447549       4.47655742       2.08570128        7      -0.00268747       0.00015542       0.00203078
O        7.38356933       9.38743276       2.08570128        7      -0.00304090       0.00014997       0.00318184
O       13.26131131       9.38933514       2.08701485        7       0.00045759      -0.00217165       0.00594219
O        7.38356933       6.21651130       6.67800541        7      -0.00234988       0.00097746       0.00195027
O       13.26131131       6.21841367       6.67931897        7      -0.00072238       0.00433338       0.01055844
O       10.61040516      11.12928902       6.67931897        7      -0.00091867      -0.00002072       0.00335863
O       16.48814714      11.13119140       6.68063254        7      -0.00234391      -0.00048738       0.00252834
O        6.30968924       4.34607477       4.38119657        8       0.00036593      -0.00139718       0.00182738
O       12.18743122       4.34797715       4.38251013        8       0.00043712      -0.00110080       0.00223153
O        9.53652506       9.25885249       4.38251013        8      -0.00055666      -0.00254070       0.00380690
O       15.41426704       9.26075487       4.38382370        8       0.00032732      -0.00209167       0.00300807
O        9.53652506       6.08793103       8.97481426        8      -0.00845409       0.00245541       0.00036122
O       15.41426704       6.08983340       8.97612782        8      -0.01283086       0.00090700       0.00402334
O       12.76336089      11.00070875       8.97612782        8       0.00002614      -0.00344937       0.00341104
O       18.64110287      11.00261113       8.97744139        8       0.00030671      -0.00311053       0.00251723
O        5.23580914       1.53555382       3.44587005        9       0.00243222      -0.00235702       0.00481581
O       11.11355112       1.53745620       3.44718361        9       0.00086594      -0.00284561      -0.00044423
O        8.46264496       6.44833154       3.44718361        9       0.00053518      -0.00379987      -0.00156510
O       14.34038694       6.45023392       3.44849718        9       0.00211796      -0.00317345       0.00100616
O        8.46264496       3.27741008       8.03948774        9       0.00015874      -0.00357572      -0.00115953
O       14.34038694       3.27931245       8.04080130        9       0.00424466      -0.00354573      -0.00128210
O       11.68948079       8.19018780       8.04080130        9       0.00912045      -0.01017203       0.00726781
O       17.56722277       8.19209018       8.04211487        9       0.00055732      -0.00380850       0.00000819
