80
Lattice="11.755483960318193 0.003804752864529521 0.002627128388677982 6.453671649638002 9.825555447713965 0.002627128388678433 6.4536716496380055 3.483712513603263 9.187235377439135" Properties=species:S:1:pos:R:3:spacegroup_kinds:I:1:forces:R:3 spacegroup="P 1" unit_cell=conventional occupancy="_JSON {\"0\": {\"In\": 1}, \"1\": {\"In\": 1}, \"2\": {\"In\": 1}, \"3\": {\"In\": 1}, \"4\": {\"O\": 1}, \"5\": {\"O\": 1}, \"6\": {\"O\": 1}, \"7\": {\"O\": 1}, \"8\": {\"O\": 1}, \"9\": {\"O\": 1}}" n_minim_iter=3 energy=-90301.48518290583 stress="0.0007460169135596976 -0.0005061385462920434 -0.00035918681903685597 -0.0005061385462920434 0.0013672555255859259 -0.00018400729148350782 -0.00035918681903685597 -0.00018400729148350782 0.0015545584129069794" free_energy=-11287.686850907627 pbc="T T T"
In      10.57102682       5.70627396       3.94010198        0       0.00161178       0.00116972       0.00080055
In      16.44876880       5.70817634       3.94141554        0       0.00315706       0.00189929       0.00081140
In      13.79786264      10.61905168       3.94141554        0       0.00488946       0.00259025       0.00173814
In      19.67560462      10.62095406       3.94272911        0       0.00151748       0.00081540       0.00122645
In      13.79786264       7.44813022       8.53371967        0       0.01581149       0.01747368      -0.00219645
In      19.67560462       7.45003259       8.53503323        0      -0.00019815       0.00328488      -0.00011886
In      17.02469847      12.36090794       8.53503323        0       0.00018714      -0.00434138      -0.00159137
In      22.90244045      12.36281032       8.53634680        0       0.00387188       0.00114673       0.00149539
In       7.92609363       4.27853059       2.95426525        1      -0.00472830      -0.00117164      -0.00583600
In      13.80383561       4.28043297       2.95557881        1      -0.00205382      -0.00030347      -0.00054701
In      11.15292945       9.19130831       2.95557881        1      -0.00184289      -0.00372061       0.00325746
In      17.03067143       9.19321069       2.95689238        1      -0.00305883      -0.00187967      -0.00114941
In      11.15292945       6.02038685       7.54788294        1       0.00527479       0.00717169      -0.00021328
In      17.03067143       6.02228922       7.54919650        1      -0.00612836      -0.00125557       0.00150676
In      14.37976528      10.93316457       7.54919650        1      -0.00372574      -0.00329234      -0.00054227
In      20.25750726      10.93506695       7.55051007        1      -0.00163896      -0.00236513      -0.00100509
In       4.40532001       2.37800578       1.64197957        2       0.01930689       0.00807601      -0.01149632
In      10.28306199       2.37990816       1.64329313        2      -0.00012293       0.00202743      -0.00132519
In       7.63215583       7.29078350       1.64329313        2       0.00075355      -0.00352660       0.00047367
In      13.50989781       7.29268588       1.64460670        2       0.00355523      -0.00046943       0.00078822
In       7.63215583       4.11986204       6.23559726        2       0.00149988       0.00143835      -0.00004564
In      13.50989781       4.12176441       6.23691082        2       0.00448360       0.00466067      -0.00053616
In      10.85899166       9.03263976       6.23691082        2       0.00419446       0.00012949       0.00466668
In      16.73673364       9.03454214       6.23822439        2       0.00176882       0.00015357       0.00140176
In       1.76038681       0.95026241       0.65614284        3      -0.00706575      -0.00125228      -0.00105322
In       7.63812879       0.95216479       0.65745640        3      -0.00088468       0.00963689      -0.00280478
In       4.98722263       5.86304013       0.65745640        3       0.00126798      -0.00438418      -0.00244156
In      10.86496461       5.86494251       0.65876997        3      -0.00386459      -0.00287839      -0.00119208
In       4.98722263       2.69211867       5.24976053        3      -0.00230438       0.00020485       0.00068121
In      10.86496461       2.69402104       5.25107409        3      -0.00337403      -0.00260744      -0.00339800
In       8.21405846       7.60489639       5.25107409        3      -0.00266098      -0.00196712      -0.00137977
In      14.09180044       7.60679877       5.25238766        3      -0.00291424      -0.00266152       0.00120378
O        6.02753469       2.31930762       0.21505063        4      -0.05575400      -0.05565040       0.02287912
O       11.89946638       2.31236398       0.21636182        4       0.00326520       0.00161253      -0.00248093
O        9.24856022       7.22323932       0.21636182        4       0.00180237       0.00377998      -0.00308988
O       15.12630220       7.22514170       0.21767539        4      -0.00129425       0.00264709      -0.00257648
O        9.24856022       4.05231786       4.80866595        4       0.00100957       0.00140001      -0.00164732
O       15.12630220       4.05422023       4.80997951        4      -0.00010140       0.00113301      -0.00284915
O       12.47539605       8.96509558       4.80997951        4      -0.00024758       0.00285112      -0.00464327
O       18.35313803       8.96699796       4.81129308        4       0.00042939       0.00233540      -0.00280501
O        7.09560450       5.12098255       1.15037477        5       0.00117178       0.01466058       0.00623066
O       12.97334648       5.12288493       1.15168833        5      -0.00129870       0.00260297      -0.00014861
O       10.32244032      10.03376027       1.15168833        5       0.00631541       0.01100069      -0.00247957
O       16.20018230      10.03566265       1.15300190        5      -0.00169307       0.00192054       0.00027556
O       10.32244032       6.86283881       5.74399246        5      -0.00207104       0.00217343      -0.00021991
O       16.20018230       6.86474118       5.74530602        5      -0.00116854       0.00305836      -0.00085161
O       13.54927615      11.77561653       5.74530602        5      -0.00178518       0.00292230      -0.00018690
O       19.42701813      11.77751891       5.74661959        5      -0.00201888       0.00362493       0.00045176
O        8.17468013       2.18188133       2.51185710        6       0.00270387      -0.00318218       0.00084194
O       14.05242211       2.18378371       2.51317066        6       0.00233084      -0.00185043      -0.00358013
O       11.40151595       7.09465905       2.51317066        6       0.00197067       0.00037991      -0.00318134
O       17.27925793       7.09656143       2.51448423        6       0.00067682      -0.00005429      -0.00195649
O       11.40151595       3.92373759       7.10547479        6       0.00265946       0.00346995       0.00499092
O       17.27925793       3.92563996       7.10678835        6       0.00197832      -0.00175955      -0.00300829
O       14.62835178       8.83651531       7.10678835        6       0.00229453       0.00006889      -0.00379911
O       20.50609376       8.83841769       7.10810192        6       0.00067547      -0.00130080      -0.00257527
O        4.15673351       4.47465504       2.08438772        7      -0.00356719      -0.00047929       0.00354708
O       10.03447549       4.47655742       2.08570128        7      -0.00042193       0.00188519       0.00336762
O        7.38356933       9.38743276       2.08570128        7      -0.00009494       0.00189799       0.00221522
O       13.26131131       9.38933514       2.08701485        7      -0.00353921       0.00418972      -0.00048871
O        7.38356933       6.21651130       6.67800541        7      -0.00076928       0.00106178       0.00343456
O       13.26131131       6.21841367       6.67931897        7      -0.00248487      -0.00236121      -0.00508778
O       10.61040516      11.12928902       6.67931897        7      -0.00220142       0.00207894       0.00203510
O       16.48814714      11.13119140       6.68063254        7      -0.00076410       0.00255050       0.00284790
O        6.30968924       4.34607477       4.38119657        8      -0.00037573      -0.00232460       0.00358432
O       12.18743122       4.34797715       4.38251013        8      -0.00044128      -0.00263298       0.00316687
O        9.53652506       9.25885249       4.38251013        8       0.00055989      -0.00118201       0.00159072
O       15.41426704       9.26075487       4.38382370        8      -0.00032474      -0.00163125       0.00237526
O        9.53652506       6.08793103       8.97481426        8       0.00846027      -0.00611484       0.00502843
O       15.41426704       6.08983340       8.97612782        8       0.01294399      -0.00472944       0.00135498
O       12.76336089      11.00070875       8.97612782        8      -0.00003017      -0.00030112       0.00199441
O       18.64110287      11.00261113       8.97744139        8      -0.00029138      -0.00061637       0.00287511
O        5.23580914       1.53555382       3.44587005        9       0.00069071      -0.00341157      -0.00478675
O       11.11355112       1.53745620       3.44718361        9       0.00224549      -0.00292217       0.00044000
O        8.46264496       6.44833154       3.44718361        9       0.00258655      -0.00196022       0.00158816
O       14.34038694       6.45023392       3.44849718        9       0.00100182      -0.00259883      -0.00101548
O        8.46264496       3.27741008       8.03948774        9       0.00295839      -0.00217482       0.00115435
O       14.34038694       3.27931245       8.04080130        9      -0.00109137      -0.00224280       0.00128353
O       11.68948079       8.19018780       8.04080130        9      -0.00606013       0.00431833      -0.00725906
O       17.56722277       8.19209018       8.04211487        9       0.00257471      -0.00194513      -0.00001552
