40
Lattice="5.490714749780865 -7.776123293244678e-43 0.0 8.058707121948399e-43 5.690246976547506 0.0 0.0 0.0 15.838929877935342" Properties=species:S:1:pos:R:3:spacegroup_kinds:I:1:forces:R:3 spacegroup="P 1" unit_cell=conventional occupancy="_JSON {\"0\": {\"In\": 1}, \"1\": {\"In\": 1}, \"2\": {\"In\": 1}, \"3\": {\"In\": 1}, \"4\": {\"In\": 1}, \"5\": {\"In\": 1}, \"6\": {\"In\": 1}, \"7\": {\"In\": 1}, \"8\": {\"In\": 1}, \"9\": {\"In\": 1}, \"10\": {\"In\": 1}, \"11\": {\"In\": 1}, \"12\": {\"In\": 1}, \"13\": {\"In\": 1}, \"14\": {\"In\": 1}, \"15\": {\"In\": 1}, \"16\": {\"O\": 1}, \"17\": {\"O\": 1}, \"18\": {\"O\": 1}, \"19\": {\"O\": 1}, \"20\": {\"O\": 1}, \"21\": {\"O\": 1}, \"22\": {\"O\": 1}, \"23\": {\"O\": 1}, \"24\": {\"O\": 1}, \"25\": {\"O\": 1}, \"26\": {\"O\": 1}, \"27\": {\"O\": 1}, \"28\": {\"O\": 1}, \"29\": {\"O\": 1}, \"30\": {\"O\": 1}, \"31\": {\"O\": 1}, \"32\": {\"O\": 1}, \"33\": {\"O\": 1}, \"34\": {\"O\": 1}, \"35\": {\"O\": 1}, \"36\": {\"O\": 1}, \"37\": {\"O\": 1}, \"38\": {\"O\": 1}, \"39\": {\"O\": 1}}" n_minim_iter=1 energy=-45149.851591974635 stress="-0.03764587191506552 -1.1332502869068904e-13 3.221340578196558e-13 -1.1332502869068904e-13 -0.03815929618304604 6.369737821794919e-13 3.221340578196558e-13 6.369737821794919e-13 -0.035328362458044896" free_energy=-45149.851591974635 pbc="T T T"
In       2.73904960       4.56875913       9.04885607        0      -0.00677664       0.00878212       0.02994033
In      -0.00630777       3.96661134       6.79007381        1      -0.00677664      -0.00878212      -0.02994033
In       2.75166515       1.72363564      14.70953874        2       0.00677664       0.00878212      -0.02994033
In       5.49702252       1.12148785       1.12939113        3       0.00677664      -0.00878212       0.02994033
In       2.75166515       1.12148785       6.79007381        4       0.00677664      -0.00878212      -0.02994033
In       5.49702252       1.72363564       9.04885607        5       0.00677664       0.00878212       0.02994033
In       2.73904960       3.96661134       1.12939113        6      -0.00677664      -0.00878212       0.02994033
In      -0.00630777       4.56875913      14.70953874        7      -0.00677664       0.00878212      -0.02994033
In       2.73321218       4.27467123      12.95935505        8       0.01722957      -0.01711206      -0.02073447
In       5.47856955       4.26069924       2.87957483        9       0.01722957       0.01711206       0.02073447
In       2.75750257       1.42954774      10.79903977       10      -0.01722957      -0.01711206       0.02073447
In       0.01214520       1.41557575       5.03989011       11      -0.01722957       0.01711206      -0.02073447
In       2.75750257       1.41557575       2.87957483       12      -0.01722957       0.01711206       0.02073447
In       0.01214520       1.42954774      12.95935505       13      -0.01722957      -0.01711206      -0.02073447
In       2.73321218       4.26069924       5.03989011       14       0.01722957       0.01711206      -0.02073447
In       5.47856955       4.27467123      10.79903977       15       0.01722957      -0.01711206       0.02073447
O        4.71554622       5.04772106      12.64442951       16       0.01929987       0.04112463       0.00954775
O        1.97018884       3.48764940       3.19450037       17       0.01929987      -0.04112463      -0.00954775
O        0.77516853       2.20259757      11.11396531       18      -0.01929987       0.04112463      -0.00954775
O        3.52052590       0.64252592       4.72496457       19      -0.01929987      -0.04112463       0.00954775
O        0.77516853       0.64252592       3.19450037       20      -0.01929987      -0.04112463      -0.00954775
O        3.52052590       2.20259757      12.64442951       21      -0.01929987       0.04112463       0.00954775
O        4.71554622       3.48764940       4.72496457       22       0.01929987      -0.04112463       0.00954775
O        1.97018884       5.04772106      11.11396531       23       0.01929987       0.04112463      -0.00954775
O        3.88255246       3.02299895       9.89951860       24       0.06413319      -0.02416291       0.04569209
O        1.13719509       5.51237151       5.93941127       25       0.06413319       0.02416291      -0.04569209
O        1.60816229       0.17787547      13.85887621       26      -0.06413319      -0.02416291      -0.04569209
O        4.35351966       2.66724802       1.98005366       27      -0.06413319       0.02416291       0.04569209
O        1.60816229       2.66724802       5.93941127       28      -0.06413319       0.02416291      -0.04569209
O        4.35351966       0.17787547       9.89951860       29      -0.06413319      -0.02416291       0.04569209
O        3.88255246       5.51237151       1.98005366       30       0.06413319       0.02416291       0.04569209
O        1.13719509       3.02299895      13.85887621       31       0.06413319      -0.02416291      -0.04569209
O        3.54274836       3.77512861      15.01193234       32      -0.04494174      -0.00705790      -0.05751698
O        0.79739098       4.76024185       0.82699754       33      -0.04494174       0.00705790       0.05751698
O        1.94796639       0.93000512       8.74646248       34       0.04494174      -0.00705790       0.05751698
O        4.69332377       1.91511836       7.09246740       35       0.04494174       0.00705790      -0.05751698
O        1.94796639       1.91511836       0.82699754       36       0.04494174       0.00705790       0.05751698
O        4.69332377       0.93000512      15.01193234       37       0.04494174      -0.00705790      -0.05751698
O        3.54274836       4.76024185       7.09246740       38      -0.04494174       0.00705790      -0.05751698
O        0.79739098       3.77512861       8.74646248       39      -0.04494174      -0.00705790       0.05751698
40
Lattice="5.494580876545546 -7.879760314341977e-43 0.0 8.007940810185056e-43 5.697676561596414 0.0 0.0 0.0 15.807146286815634" Properties=species:S:1:pos:R:3:spacegroup_kinds:I:1:forces:R:3 spacegroup="P 1" unit_cell=conventional occupancy="_JSON {\"0\": {\"In\": 1}, \"1\": {\"In\": 1}, \"2\": {\"In\": 1}, \"3\": {\"In\": 1}, \"4\": {\"In\": 1}, \"5\": {\"In\": 1}, \"6\": {\"In\": 1}, \"7\": {\"In\": 1}, \"8\": {\"In\": 1}, \"9\": {\"In\": 1}, \"10\": {\"In\": 1}, \"11\": {\"In\": 1}, \"12\": {\"In\": 1}, \"13\": {\"In\": 1}, \"14\": {\"In\": 1}, \"15\": {\"In\": 1}, \"16\": {\"O\": 1}, \"17\": {\"O\": 1}, \"18\": {\"O\": 1}, \"19\": {\"O\": 1}, \"20\": {\"O\": 1}, \"21\": {\"O\": 1}, \"22\": {\"O\": 1}, \"23\": {\"O\": 1}, \"24\": {\"O\": 1}, \"25\": {\"O\": 1}, \"26\": {\"O\": 1}, \"27\": {\"O\": 1}, \"28\": {\"O\": 1}, \"29\": {\"O\": 1}, \"30\": {\"O\": 1}, \"31\": {\"O\": 1}, \"32\": {\"O\": 1}, \"33\": {\"O\": 1}, \"34\": {\"O\": 1}, \"35\": {\"O\": 1}, \"36\": {\"O\": 1}, \"37\": {\"O\": 1}, \"38\": {\"O\": 1}, \"39\": {\"O\": 1}}" n_minim_iter=2 energy=-45149.853078663866 stress="-0.03654824992788799 1.025594112100675e-12 2.2155677119678651e-13 1.025594112100675e-12 -0.03689839621879795 4.232327458486865e-13 2.2155677119678651e-13 4.232327458486865e-13 -0.037052934400047255" free_energy=-45149.853078663866 pbc="T T T"
In       2.74096219       4.57474522       9.03076863        0      -0.02017841       0.00194246       0.05082851
In      -0.00632825       3.97176962       6.77637766        1      -0.02017841      -0.00194246      -0.05082851
In       2.75361869       1.72590694      14.67995080        2       0.02017841       0.00194246      -0.05082851
In       5.50090913       1.12293134       1.12719549        3       0.02017841      -0.00194246       0.05082851
In       2.75361869       1.12293134       6.77637766        4       0.02017841      -0.00194246      -0.05082851
In       5.50090913       1.72590694       9.03076863        5       0.02017841       0.00194246       0.05082851
In       2.74096219       3.97176962       1.12719549        6      -0.02017841      -0.00194246       0.05082851
In      -0.00632825       4.57474522      14.67995080        7      -0.02017841       0.00194246      -0.05082851
In       2.73517747       4.28021201      12.93330089        8       0.02980944      -0.02181808      -0.00901198
In       5.48246791       4.26630283       2.87384540        9       0.02980944       0.02181808       0.00901198
In       2.75940341       1.43137373      10.77741854       10      -0.02980944      -0.02181808       0.00901198
In       0.01211297       1.41746455       5.02972774       11      -0.02980944       0.02181808      -0.00901198
In       2.75940341       1.41746455       2.87384540       12      -0.02980944       0.02181808       0.00901198
In       0.01211297       1.43137373      12.93330089       13      -0.02980944      -0.02181808      -0.00901198
In       2.73517747       4.26630283       5.02972774       14       0.02980944       0.02181808      -0.00901198
In       5.48246791       4.28021201      10.77741854       15       0.02980944      -0.02181808       0.00901198
O        4.71891221       5.05440912      12.61907878       16       0.00731827       0.04398121       0.01756611
O        1.97162178       3.49210573       3.18806751       17       0.00731827      -0.04398121      -0.01756611
O        0.77566866       2.20557083      11.09164065       18      -0.00731827       0.04398121      -0.01756611
O        3.52295910       0.64326745       4.71550563       19      -0.00731827      -0.04398121       0.01756611
O        0.77566866       0.64326745       3.18806751       20      -0.00731827      -0.04398121      -0.01756611
O        3.52295910       2.20557083      12.61907878       21      -0.00731827       0.04398121       0.01756611
O        4.71891221       3.49210573       4.71550563       22       0.00731827      -0.04398121       0.01756611
O        1.97162178       5.05440912      11.09164065       23       0.00731827       0.04398121      -0.01756611
O        3.88543805       3.02688877       9.87976134       24       0.05827357      -0.01957835       0.04404970
O        1.13814761       5.51962608       5.92738495       25       0.05827357       0.01957835      -0.04404970
O        1.60914283       0.17805049      13.83095809       26      -0.05827357      -0.01957835      -0.04404970
O        4.35643327       2.67078779       1.97618819       27      -0.05827357       0.01957835       0.04404970
O        1.60914283       2.67078779       5.92738495       28      -0.05827357       0.01957835      -0.04404970
O        4.35643327       0.17805049       9.87976134       29      -0.05827357      -0.01957835       0.04404970
O        3.88543805       5.51962608       1.97618819       30       0.05827357       0.01957835       0.04404970
O        1.13814761       3.02688877      13.83095809       31       0.05827357      -0.01957835      -0.04404970
O        3.54513651       3.78004097      14.98167249       32      -0.02986020      -0.00867084      -0.07352654
O        0.79784607       4.76647387       0.82547379       33      -0.02986020       0.00867084       0.07352654
O        1.94944437       0.93120269       8.72904694       34       0.02986020      -0.00867084       0.07352654
O        4.69673481       1.91763559       7.07809935       35       0.02986020       0.00867084      -0.07352654
O        1.94944437       1.91763559       0.82547379       36       0.02986020       0.00867084       0.07352654
O        4.69673481       0.93120269      14.98167249       37       0.02986020      -0.00867084      -0.07352654
O        3.54513651       4.76647387       7.07809935       38      -0.02986020       0.00867084      -0.07352654
O        0.79784607       3.78004097       8.72904694       39      -0.02986020      -0.00867084       0.07352654
40
Lattice="5.486619509510447 -9.75958287942822e-43 0.0 6.714361174138783e-43 5.70660604081117 0.0 0.0 0.0 15.805312959098666" Properties=species:S:1:pos:R:3:spacegroup_kinds:I:1:forces:R:3 spacegroup="P 1" unit_cell=conventional occupancy="_JSON {\"0\": {\"In\": 1}, \"1\": {\"In\": 1}, \"2\": {\"In\": 1}, \"3\": {\"In\": 1}, \"4\": {\"In\": 1}, \"5\": {\"In\": 1}, \"6\": {\"In\": 1}, \"7\": {\"In\": 1}, \"8\": {\"In\": 1}, \"9\": {\"In\": 1}, \"10\": {\"In\": 1}, \"11\": {\"In\": 1}, \"12\": {\"In\": 1}, \"13\": {\"In\": 1}, \"14\": {\"In\": 1}, \"15\": {\"In\": 1}, \"16\": {\"O\": 1}, \"17\": {\"O\": 1}, \"18\": {\"O\": 1}, \"19\": {\"O\": 1}, \"20\": {\"O\": 1}, \"21\": {\"O\": 1}, \"22\": {\"O\": 1}, \"23\": {\"O\": 1}, \"24\": {\"O\": 1}, \"25\": {\"O\": 1}, \"26\": {\"O\": 1}, \"27\": {\"O\": 1}, \"28\": {\"O\": 1}, \"29\": {\"O\": 1}, \"30\": {\"O\": 1}, \"31\": {\"O\": 1}, \"32\": {\"O\": 1}, \"33\": {\"O\": 1}, \"34\": {\"O\": 1}, \"35\": {\"O\": 1}, \"36\": {\"O\": 1}, \"37\": {\"O\": 1}, \"38\": {\"O\": 1}, \"39\": {\"O\": 1}}" n_minim_iter=3 energy=-45149.85456632697 stress="-0.03774980083288347 3.0049771528975373e-13 9.734790425001197e-13 3.0049771528975373e-13 -0.03559914514530719 -4.911283090925843e-13 9.734790425001197e-13 -4.911283090925843e-13 -0.036622422153957994" free_energy=-45149.85456632697 pbc="T T T"
In       2.73668490       4.58196062       9.03051398        0       0.00021173       0.00858384       0.04229604
In      -0.00662486       3.97794844       6.77479898        1       0.00021173      -0.00858384      -0.04229604
In       2.74993461       1.72865760      14.67745545        2      -0.00021173       0.00858384      -0.04229604
In       5.49324436       1.12464542       1.12785750        3      -0.00021173      -0.00858384       0.04229604
In       2.74993461       1.12464542       6.77479898        4      -0.00021173      -0.00858384      -0.04229604
In       5.49324436       1.72865760       9.03051398        5      -0.00021173       0.00858384       0.04229604
In       2.73668490       3.97794844       1.12785750        6       0.00021173      -0.00858384       0.04229604
In      -0.00662486       4.58196062      14.67745545        7       0.00021173       0.00858384      -0.04229604
In       2.73168042       4.28656847      12.93162966        8       0.01223591      -0.02452978      -0.00669267
In       5.47499017       4.27334059       2.87368330        9       0.01223591       0.02452978       0.00669267
In       2.75493909       1.43326545      10.77633978       10      -0.01223591      -0.02452978       0.00669267
In       0.01162934       1.42003757       5.02897318       11      -0.01223591       0.02452978      -0.00669267
In       2.75493909       1.42003757       2.87368330       12      -0.01223591       0.02452978       0.00669267
In       0.01162934       1.43326545      12.93162966       13      -0.01223591      -0.02452978      -0.00669267
In       2.73168042       4.27334059       5.02897318       14       0.01223591       0.02452978      -0.00669267
In       5.47499017       4.28656847      10.77633978       15       0.01223591      -0.02452978       0.00669267
O        4.71221916       5.06305236      12.61788759       16       0.01028468       0.04402635       0.00809936
O        1.96890941       3.49685670       3.18742537       17       0.01028468      -0.04402635      -0.00809936
O        0.77440035       2.20974934      11.09008185       18      -0.01028468       0.04402635      -0.00809936
O        3.51771010       0.64355368       4.71523111       19      -0.01028468      -0.04402635       0.00809936
O        0.77440035       0.64355368       3.18742537       20      -0.01028468      -0.04402635      -0.00809936
O        3.51771010       2.20974934      12.61788759       21      -0.01028468       0.04402635       0.00809936
O        4.71221916       3.49685670       4.71523111       22       0.01028468      -0.04402635       0.00809936
O        1.96890941       5.06305236      11.09008185       23       0.01028468       0.04402635      -0.00809936
O        3.88077997       3.03129950       9.87934174       24       0.03769270      -0.01332074       0.03866130
O        1.13747021       5.52860956       5.92597122       25       0.03769270       0.01332074      -0.03866130
O        1.60583954       0.17799648      13.82862770       26      -0.03769270      -0.01332074      -0.03866130
O        4.34914930       2.67530654       1.97668526       27      -0.03769270       0.01332074       0.03866130
O        1.60583954       2.67530654       5.92597122       28      -0.03769270       0.01332074      -0.03866130
O        4.34914930       0.17799648       9.87934174       29      -0.03769270      -0.01332074       0.03866130
O        3.88077997       5.52860956       1.97668526       30       0.03769270       0.01332074       0.03866130
O        1.13747021       3.03129950      13.82862770       31       0.03769270      -0.01332074      -0.03866130
O        3.53947783       3.78582488      14.97875991       32      -0.03692056      -0.01578331      -0.05169421
O        0.79616807       4.77408418       0.82655305       33      -0.03692056       0.01578331       0.05169421
O        1.94714168       0.93252186       8.72920953       34       0.03692056      -0.01578331       0.05169421
O        4.69045144       1.92078116       7.07610343       35       0.03692056       0.01578331      -0.05169421
O        1.94714168       1.92078116       0.82655305       36       0.03692056       0.01578331       0.05169421
O        4.69045144       0.93252186      14.97875991       37       0.03692056      -0.01578331      -0.05169421
O        3.53947783       4.77408418       7.07610343       38      -0.03692056       0.01578331      -0.05169421
O        0.79616807       3.78582488       8.72920953       39      -0.03692056      -0.01578331       0.05169421
40
Lattice="5.4951929787424945 -9.925080879306584e-43 0.0 7.197966906683566e-43 5.70172257069627 0.0 0.0 0.0 15.794169863272673" Properties=species:S:1:pos:R:3:spacegroup_kinds:I:1:forces:R:3 spacegroup="P 1" unit_cell=conventional occupancy="_JSON {\"0\": {\"In\": 1}, \"1\": {\"In\": 1}, \"2\": {\"In\": 1}, \"3\": {\"In\": 1}, \"4\": {\"In\": 1}, \"5\": {\"In\": 1}, \"6\": {\"In\": 1}, \"7\": {\"In\": 1}, \"8\": {\"In\": 1}, \"9\": {\"In\": 1}, \"10\": {\"In\": 1}, \"11\": {\"In\": 1}, \"12\": {\"In\": 1}, \"13\": {\"In\": 1}, \"14\": {\"In\": 1}, \"15\": {\"In\": 1}, \"16\": {\"O\": 1}, \"17\": {\"O\": 1}, \"18\": {\"O\": 1}, \"19\": {\"O\": 1}, \"20\": {\"O\": 1}, \"21\": {\"O\": 1}, \"22\": {\"O\": 1}, \"23\": {\"O\": 1}, \"24\": {\"O\": 1}, \"25\": {\"O\": 1}, \"26\": {\"O\": 1}, \"27\": {\"O\": 1}, \"28\": {\"O\": 1}, \"29\": {\"O\": 1}, \"30\": {\"O\": 1}, \"31\": {\"O\": 1}, \"32\": {\"O\": 1}, \"33\": {\"O\": 1}, \"34\": {\"O\": 1}, \"35\": {\"O\": 1}, \"36\": {\"O\": 1}, \"37\": {\"O\": 1}, \"38\": {\"O\": 1}, \"39\": {\"O\": 1}}" n_minim_iter=4 energy=-45149.85850389999 stress="-0.035830429817224445 -3.7110218213615575e-13 5.129691879223836e-13 -3.7110218213615575e-13 -0.03593480854878152 -3.602515643778913e-14 5.129691879223836e-13 -3.602515643778913e-14 -0.03610805854567318" free_energy=-45149.85850389999 pbc="T T T"
In       2.74007138       4.57826571       9.02690237        0       0.01819542      -0.03776839      -0.01126587
In      -0.00752511       3.97431815       6.76726750        1       0.01819542       0.03776839       0.01126587
In       2.75512160       1.72740442      14.66435243        2      -0.01819542      -0.03776839       0.01126587
In       5.50271809       1.12345686       1.12981743        3      -0.01819542       0.03776839      -0.01126587
In       2.75512160       1.12345686       6.76726750        4      -0.01819542       0.03776839       0.01126587
In       5.50271809       1.72740442       9.02690237        5      -0.01819542      -0.03776839      -0.01126587
In       2.74007138       3.97431815       1.12981743        6       0.01819542       0.03776839      -0.01126587
In      -0.00752511       4.57826571      14.66435243        7       0.01819542      -0.03776839       0.01126587
In       2.73743964       4.28161450      12.92194011        8       0.00115444       0.01682401      -0.03054357
In       5.48503613       4.27096936       2.87222975        9       0.00115444      -0.01682401       0.03054357
In       2.75775334       1.43075321      10.76931469       10      -0.00115444       0.01682401       0.03054357
In       0.01015685       1.42010807       5.02485518       11      -0.00115444      -0.01682401      -0.03054357
In       2.75775334       1.42010807       2.87222975       12      -0.00115444      -0.01682401       0.03054357
In       0.01015685       1.43075321      12.92194011       13      -0.00115444       0.01682401      -0.03054357
In       2.73743964       4.27096936       5.02485518       14       0.00115444      -0.01682401      -0.03054357
In       5.48503613       4.28161450      10.76931469       15       0.00115444       0.01682401       0.03054357
O        4.72011609       5.06129374      12.60987053       16      -0.00679235       0.01881984      -0.02321121
O        1.97251960       3.49129011       3.18429933       17      -0.00679235      -0.01881984       0.02321121
O        0.77507689       2.21043246      11.08138427       18       0.00679235       0.01881984       0.02321121
O        3.52267338       0.64042883       4.71278560       19       0.00679235      -0.01881984      -0.02321121
O        0.77507689       0.64042883       3.18429933       20       0.00679235      -0.01881984       0.02321121
O        3.52267338       2.21043246      12.60987053       21       0.00679235       0.01881984      -0.02321121
O        4.72011609       3.49129011       4.71278560       22      -0.00679235      -0.01881984      -0.02321121
O        1.97251960       5.06129374      11.08138427       23      -0.00679235       0.01881984       0.02321121
O        3.89008690       3.02759094       9.87490368       24       0.00044832      -0.00172177       0.02695646
O        1.14249041       5.52499292       5.91926618       25       0.00044832       0.00172177      -0.02695646
O        1.60510608       0.17672965      13.81635112       26      -0.00044832      -0.00172177      -0.02695646
O        4.35270257       2.67413163       1.97781875       27      -0.00044832       0.00172177       0.02695646
O        1.60510608       2.67413163       5.91926618       28      -0.00044832       0.00172177      -0.02695646
O        4.35270257       0.17672965       9.87490368       29      -0.00044832      -0.00172177       0.02695646
O        3.89008690       5.52499292       1.97781875       30       0.00044832       0.00172177       0.02695646
O        1.14249041       3.02759094      13.81635112       31       0.00044832      -0.00172177      -0.02695646
O        3.54308833       3.78200855      14.96422875       32      -0.01968400       0.01043708       0.01255729
O        0.79549184       4.77057531       0.82994111       33      -0.01968400      -0.01043708      -0.01255729
O        1.95210465       0.93114726       8.72702604       34       0.01968400       0.01043708      -0.01255729
O        4.69970114       1.91971402       7.06714382       35       0.01968400      -0.01043708       0.01255729
O        1.95210465       1.91971402       0.82994111       36       0.01968400      -0.01043708      -0.01255729
O        4.69970114       0.93114726      14.96422875       37       0.01968400       0.01043708       0.01255729
O        3.54308833       4.77057531       7.06714382       38      -0.01968400      -0.01043708       0.01255729
O        0.79549184       3.78200855       8.72702604       39      -0.01968400       0.01043708      -0.01255729
40
Lattice="5.493215736072127 -9.133317583407066e-43 0.0 7.19370044085981e-43 5.698694957141766 0.0 0.0 0.0 15.808249035850155" Properties=species:S:1:pos:R:3:spacegroup_kinds:I:1:forces:R:3 spacegroup="P 1" unit_cell=conventional occupancy="_JSON {\"0\": {\"In\": 1}, \"1\": {\"In\": 1}, \"2\": {\"In\": 1}, \"3\": {\"In\": 1}, \"4\": {\"In\": 1}, \"5\": {\"In\": 1}, \"6\": {\"In\": 1}, \"7\": {\"In\": 1}, \"8\": {\"In\": 1}, \"9\": {\"In\": 1}, \"10\": {\"In\": 1}, \"11\": {\"In\": 1}, \"12\": {\"In\": 1}, \"13\": {\"In\": 1}, \"14\": {\"In\": 1}, \"15\": {\"In\": 1}, \"16\": {\"O\": 1}, \"17\": {\"O\": 1}, \"18\": {\"O\": 1}, \"19\": {\"O\": 1}, \"20\": {\"O\": 1}, \"21\": {\"O\": 1}, \"22\": {\"O\": 1}, \"23\": {\"O\": 1}, \"24\": {\"O\": 1}, \"25\": {\"O\": 1}, \"26\": {\"O\": 1}, \"27\": {\"O\": 1}, \"28\": {\"O\": 1}, \"29\": {\"O\": 1}, \"30\": {\"O\": 1}, \"31\": {\"O\": 1}, \"32\": {\"O\": 1}, \"33\": {\"O\": 1}, \"34\": {\"O\": 1}, \"35\": {\"O\": 1}, \"36\": {\"O\": 1}, \"37\": {\"O\": 1}, \"38\": {\"O\": 1}, \"39\": {\"O\": 1}}" n_minim_iter=5 energy=-45149.86053301233 stress="-0.03612182782600394 -8.5445655541054e-13 -9.134843826616943e-13 -8.5445655541054e-13 -0.03567260191800012 -3.7557260501933263e-13 -9.134843826616943e-13 -3.7557260501933263e-13 -0.035091447838201846" free_energy=-45149.86053301233 pbc="T T T"
In       2.74007382       4.57327191       9.03534246        0       0.00253605      -0.01171910      -0.01760238
In      -0.00653404       3.97477052       6.77290658        1       0.00253605       0.01171910       0.01760238
In       2.75314191       1.72392444      14.67703109        2      -0.00253605      -0.01171910       0.01760238
In       5.49974978       1.12542304       1.13121794        3      -0.00253605       0.01171910      -0.01760238
In       2.75314191       1.12542304       6.77290658        4      -0.00253605       0.01171910       0.01760238
In       5.49974978       1.72392444       9.03534246        5      -0.00253605      -0.01171910      -0.01760238
In       2.74007382       3.97477052       1.13121794        6       0.00253605       0.01171910      -0.01760238
In      -0.00653404       4.57327191      14.67703109        7       0.00253605      -0.01171910       0.01760238
In       2.73714604       4.27995602      12.93097264        8      -0.00290998       0.00726328      -0.00709986
In       5.48375391       4.26808642       2.87727640        9      -0.00290998      -0.00726328       0.00709986
In       2.75606969       1.43060854      10.78140092       10       0.00290998       0.00726328       0.00709986
In       0.00946183       1.41873894       5.02684812       11       0.00290998      -0.00726328      -0.00709986
In       2.75606969       1.41873894       2.87727640       12       0.00290998      -0.00726328       0.00709986
In       0.00946183       1.43060854      12.93097264       13       0.00290998       0.00726328      -0.00709986
In       2.73714604       4.26808642       5.02684812       14      -0.00290998      -0.00726328      -0.00709986
In       5.48375391       4.27995602      10.78140092       15      -0.00290998       0.00726328       0.00709986
O        4.71823687       5.06115854      12.61981732       16      -0.00780283       0.01106675      -0.00148508
O        1.97162900       3.48688389       3.18843172       17      -0.00780283      -0.01106675       0.00148508
O        0.77497887       2.21181106      11.09255624       18       0.00780283       0.01106675       0.00148508
O        3.52158674       0.63753642       4.71569280       19       0.00780283      -0.01106675      -0.00148508
O        0.77497887       0.63753642       3.18843172       20       0.00780283      -0.01106675       0.00148508
O        3.52158674       2.21181106      12.61981732       21       0.00780283       0.01106675      -0.00148508
O        4.71823687       3.48688389       4.71569280       22      -0.00780283      -0.01106675      -0.00148508
O        1.97162900       5.06115854      11.09255624       23      -0.00780283       0.01106675       0.00148508
O        3.89021836       3.02533228       9.88681156       24      -0.00558541      -0.00223747       0.01931938
O        1.14361049       5.52271016       5.92143748       25      -0.00558541       0.00223747      -0.01931938
O        1.60299738       0.17598480      13.82556200       26       0.00558541      -0.00223747      -0.01931938
O        4.34960525       2.67336268       1.98268704       27       0.00558541       0.00223747       0.01931938
O        1.60299738       2.67336268       5.92143748       28       0.00558541       0.00223747      -0.01931938
O        4.34960525       0.17598480       9.88681156       29       0.00558541      -0.00223747       0.01931938
O        3.89021836       5.52271016       1.98268704       30      -0.00558541       0.00223747       0.01931938
O        1.14361049       3.02533228      13.82556200       31      -0.00558541      -0.00223747      -0.01931938
O        3.53942170       3.78046730      14.97670677       32      -0.00543007       0.01436048       0.01816542
O        0.79281384       4.76757513       0.83154226       33      -0.00543007      -0.01436048      -0.01816542
O        1.95379403       0.93111982       8.73566678       34       0.00543007       0.01436048      -0.01816542
O        4.70040190       1.91822766       7.07258226       35       0.00543007      -0.01436048       0.01816542
O        1.95379403       1.91822766       0.83154226       36       0.00543007      -0.01436048      -0.01816542
O        4.70040190       0.93111982      14.97670677       37       0.00543007       0.01436048       0.01816542
O        3.53942170       4.76757513       7.07258226       38      -0.00543007      -0.01436048       0.01816542
O        0.79281384       3.78046730       8.73566678       39      -0.00543007       0.01436048      -0.01816542
40