40
Lattice="5.540524634261051 -1.2744650083384266e-42 0.0 1.316964552832167e-42 5.7252843347407305 0.0 0.0 0.0 16.011016136548854" Properties=species:S:1:pos:R:3:spacegroup_kinds:I:1:forces:R:3 spacegroup="P 1" unit_cell=conventional occupancy="_JSON {\"0\": {\"In\": 1}, \"1\": {\"In\": 1}, \"2\": {\"In\": 1}, \"3\": {\"In\": 1}, \"4\": {\"In\": 1}, \"5\": {\"In\": 1}, \"6\": {\"In\": 1}, \"7\": {\"In\": 1}, \"8\": {\"In\": 1}, \"9\": {\"In\": 1}, \"10\": {\"In\": 1}, \"11\": {\"In\": 1}, \"12\": {\"In\": 1}, \"13\": {\"In\": 1}, \"14\": {\"In\": 1}, \"15\": {\"In\": 1}, \"16\": {\"O\": 1}, \"17\": {\"O\": 1}, \"18\": {\"O\": 1}, \"19\": {\"O\": 1}, \"20\": {\"O\": 1}, \"21\": {\"O\": 1}, \"22\": {\"O\": 1}, \"23\": {\"O\": 1}, \"24\": {\"O\": 1}, \"25\": {\"O\": 1}, \"26\": {\"O\": 1}, \"27\": {\"O\": 1}, \"28\": {\"O\": 1}, \"29\": {\"O\": 1}, \"30\": {\"O\": 1}, \"31\": {\"O\": 1}, \"32\": {\"O\": 1}, \"33\": {\"O\": 1}, \"34\": {\"O\": 1}, \"35\": {\"O\": 1}, \"36\": {\"O\": 1}, \"37\": {\"O\": 1}, \"38\": {\"O\": 1}, \"39\": {\"O\": 1}}" n_minim_iter=1 energy=-45150.2945221777 stress="0.00015591914527674479 1.1189199860571699e-13 -6.804788228316454e-14 1.1189199860571699e-13 0.00024697507003190896 -3.515455273214336e-13 -6.804788228316454e-14 -3.515455273214336e-13 0.00025087503201360505" free_energy=-45150.2945221777 pbc="T T T"
In       2.75867640       4.58626218       9.14340721        0      -0.00022338       0.00512873      -0.00256339
In      -0.01158592       4.00166432       6.86760893        1      -0.00022338      -0.00512873       0.00256339
In       2.78184824       1.72362002      14.87311699        2       0.00022338       0.00512873       0.00256339
In       5.55211056       1.13902215       1.13789914        3       0.00022338      -0.00512873      -0.00256339
In       2.78184824       1.13902215       6.86760893        4       0.00022338      -0.00512873       0.00256339
In       5.55211056       1.72362002       9.14340721        5       0.00022338       0.00512873      -0.00256339
In       2.75867640       4.00166432       1.13789914        6      -0.00022338      -0.00512873      -0.00256339
In      -0.01158592       4.58626218      14.87311699        7      -0.00022338       0.00512873       0.00256339
In       2.74959211       4.28936515      13.10049005        8       0.00753308       0.00379247       0.00103893
In       5.51985443       4.29856136       2.91052609        9       0.00753308      -0.00379247      -0.00103893
In       2.79093252       1.42672298      10.91603416       10      -0.00753308       0.00379247      -0.00103893
In       0.02067021       1.43591919       5.09498198       11      -0.00753308      -0.00379247       0.00103893
In       2.79093252       1.43591919       2.91052609       12      -0.00753308      -0.00379247      -0.00103893
In       0.02067021       1.42672298      13.10049005       13      -0.00753308       0.00379247       0.00103893
In       2.74959211       4.29856136       5.09498198       14       0.00753308      -0.00379247       0.00103893
In       5.51985443       4.28936515      10.91603416       15       0.00753308       0.00379247      -0.00103893
O        4.75501745       5.06126957      12.78089426       16       0.00126161      -0.00355088      -0.00162827
O        1.98475514       3.52665694       3.23012188       17       0.00126161       0.00355088       0.00162827
O        0.78550718       2.19862740      11.23562995       18      -0.00126161      -0.00355088       0.00162827
O        3.55576950       0.66401477       4.77538619       19      -0.00126161       0.00355088      -0.00162827
O        0.78550718       0.66401477       3.23012188       20      -0.00126161       0.00355088       0.00162827
O        3.55576950       2.19862740      12.78089426       21      -0.00126161      -0.00355088      -0.00162827
O        4.75501745       3.52665694       4.77538619       22       0.00126161       0.00355088      -0.00162827
O        1.98475514       5.06126957      11.23562995       23       0.00126161      -0.00355088       0.00162827
O        3.91441906       3.03155041       9.99848758       24      -0.00298065      -0.00119998       0.00296491
O        1.14415674       5.55637609       6.01252856       25      -0.00298065       0.00119998      -0.00296491
O        1.62610558       0.16890825      14.01803662       26       0.00298065      -0.00119998      -0.00296491
O        4.39636789       2.69373392       1.99297951       27       0.00298065       0.00119998       0.00296491
O        1.62610558       2.69373392       6.01252856       28       0.00298065       0.00119998      -0.00296491
O        4.39636789       0.16890825       9.99848758       29       0.00298065      -0.00119998       0.00296491
O        3.91441906       5.55637609       1.99297951       30      -0.00298065       0.00119998       0.00296491
O        1.14415674       3.03155041      14.01803662       31      -0.00298065      -0.00119998      -0.00296491
O        3.57387159       3.79381039      15.17901517       32       0.00674910       0.00141838       0.00297653
O        0.80360927       4.79411611       0.83200097       33       0.00674910      -0.00141838      -0.00297653
O        1.96665305       0.93116822       8.83750904       34      -0.00674910       0.00141838      -0.00297653
O        4.73691537       1.93147395       7.17350710       35      -0.00674910      -0.00141838       0.00297653
O        1.96665305       1.93147395       0.83200097       36      -0.00674910      -0.00141838      -0.00297653
O        4.73691537       0.93116822      15.17901517       37      -0.00674910       0.00141838       0.00297653
O        3.57387159       4.79411611       7.17350710       38       0.00674910      -0.00141838       0.00297653
O        0.80360927       3.79381039       8.83750904       39       0.00674910       0.00141838      -0.00297653
