40
Lattice="5.883591623548253 -3.3106843536047825e-42 0.0 3.4024523923360463e-42 6.2309614593164815 0.0 0.0 0.0 17.05084433991918" Properties=species:S:1:pos:R:3:spacegroup_kinds:I:1:forces:R:3 spacegroup="P 1" unit_cell=conventional occupancy="_JSON {\"0\": {\"In\": 1}, \"1\": {\"In\": 1}, \"2\": {\"In\": 1}, \"3\": {\"In\": 1}, \"4\": {\"In\": 1}, \"5\": {\"In\": 1}, \"6\": {\"In\": 1}, \"7\": {\"In\": 1}, \"8\": {\"In\": 1}, \"9\": {\"In\": 1}, \"10\": {\"In\": 1}, \"11\": {\"In\": 1}, \"12\": {\"In\": 1}, \"13\": {\"In\": 1}, \"14\": {\"In\": 1}, \"15\": {\"In\": 1}, \"16\": {\"O\": 1}, \"17\": {\"O\": 1}, \"18\": {\"O\": 1}, \"19\": {\"O\": 1}, \"20\": {\"O\": 1}, \"21\": {\"O\": 1}, \"22\": {\"O\": 1}, \"23\": {\"O\": 1}, \"24\": {\"O\": 1}, \"25\": {\"O\": 1}, \"26\": {\"O\": 1}, \"27\": {\"O\": 1}, \"28\": {\"O\": 1}, \"29\": {\"O\": 1}, \"30\": {\"O\": 1}, \"31\": {\"O\": 1}, \"32\": {\"O\": 1}, \"33\": {\"O\": 1}, \"34\": {\"O\": 1}, \"35\": {\"O\": 1}, \"36\": {\"O\": 1}, \"37\": {\"O\": 1}, \"38\": {\"O\": 1}, \"39\": {\"O\": 1}}" n_minim_iter=11 energy=-45146.77247784839 stress="0.04450949881611172 -4.712483445090643e-13 -1.6299280447320198e-13 -4.712483445090643e-13 0.04453000374426923 -1.0919268592863463e-13 -1.6299280447320198e-13 -1.0919268592863463e-13 0.044491943235749426" free_energy=-45146.77247784839 pbc="T T T"
In       2.66793124       5.16872672       9.81780620        0      -0.00312615       0.00428049      -0.00027404
In      -0.27386457       4.17771547       7.23303814        1      -0.00312615      -0.00428049       0.00027404
In       3.21566038       2.05324599      15.75846031        2       0.00312615       0.00428049       0.00027404
In       6.15745619       1.06223474       1.29238403        3       0.00312615      -0.00428049      -0.00027404
In       3.21566038       1.06223474       7.23303814        4       0.00312615      -0.00428049       0.00027404
In       6.15745619       2.05324599       9.81780620        5       0.00312615       0.00428049      -0.00027404
In       2.66793124       4.17771547       1.29238403        6      -0.00312615      -0.00428049      -0.00027404
In      -0.27386457       5.16872672      15.75846031        7      -0.00312615       0.00428049       0.00027404
In       2.68082778       4.99985654      13.87143222        8       0.00812530       0.00471559       0.00111851
In       5.62262360       4.34658565       3.17941212        9       0.00812530      -0.00471559      -0.00111851
In       3.20276384       1.88437581      11.70483429       10      -0.00812530       0.00471559      -0.00111851
In       0.26096803       1.23110492       5.34601005       11      -0.00812530      -0.00471559       0.00111851
In       3.20276384       1.23110492       3.17941212       12      -0.00812530      -0.00471559      -0.00111851
In       0.26096803       1.88437581      13.87143222       13      -0.00812530       0.00471559       0.00111851
In       2.68082778       4.34658565       5.34601005       14       0.00812530      -0.00471559       0.00111851
In       5.62262360       4.99985654      11.70483429       15       0.00812530       0.00471559      -0.00111851
O        4.80299027       5.60699739      13.67161076       16      -0.00548683       0.00532176      -0.00288937
O        1.86119446       3.73944480       3.37923358       17      -0.00548683      -0.00532176       0.00288937
O        1.08060135       2.49151666      11.90465575       18       0.00548683       0.00532176       0.00288937
O        4.02239716       0.62396407       5.14618859       19       0.00548683      -0.00532176      -0.00288937
O        1.08060135       0.62396407       3.37923358       20       0.00548683      -0.00532176       0.00288937
O        4.02239716       2.49151666      13.67161076       21       0.00548683       0.00532176      -0.00288937
O        4.80299027       3.73944480       5.14618859       22      -0.00548683      -0.00532176      -0.00288937
O        1.86119446       5.60699739      11.90465575       23      -0.00548683       0.00532176       0.00288937
O        4.07681184       3.72697253      10.79595784       24      -0.00592105       0.00590593      -0.00106816
O        1.13501603       5.61946966       6.25488649       25      -0.00592105      -0.00590593       0.00106816
O        1.80677979       0.61149180      14.78030866       26       0.00592105       0.00590593       0.00106816
O        4.74857560       2.50398893       2.27053567       27       0.00592105      -0.00590593      -0.00106816
O        1.80677979       2.50398893       6.25488649       28       0.00592105      -0.00590593       0.00106816
O        4.74857560       0.61149180      10.79595784       29       0.00592105       0.00590593      -0.00106816
O        4.07681184       5.61946966       2.27053567       30      -0.00592105      -0.00590593      -0.00106816
O        1.13501603       3.72697253      14.78030866       31      -0.00592105       0.00590593       0.00106816
O        3.71286588       4.13993984      16.34228598       32      -0.00146600       0.00086344      -0.00382028
O        0.77107007       5.20650235       0.70855836       33      -0.00146600      -0.00086344       0.00382028
O        2.17072574       1.02445911       9.23398053       34       0.00146600       0.00086344       0.00382028
O        5.11252155       2.09102162       7.81686381       35       0.00146600      -0.00086344      -0.00382028
O        2.17072574       2.09102162       0.70855836       36       0.00146600      -0.00086344       0.00382028
O        5.11252155       1.02445911      16.34228598       37       0.00146600       0.00086344      -0.00382028
O        3.71286588       5.20650235       7.81686381       38      -0.00146600      -0.00086344      -0.00382028
O        0.77107007       4.13993984       9.23398053       39      -0.00146600       0.00086344       0.00382028
