40
Lattice="5.20413323932064 9.721905323507849e-43 -9.497489422744547e-81 -1.014645789068694e-42 5.431396111481425 1.9344453831845267e-37 1.171872571365183e-79 -4.922759333659102e-37 13.821768314067961" Properties=species:S:1:pos:R:3:spacegroup_kinds:I:1:forces:R:3 spacegroup="P 1" unit_cell=conventional occupancy="_JSON {\"0\": {\"In\": 1}, \"1\": {\"In\": 1}, \"2\": {\"In\": 1}, \"3\": {\"In\": 1}, \"4\": {\"In\": 1}, \"5\": {\"In\": 1}, \"6\": {\"In\": 1}, \"7\": {\"In\": 1}, \"8\": {\"In\": 1}, \"9\": {\"In\": 1}, \"10\": {\"In\": 1}, \"11\": {\"In\": 1}, \"12\": {\"In\": 1}, \"13\": {\"In\": 1}, \"14\": {\"In\": 1}, \"15\": {\"In\": 1}, \"16\": {\"O\": 1}, \"17\": {\"O\": 1}, \"18\": {\"O\": 1}, \"19\": {\"O\": 1}, \"20\": {\"O\": 1}, \"21\": {\"O\": 1}, \"22\": {\"O\": 1}, \"23\": {\"O\": 1}, \"24\": {\"O\": 1}, \"25\": {\"O\": 1}, \"26\": {\"O\": 1}, \"27\": {\"O\": 1}, \"28\": {\"O\": 1}, \"29\": {\"O\": 1}, \"30\": {\"O\": 1}, \"31\": {\"O\": 1}, \"32\": {\"O\": 1}, \"33\": {\"O\": 1}, \"34\": {\"O\": 1}, \"35\": {\"O\": 1}, \"36\": {\"O\": 1}, \"37\": {\"O\": 1}, \"38\": {\"O\": 1}, \"39\": {\"O\": 1}}" n_minim_iter=1 energy=-45132.75402653951 stress="-0.3956854468139547 3.3889300533534145e-13 -6.636352040837123e-14 3.3889300533534145e-13 -0.39190467594879425 1.0830425364143956e-12 -6.636352040837123e-14 1.0830425364143956e-12 -0.384522454009936" free_energy=-45132.75402653951 pbc="T T T"
In       2.81842082       3.82414213       7.57184459        0       0.05318256       0.11668779      -0.16864874
In       0.21635420       4.32295204       6.24992373        1       0.05318256      -0.11668779       0.16864874
In       2.38571242       1.10844408      13.16080789        2      -0.05318256       0.11668779       0.16864874
In       4.98777904       1.60725398       0.66096043        3      -0.05318256      -0.11668779      -0.16864874
In       2.38571242       1.60725398       6.24992373        4      -0.05318256      -0.11668779       0.16864874
In       4.98777904       1.10844408       7.57184459        5      -0.05318256       0.11668779      -0.16864874
In       2.81842082       4.32295204       0.66096043        6       0.05318256      -0.11668779      -0.16864874
In       0.21635420       3.82414213      13.16080789        7       0.05318256       0.11668779       0.16864874
In       2.73434262       3.17332529      11.22785186        8      -0.12545403      -0.34489044       0.38532591
In       5.33640924       4.97376888       2.59391645        9      -0.12545403       0.34489044      -0.38532591
In       2.46979062       0.45762723       9.50480061       10       0.12545403      -0.34489044      -0.38532591
In      -0.13227600       2.25807082       4.31696770       11       0.12545403       0.34489044       0.38532591
In       2.46979062       2.25807082       2.59391645       12       0.12545403       0.34489044      -0.38532591
In      -0.13227600       0.45762723      11.22785186       13       0.12545403      -0.34489044       0.38532591
In       2.73434262       4.97376888       4.31696770       14      -0.12545403       0.34489044       0.38532591
In       5.33640924       3.17332529       9.50480061       15      -0.12545403      -0.34489044      -0.38532591
O        4.61078433       3.93778822      11.18224903       16      -0.00467752       0.03335523       0.09080318
O        2.00871771       4.20930595       2.63951929       17      -0.00467752      -0.03335523      -0.09080318
O        0.59334891       1.22209016       9.55040345       18       0.00467752       0.03335523      -0.09080318
O        3.19541553       1.49360789       4.27136487       19       0.00467752      -0.03335523       0.09080318
O        0.59334891       1.49360789       2.63951929       20       0.00467752      -0.03335523      -0.09080318
O        3.19541553       1.22209016      11.18224903       21       0.00467752       0.03335523       0.09080318
O        4.61078433       4.20930595       4.27136487       22      -0.00467752      -0.03335523       0.09080318
O        2.00871771       3.93778822       9.55040345       23      -0.00467752       0.03335523      -0.09080318
O        3.44160949       2.10433790       8.65877325       24       0.06907415       0.07193798       0.16731859
O        0.83954287       6.04275627       5.16299507       25       0.06907415      -0.07193798      -0.16731859
O        1.76252375      -0.61136016      12.07387923       26      -0.06907415       0.07193798      -0.16731859
O        4.36459037       3.32705821       1.74788909       27      -0.06907415      -0.07193798       0.16731859
O        1.76252375       3.32705821       5.16299507       28      -0.06907415      -0.07193798      -0.16731859
O        4.36459037      -0.61136016       8.65877325       29      -0.06907415       0.07193798       0.16731859
O        3.44160949       6.04275627       1.74788909       30       0.06907415      -0.07193798       0.16731859
O        0.83954287       2.10433790      12.07387923       31       0.06907415       0.07193798      -0.16731859
O        3.59285775       2.85570520      13.16980582       32      -0.10987026       0.05828013       0.11709113
O        0.99079113       5.29138897       0.65196249       33      -0.10987026      -0.05828013      -0.11709113
O        1.61127549       0.14000714       7.56284665       34       0.10987026       0.05828013      -0.11709113
O        4.21334211       2.57569092       6.25892167       35       0.10987026      -0.05828013       0.11709113
O        1.61127549       2.57569092       0.65196249       36       0.10987026      -0.05828013      -0.11709113
O        4.21334211       0.14000714      13.16980582       37       0.10987026       0.05828013       0.11709113
O        3.59285775       5.29138897       6.25892167       38      -0.10987026      -0.05828013       0.11709113
O        0.99079113       2.85570520       7.56284665       39      -0.10987026       0.05828013      -0.11709113
40
Lattice="5.217213265748954 9.99981686122788e-43 5.079830191930998e-79 -1.045871025846721e-42 5.434682927449975 3.088408649770797e-36 9.838366392050592e-80 6.615722626774015e-36 13.778777644345316" Properties=species:S:1:pos:R:3:spacegroup_kinds:I:1:forces:R:3 spacegroup="P 1" unit_cell=conventional occupancy="_JSON {\"0\": {\"In\": 1}, \"1\": {\"In\": 1}, \"2\": {\"In\": 1}, \"3\": {\"In\": 1}, \"4\": {\"In\": 1}, \"5\": {\"In\": 1}, \"6\": {\"In\": 1}, \"7\": {\"In\": 1}, \"8\": {\"In\": 1}, \"9\": {\"In\": 1}, \"10\": {\"In\": 1}, \"11\": {\"In\": 1}, \"12\": {\"In\": 1}, \"13\": {\"In\": 1}, \"14\": {\"In\": 1}, \"15\": {\"In\": 1}, \"16\": {\"O\": 1}, \"17\": {\"O\": 1}, \"18\": {\"O\": 1}, \"19\": {\"O\": 1}, \"20\": {\"O\": 1}, \"21\": {\"O\": 1}, \"22\": {\"O\": 1}, \"23\": {\"O\": 1}, \"24\": {\"O\": 1}, \"25\": {\"O\": 1}, \"26\": {\"O\": 1}, \"27\": {\"O\": 1}, \"28\": {\"O\": 1}, \"29\": {\"O\": 1}, \"30\": {\"O\": 1}, \"31\": {\"O\": 1}, \"32\": {\"O\": 1}, \"33\": {\"O\": 1}, \"34\": {\"O\": 1}, \"35\": {\"O\": 1}, \"36\": {\"O\": 1}, \"37\": {\"O\": 1}, \"38\": {\"O\": 1}, \"39\": {\"O\": 1}}" n_minim_iter=2 energy=-45132.76224135854 stress="-0.38716335688213416 -4.186872314412267e-14 -5.539799513741726e-13 -4.186872314412267e-14 -0.38941201679998083 5.034232706756246e-13 -5.539799513741726e-13 5.034232706756246e-13 -0.39104300840816664" free_energy=-45132.76224135854 pbc="T T T"
In       2.82557339       3.82660692       7.54807656        0       0.02774902       0.08833977      -0.16590651
In       0.21696675       4.32541747       6.23070108        1       0.02774902      -0.08833977       0.16590651
In       2.39163988       1.10926546      13.12008990        2      -0.02774902       0.08833977       0.16590651
In       5.00024651       1.60807601       0.65868774        3      -0.02774902      -0.08833977      -0.16590651
In       2.39163988       1.60807601       6.23070108        4      -0.02774902      -0.08833977       0.16590651
In       5.00024651       1.10926546       7.54807656        5      -0.02774902       0.08833977      -0.16590651
In       2.82557339       4.32541747       0.65868774        6       0.02774902      -0.08833977      -0.16590651
In       0.21696675       3.82660692      13.12008990        7       0.02774902       0.08833977       0.16590651
In       2.74105287       3.17480049      11.19342469        8      -0.07225354      -0.33613820       0.35982878
In       5.34965950       4.97722390       2.58535296        9      -0.07225354       0.33613820      -0.35982878
In       2.47616040       0.45745903       9.47474178       10       0.07225354      -0.33613820      -0.35982878
In      -0.13244623       2.25988244       4.30403586       11       0.07225354       0.33613820       0.35982878
In       2.47616040       2.25988244       2.58535296       12       0.07225354       0.33613820      -0.35982878
In      -0.13244623       0.45745903      11.19342469       13       0.07225354      -0.33613820       0.35982878
In       2.74105287       4.97722390       4.30403586       14      -0.07225354       0.33613820       0.35982878
In       5.34965950       3.17480049       9.47474178       15      -0.07225354      -0.33613820      -0.35982878
O        4.62236699       3.94021423      11.14758497       16      -0.07044193       0.02327393       0.08859948
O        2.01376035       4.21181016       2.63119267       17      -0.07044193      -0.02327393      -0.08859948
O        0.59484628       1.22287276       9.52058150       18       0.07044193       0.02327393      -0.08859948
O        3.20345291       1.49446870       4.25819615       19       0.07044193      -0.02327393       0.08859948
O        0.59484628       1.49446870       2.63119267       20       0.07044193      -0.02327393      -0.08859948
O        3.20345291       1.22287276      11.14758497       21       0.07044193       0.02327393       0.08859948
O        4.62236699       4.21181016       4.25819615       22      -0.07044193      -0.02327393       0.08859948
O        2.01376035       3.94021423       9.52058150       23      -0.07044193       0.02327393      -0.08859948
O        3.45034892       2.10570419       8.63205650       24       0.04621374       0.07959814       0.16999122
O        0.84174229       6.04632020       5.14672115       25       0.04621374      -0.07959814      -0.16999122
O        1.76686435      -0.61163728      12.03610997       26      -0.04621374       0.07959814      -0.16999122
O        4.37547098       3.32897874       1.74266768       27      -0.04621374      -0.07959814       0.16999122
O        1.76686435       3.32897874       5.14672115       28      -0.04621374      -0.07959814      -0.16999122
O        4.37547098      -0.61163728       8.63205650       29      -0.04621374       0.07959814       0.16999122
O        3.45034892       6.04632020       1.74266768       30       0.04621374      -0.07959814       0.16999122
O        0.84174229       2.10570419      12.03610997       31       0.04621374       0.07959814      -0.16999122
O        3.60174593       2.85750855      13.12899356       32      -0.06907550       0.05088479       0.12208189
O        0.99313930       5.29451584       0.64978409       33      -0.06907550      -0.05088479      -0.12208189
O        1.61546733       0.14016709       7.53917291       34       0.06907550       0.05088479      -0.12208189
O        4.22407397       2.57717438       6.23960474       35       0.06907550      -0.05088479       0.12208189
O        1.61546733       2.57717438       0.64978409       36       0.06907550      -0.05088479      -0.12208189
O        4.22407397       0.14016709      13.12899356       37       0.06907550       0.05088479       0.12208189
O        3.60174593       5.29451584       6.23960474       38      -0.06907550      -0.05088479       0.12208189
O        0.99313930       2.85750855       7.53917291       39      -0.06907550       0.05088479      -0.12208189
40
Lattice="5.204086754267722 9.972197495387617e-43 5.268959732516365e-79 -1.0473178358596515e-42 5.452184592184159 3.177144902292499e-36 9.766721055325293e-80 6.867327403691361e-36 13.76919067488748" Properties=species:S:1:pos:R:3:spacegroup_kinds:I:1:forces:R:3 spacegroup="P 1" unit_cell=conventional occupancy="_JSON {\"0\": {\"In\": 1}, \"1\": {\"In\": 1}, \"2\": {\"In\": 1}, \"3\": {\"In\": 1}, \"4\": {\"In\": 1}, \"5\": {\"In\": 1}, \"6\": {\"In\": 1}, \"7\": {\"In\": 1}, \"8\": {\"In\": 1}, \"9\": {\"In\": 1}, \"10\": {\"In\": 1}, \"11\": {\"In\": 1}, \"12\": {\"In\": 1}, \"13\": {\"In\": 1}, \"14\": {\"In\": 1}, \"15\": {\"In\": 1}, \"16\": {\"O\": 1}, \"17\": {\"O\": 1}, \"18\": {\"O\": 1}, \"19\": {\"O\": 1}, \"20\": {\"O\": 1}, \"21\": {\"O\": 1}, \"22\": {\"O\": 1}, \"23\": {\"O\": 1}, \"24\": {\"O\": 1}, \"25\": {\"O\": 1}, \"26\": {\"O\": 1}, \"27\": {\"O\": 1}, \"28\": {\"O\": 1}, \"29\": {\"O\": 1}, \"30\": {\"O\": 1}, \"31\": {\"O\": 1}, \"32\": {\"O\": 1}, \"33\": {\"O\": 1}, \"34\": {\"O\": 1}, \"35\": {\"O\": 1}, \"36\": {\"O\": 1}, \"37\": {\"O\": 1}, \"38\": {\"O\": 1}, \"39\": {\"O\": 1}}" n_minim_iter=3 energy=-45132.797055079776 stress="-0.3870435007882898 -2.0824840308132097e-13 7.535440911834521e-13 -2.0824840308132097e-13 -0.38028055457102916 -1.0438643875486357e-12 7.535440911834521e-13 -1.0438643875486357e-12 -0.3869076848377246" free_energy=-45132.797055079776 pbc="T T T"
In       2.81909083       3.84069486       7.53976804        0       0.01426865      -0.05089144      -0.12996633
In       0.21704745       4.33758203       6.22942264        1       0.01426865       0.05089144       0.12996633
In       2.38499593       1.11460256      13.11401797        2      -0.01426865      -0.05089144       0.12996633
In       4.98703931       1.61148974       0.65517270        3      -0.01426865       0.05089144      -0.12996633
In       2.38499593       1.61148974       6.22942264        4      -0.01426865       0.05089144       0.12996633
In       4.98703931       1.11460256       7.53976804        5      -0.01426865      -0.05089144      -0.12996633
In       2.81909083       4.33758203       0.65517270        6       0.01426865       0.05089144      -0.12996633
In       0.21704745       3.84069486      13.11401797        7       0.01426865      -0.05089144       0.12996633
In       2.73258284       3.17875205      11.19235291        8      -0.16627417      -0.19312182       0.05976946
In       5.33462622       4.99952484       2.57683777        9      -0.16627417       0.19312182      -0.05976946
In       2.47150391       0.45265975       9.46143311       10       0.16627417      -0.19312182      -0.05976946
In      -0.13053947       2.27343255       4.30775757       11       0.16627417       0.19312182       0.05976946
In       2.47150391       2.27343255       2.57683777       12       0.16627417       0.19312182      -0.05976946
In      -0.13053947       0.45265975      11.19235291       13       0.16627417      -0.19312182       0.05976946
In       2.73258284       4.99952484       4.30775757       14      -0.16627417       0.19312182       0.05976946
In       5.33462622       3.17875205       9.46143311       15      -0.16627417      -0.19312182      -0.05976946
O        4.60972672       3.95337980      11.14146440       16      -0.03327629      -0.05342785      -0.04968881
O        2.00768335       4.22489709       2.62772627       17      -0.03327629       0.05342785       0.04968881
O        0.59436003       1.22728751       9.51232161       18       0.03327629      -0.05342785       0.04968881
O        3.19640341       1.49880479       4.25686907       19       0.03327629       0.05342785      -0.04968881
O        0.59436003       1.49880479       2.62772627       20       0.03327629       0.05342785       0.04968881
O        3.19640341       1.22728751      11.14146440       21       0.03327629      -0.05342785      -0.04968881
O        4.60972672       4.22489709       4.25686907       22      -0.03327629       0.05342785      -0.04968881
O        2.00768335       3.95337980       9.51232161       23      -0.03327629      -0.05342785       0.04968881
O        3.44262456       2.11392716       8.62915819       24       0.00897061       0.08766689       0.14018634
O        0.84058119       6.06434973       5.14003249       25       0.00897061      -0.08766689      -0.14018634
O        1.76146219      -0.61216514      12.02462783       26      -0.00897061       0.08766689      -0.14018634
O        4.36350557       3.33825743       1.74456285       27      -0.00897061      -0.08766689       0.14018634
O        1.76146219       3.33825743       5.14003249       28      -0.00897061      -0.08766689      -0.14018634
O        4.36350557      -0.61216514       8.62915819       29      -0.00897061       0.08766689       0.14018634
O        3.44262456       6.06434973       1.74456285       30       0.00897061      -0.08766689       0.14018634
O        0.84058119       2.11392716      12.02462783       31       0.00897061       0.08766689      -0.14018634
O        3.59122443       2.86768743      13.12207690       32      -0.00404366      -0.02002648       0.10369786
O        0.98918105       5.31058946       0.64711377       33      -0.00404366       0.02002648      -0.10369786
O        1.61286232       0.14159513       7.53170911       34       0.00404366      -0.02002648      -0.10369786
O        4.21490570       2.58449716       6.23748157       35       0.00404366       0.02002648       0.10369786
O        1.61286232       2.58449716       0.64711377       36       0.00404366       0.02002648      -0.10369786
O        4.21490570       0.14159513      13.12207690       37       0.00404366      -0.02002648       0.10369786
O        3.59122443       5.31058946       6.23748157       38      -0.00404366       0.02002648       0.10369786
O        0.98918105       2.86768743       7.53170911       39      -0.00404366      -0.02002648      -0.10369786
40
Lattice="5.21047036549492 1.0134599216136599e-42 1.3813342110656737e-78 -1.0381600512857656e-42 5.439574858361047 7.614372082346333e-36 9.785336229947753e-80 1.8524433343597139e-35 13.784201243454046" Properties=species:S:1:pos:R:3:spacegroup_kinds:I:1:forces:R:3 spacegroup="P 1" unit_cell=conventional occupancy="_JSON {\"0\": {\"In\": 1}, \"1\": {\"In\": 1}, \"2\": {\"In\": 1}, \"3\": {\"In\": 1}, \"4\": {\"In\": 1}, \"5\": {\"In\": 1}, \"6\": {\"In\": 1}, \"7\": {\"In\": 1}, \"8\": {\"In\": 1}, \"9\": {\"In\": 1}, \"10\": {\"In\": 1}, \"11\": {\"In\": 1}, \"12\": {\"In\": 1}, \"13\": {\"In\": 1}, \"14\": {\"In\": 1}, \"15\": {\"In\": 1}, \"16\": {\"O\": 1}, \"17\": {\"O\": 1}, \"18\": {\"O\": 1}, \"19\": {\"O\": 1}, \"20\": {\"O\": 1}, \"21\": {\"O\": 1}, \"22\": {\"O\": 1}, \"23\": {\"O\": 1}, \"24\": {\"O\": 1}, \"25\": {\"O\": 1}, \"26\": {\"O\": 1}, \"27\": {\"O\": 1}, \"28\": {\"O\": 1}, \"29\": {\"O\": 1}, \"30\": {\"O\": 1}, \"31\": {\"O\": 1}, \"32\": {\"O\": 1}, \"33\": {\"O\": 1}, \"34\": {\"O\": 1}, \"35\": {\"O\": 1}, \"36\": {\"O\": 1}, \"37\": {\"O\": 1}, \"38\": {\"O\": 1}, \"39\": {\"O\": 1}}" n_minim_iter=4 energy=-45132.803814150924 stress="-0.38138636047589436 -8.258028337511675e-14 1.3050052524101498e-13 -8.258028337511675e-14 -0.3860180914641117 -8.377490062811512e-13 1.3050052524101498e-13 -8.377490062811512e-13 -0.3827960521946627" free_energy=-45132.803814150924 pbc="T T T"
In       2.82273339       3.83216152       7.54699033        0       0.00147230      -0.06780913      -0.04442998
In       0.21749820       4.32720077       6.23721091        1       0.00147230       0.06780913       0.04442998
In       2.38773698       1.11237409      13.12931153        2      -0.00147230      -0.06780913       0.04442998
In       4.99297216       1.60741334       0.65488971        3      -0.00147230       0.06780913      -0.04442998
In       2.38773698       1.60741334       6.23721091        4      -0.00147230       0.06780913       0.04442998
In       4.99297216       1.11237409       7.54699033        5      -0.00147230      -0.06780913      -0.04442998
In       2.82273339       4.32720077       0.65488971        6       0.00147230       0.06780913      -0.04442998
In       0.21749820       3.83216152      13.12931153        7       0.00147230      -0.06780913       0.04442998
In       2.73523635       3.16948703      11.20634180        8      -0.16083348      -0.05739903      -0.02581635
In       5.34047153       4.98987525       2.57785945        9      -0.16083348       0.05739903       0.02581635
In       2.47523402       0.44969960       9.46996007       10       0.16083348      -0.05739903       0.02581635
In      -0.13000116       2.27008782       4.31424117       11       0.16083348       0.05739903      -0.02581635
In       2.47523402       2.27008782       2.57785945       12       0.16083348       0.05739903       0.02581635
In      -0.13000116       0.44969960      11.20634180       13       0.16083348      -0.05739903      -0.02581635
In       2.73523635       4.98987525       4.31424117       14      -0.16083348       0.05739903      -0.02581635
In       5.34047153       3.16948703       9.46996007       15      -0.16083348      -0.05739903       0.02581635
O        4.61507417       3.94425896      11.15393000       16      -0.04404950      -0.15648762      -0.06539207
O        2.00983899       4.21510333       2.63027124       17      -0.04404950       0.15648762       0.06539207
O        0.59539619       1.22447153       9.52237187       18       0.04404950      -0.15648762       0.06539207
O        3.20063138       1.49531590       4.26182938       19       0.04404950       0.15648762      -0.06539207
O        0.59539619       1.49531590       2.63027124       20       0.04404950       0.15648762       0.06539207
O        3.20063138       1.22447153      11.15393000       21       0.04404950      -0.15648762      -0.06539207
O        4.61507417       4.21510333       4.26182938       22      -0.04404950       0.15648762      -0.06539207
O        2.00983899       3.94425896       9.52237187       23      -0.04404950      -0.15648762       0.06539207
O        3.44710467       2.10955568       8.63959317       24       0.02300296       0.07886579       0.13268151
O        0.84186949       6.04980661       5.14460808       25       0.02300296      -0.07886579      -0.13268151
O        1.76336570      -0.61023175      12.03670870       26      -0.02300296       0.07886579      -0.13268151
O        4.36860088       3.33001918       1.74749255       27      -0.02300296      -0.07886579       0.13268151
O        1.76336570       3.33001918       5.14460808       28      -0.02300296      -0.07886579      -0.13268151
O        4.36860088      -0.61023175       8.63959317       29      -0.02300296       0.07886579       0.13268151
O        3.44710467       6.04980661       1.74749255       30       0.02300296      -0.07886579       0.13268151
O        0.84186949       2.10955568      12.03670870       31       0.02300296       0.07886579      -0.13268151
O        3.59525420       2.86126250      13.13712195       32       0.03724797      -0.01388528       0.08811725
O        0.99001901       5.29809979       0.64707930       33       0.03724797       0.01388528      -0.08811725
O        1.61521617       0.14147507       7.53917992       34      -0.03724797      -0.01388528      -0.08811725
O        4.22045135       2.57831236       6.24502132       35      -0.03724797       0.01388528       0.08811725
O        1.61521617       2.57831236       0.64707930       36      -0.03724797       0.01388528      -0.08811725
O        4.22045135       0.14147507      13.13712195       37      -0.03724797      -0.01388528       0.08811725
O        3.59525420       5.29809979       6.24502132       38       0.03724797       0.01388528       0.08811725
O        0.99001901       2.86126250       7.53917992       39       0.03724797      -0.01388528      -0.08811725
40
Lattice="5.202680161723708 1.0180889542931645e-42 1.3900802696740404e-78 -1.0360089633736002e-42 5.450254300398846 7.68073066133753e-36 9.737230842178878e-80 1.8738671266219332e-35 13.777791192605498" Properties=species:S:1:pos:R:3:spacegroup_kinds:I:1:forces:R:3 spacegroup="P 1" unit_cell=conventional occupancy="_JSON {\"0\": {\"In\": 1}, \"1\": {\"In\": 1}, \"2\": {\"In\": 1}, \"3\": {\"In\": 1}, \"4\": {\"In\": 1}, \"5\": {\"In\": 1}, \"6\": {\"In\": 1}, \"7\": {\"In\": 1}, \"8\": {\"In\": 1}, \"9\": {\"In\": 1}, \"10\": {\"In\": 1}, \"11\": {\"In\": 1}, \"12\": {\"In\": 1}, \"13\": {\"In\": 1}, \"14\": {\"In\": 1}, \"15\": {\"In\": 1}, \"16\": {\"O\": 1}, \"17\": {\"O\": 1}, \"18\": {\"O\": 1}, \"19\": {\"O\": 1}, \"20\": {\"O\": 1}, \"21\": {\"O\": 1}, \"22\": {\"O\": 1}, \"23\": {\"O\": 1}, \"24\": {\"O\": 1}, \"25\": {\"O\": 1}, \"26\": {\"O\": 1}, \"27\": {\"O\": 1}, \"28\": {\"O\": 1}, \"29\": {\"O\": 1}, \"30\": {\"O\": 1}, \"31\": {\"O\": 1}, \"32\": {\"O\": 1}, \"33\": {\"O\": 1}, \"34\": {\"O\": 1}, \"35\": {\"O\": 1}, \"36\": {\"O\": 1}, \"37\": {\"O\": 1}, \"38\": {\"O\": 1}, \"39\": {\"O\": 1}}" n_minim_iter=5 energy=-45132.82127713949 stress="-0.3804762169237219 -6.074548309810966e-13 3.5409256185622556e-13 -6.074548309810966e-13 -0.380329898008043 -1.6412218922455261e-12 3.5409256185622556e-13 -1.6412218922455261e-12 -0.37988916400318856" free_energy=-45132.82127713949 pbc="T T T"
In       2.81894103       3.83908032       7.54053307        0      -0.00734919      -0.08178136       0.02646734
In       0.21760095       4.33630113       6.23725812        1      -0.00734919       0.08178136      -0.02646734
In       2.38373913       1.11395317      13.12615372        2       0.00734919      -0.08178136      -0.02646734
In       4.98507921       1.61117398       0.65163748        3       0.00734919       0.08178136       0.02646734
In       2.38373913       1.61117398       6.23725812        4       0.00734919       0.08178136      -0.02646734
In       4.98507921       1.11395317       7.54053307        5       0.00734919      -0.08178136       0.02646734
In       2.81894103       4.33630113       0.65163748        6      -0.00734919       0.08178136       0.02646734
In       0.21760095       3.83908032      13.12615372        7      -0.00734919      -0.08178136      -0.02646734
In       2.72681677       3.17069569      11.20408372        8      -0.10672235      -0.02748099      -0.09793637
In       5.32815685       5.00468576       2.57370747        9      -0.10672235       0.02748099       0.09793637
In       2.47586339       0.44556854       9.46260307       10       0.10672235      -0.02748099       0.09793637
In      -0.12547669       2.27955861       4.31518813       11       0.10672235       0.02748099      -0.09793637
In       2.47586339       2.27955861       2.57370747       12       0.10672235       0.02748099       0.09793637
In      -0.12547669       0.44556854      11.20408372       13       0.10672235      -0.02748099      -0.09793637
In       2.72681677       5.00468576       4.31518813       14      -0.10672235       0.02748099      -0.09793637
In       5.32815685       3.17069569       9.46260307       15      -0.10672235      -0.02748099       0.09793637
O        4.60694291       3.94956849      11.14811388       16      -0.06068540      -0.14619013      -0.03353714
O        2.00560283       4.22581296       2.62967731       17      -0.06068540       0.14619013       0.03353714
O        0.59573725       1.22444134       9.51857291       18       0.06068540      -0.14619013       0.03353714
O        3.19707733       1.50068581       4.25921828       19       0.06068540       0.14619013      -0.03353714
O        0.59573725       1.50068581       2.62967731       20       0.06068540       0.14619013       0.03353714
O        3.19707733       1.22444134      11.14811388       21       0.06068540      -0.14619013      -0.03353714
O        4.60694291       4.22581296       4.25921828       22      -0.06068540       0.14619013      -0.03353714
O        2.00560283       3.94956849       9.51857291       23      -0.06068540      -0.14619013       0.03353714
O        3.44277239       2.11611911       8.63985156       24       0.02375172       0.07291071       0.09239229
O        0.84143231       6.05926234       5.13793963       25       0.02375172      -0.07291071      -0.09239229
O        1.75990777      -0.60900804      12.02683523       26      -0.02375172       0.07291071      -0.09239229
O        4.36124785       3.33413519       1.75095596       27      -0.02375172      -0.07291071       0.09239229
O        1.75990777       3.33413519       5.13793963       28      -0.02375172      -0.07291071      -0.09239229
O        4.36124785      -0.60900804       8.63985156       29      -0.02375172       0.07291071       0.09239229
O        3.44277239       6.05926234       1.75095596       30       0.02375172      -0.07291071       0.09239229
O        0.84143231       2.11611911      12.02683523       31       0.02375172       0.07291071      -0.09239229
O        3.58971301       2.86693537      13.13399879       32       0.04869024      -0.07449226       0.01759627
O        0.98837292       5.30844608       0.64379240       33       0.04869023       0.07449226      -0.01759627
O        1.61296716       0.14180822       7.53268800       34      -0.04869023      -0.07449226      -0.01759627
O        4.21430724       2.58331893       6.24510319       35      -0.04869024       0.07449226       0.01759627
O        1.61296716       2.58331893       0.64379240       36      -0.04869023       0.07449226      -0.01759627
O        4.21430724       0.14180822      13.13399879       37      -0.04869024      -0.07449226       0.01759627
O        3.58971301       5.30844608       6.24510319       38       0.04869024       0.07449226       0.01759627
O        0.98837292       2.86693537       7.53268800       39       0.04869023      -0.07449226      -0.01759627
40