40
Lattice="5.7934313877074315 -1.524619580508185e-42 0.0 8.85295239982658e-43 5.933925501420177 0.0 0.0 0.0 16.667749209937952" Properties=species:S:1:pos:R:3:spacegroup_kinds:I:1:forces:R:3 spacegroup="P 1" unit_cell=conventional occupancy="_JSON {\"0\": {\"In\": 1}, \"1\": {\"In\": 1}, \"2\": {\"In\": 1}, \"3\": {\"In\": 1}, \"4\": {\"In\": 1}, \"5\": {\"In\": 1}, \"6\": {\"In\": 1}, \"7\": {\"In\": 1}, \"8\": {\"In\": 1}, \"9\": {\"In\": 1}, \"10\": {\"In\": 1}, \"11\": {\"In\": 1}, \"12\": {\"In\": 1}, \"13\": {\"In\": 1}, \"14\": {\"In\": 1}, \"15\": {\"In\": 1}, \"16\": {\"O\": 1}, \"17\": {\"O\": 1}, \"18\": {\"O\": 1}, \"19\": {\"O\": 1}, \"20\": {\"O\": 1}, \"21\": {\"O\": 1}, \"22\": {\"O\": 1}, \"23\": {\"O\": 1}, \"24\": {\"O\": 1}, \"25\": {\"O\": 1}, \"26\": {\"O\": 1}, \"27\": {\"O\": 1}, \"28\": {\"O\": 1}, \"29\": {\"O\": 1}, \"30\": {\"O\": 1}, \"31\": {\"O\": 1}, \"32\": {\"O\": 1}, \"33\": {\"O\": 1}, \"34\": {\"O\": 1}, \"35\": {\"O\": 1}, \"36\": {\"O\": 1}, \"37\": {\"O\": 1}, \"38\": {\"O\": 1}, \"39\": {\"O\": 1}}" n_minim_iter=9 energy=-45149.502848495475 stress="0.03916424106866704 -6.065961449367067e-13 3.18882409317122e-13 -6.065961449367067e-13 0.03884566826476657 -2.325477239027838e-13 3.18882409317122e-13 -2.325477239027838e-13 0.03919055613130813" free_energy=-45149.502848495475 pbc="T T T"
In       2.88282326       4.72710296       9.50968108        0      -0.00032921      -0.00908119      -0.00339700
In      -0.01389243       4.17378529       7.15806813        1      -0.00032921       0.00908119       0.00339700
In       2.91060813       1.76014021      15.49194274        2       0.00032921      -0.00908119       0.00339700
In       5.80732382       1.20682254       1.17580647        3       0.00032921       0.00908119      -0.00339700
In       2.91060813       1.20682254       7.15806813        4       0.00032921       0.00908119       0.00339700
In       5.80732382       1.76014021       9.50968108        5       0.00032921      -0.00908119      -0.00339700
In       2.88282326       4.17378529       1.17580647        6      -0.00032921       0.00908119      -0.00339700
In      -0.01389243       4.72710296      15.49194274        7      -0.00032921      -0.00908119       0.00339700
In       2.86707158       4.40719982      13.63422225        8      -0.00052808      -0.00340944      -0.00025673
In       5.76378727       4.49368843       3.03352696        9      -0.00052808       0.00340944       0.00025673
In       2.92635981       1.44023707      11.36740157       10       0.00052808      -0.00340944       0.00025673
In       0.02964412       1.52672568       5.30034764       11       0.00052808       0.00340944      -0.00025673
In       2.92635981       1.52672568       3.03352696       12       0.00052808       0.00340944       0.00025673
In       0.02964412       1.44023707      13.63422225       13       0.00052808      -0.00340944      -0.00025673
In       2.86707158       4.49368843       5.30034764       14      -0.00052808       0.00340944      -0.00025673
In       5.76378727       4.40719982      11.36740157       15      -0.00052808      -0.00340944       0.00025673
O        4.97173542       5.18039573      13.30846532       16      -0.00486160      -0.00205671      -0.00575540
O        2.07501972       3.72049252       3.35928389       17      -0.00486160       0.00205671       0.00575540
O        0.82169597       2.21343298      11.69315850       18       0.00486160      -0.00205671       0.00575540
O        3.71841167       0.75352977       4.97459071       19       0.00486160       0.00205671      -0.00575540
O        0.82169597       0.75352977       3.35928389       20       0.00486160       0.00205671       0.00575540
O        3.71841167       2.21343298      13.30846532       21       0.00486160      -0.00205671      -0.00575540
O        4.97173542       3.72049252       4.97459071       22      -0.00486160       0.00205671      -0.00575540
O        2.07501972       5.18039573      11.69315850       23      -0.00486160      -0.00205671       0.00575540
O        4.07411690       3.12067173      10.40420855       24      -0.00040170      -0.00931285       0.00268276
O        1.17740120       5.78021652       6.26354066       25      -0.00040170       0.00931285      -0.00268276
O        1.71931449       0.15370898      14.59741527       26       0.00040170      -0.00931285      -0.00268276
O        4.61603018       2.81325377       2.07033394       27       0.00040170       0.00931285       0.00268276
O        1.71931449       2.81325377       6.26354066       28       0.00040170       0.00931285      -0.00268276
O        4.61603018       0.15370898      10.40420855       29       0.00040170      -0.00931285       0.00268276
O        4.07411690       5.78021652       2.07033394       30      -0.00040170       0.00931285       0.00268276
O        1.17740120       3.12067173      14.59741527       31      -0.00040170      -0.00931285      -0.00268276
O        3.74724147       3.91493234      15.80828847       32       0.00054920       0.00153317       0.00346359
O        0.85052578       4.98595591       0.85946074       33       0.00054920      -0.00153317      -0.00346359
O        2.04618992       0.94796959       9.19333535       34      -0.00054920       0.00153317      -0.00346359
O        4.94290561       2.01899316       7.47441386       35      -0.00054920      -0.00153317       0.00346359
O        2.04618992       2.01899316       0.85946074       36      -0.00054920      -0.00153317      -0.00346359
O        4.94290561       0.94796959      15.80828847       37      -0.00054920       0.00153317       0.00346359
O        3.74724147       4.98595591       7.47441386       38       0.00054920      -0.00153317       0.00346359
O        0.85052578       3.91493234       9.19333535       39       0.00054920       0.00153317      -0.00346359
