40
Lattice="5.924169399769249 -3.333517381019746e-42 0.0 3.5303297125454044e-42 6.273934965282777 0.0 0.0 0.0 17.168440085897725" Properties=species:S:1:pos:R:3:spacegroup_kinds:I:1:forces:R:3 spacegroup="P 1" unit_cell=conventional occupancy="_JSON {\"0\": {\"In\": 1}, \"1\": {\"In\": 1}, \"2\": {\"In\": 1}, \"3\": {\"In\": 1}, \"4\": {\"In\": 1}, \"5\": {\"In\": 1}, \"6\": {\"In\": 1}, \"7\": {\"In\": 1}, \"8\": {\"In\": 1}, \"9\": {\"In\": 1}, \"10\": {\"In\": 1}, \"11\": {\"In\": 1}, \"12\": {\"In\": 1}, \"13\": {\"In\": 1}, \"14\": {\"In\": 1}, \"15\": {\"In\": 1}, \"16\": {\"O\": 1}, \"17\": {\"O\": 1}, \"18\": {\"O\": 1}, \"19\": {\"O\": 1}, \"20\": {\"O\": 1}, \"21\": {\"O\": 1}, \"22\": {\"O\": 1}, \"23\": {\"O\": 1}, \"24\": {\"O\": 1}, \"25\": {\"O\": 1}, \"26\": {\"O\": 1}, \"27\": {\"O\": 1}, \"28\": {\"O\": 1}, \"29\": {\"O\": 1}, \"30\": {\"O\": 1}, \"31\": {\"O\": 1}, \"32\": {\"O\": 1}, \"33\": {\"O\": 1}, \"34\": {\"O\": 1}, \"35\": {\"O\": 1}, \"36\": {\"O\": 1}, \"37\": {\"O\": 1}, \"38\": {\"O\": 1}, \"39\": {\"O\": 1}}" n_minim_iter=1 energy=-45146.09817103746 stress="0.06081407161445978 3.640231611747519e-13 5.805880840447931e-15 3.640231611747519e-13 0.05929777056729886 3.240243480654532e-13 5.805880840447931e-15 3.240243480654532e-13 0.057753280924054386" free_energy=-45146.09817103746 pbc="T T T"
In       2.68633135       5.20437424       9.88551735        0       0.04857405       0.05377936       0.02615978
In      -0.27575335       4.20652821       7.28292274        1       0.04857405      -0.05377936      -0.02615978
In       3.23783805       2.06740676      15.86714278        2      -0.04857405       0.05377936      -0.02615978
In       6.19992275       1.06956072       1.30129731        3      -0.04857405      -0.05377936       0.02615978
In       3.23783805       1.06956072       7.28292274        4      -0.04857405      -0.05377936      -0.02615978
In       6.19992275       2.06740676       9.88551735        5      -0.04857405       0.05377936       0.02615978
In       2.68633135       4.20652821       1.30129731        6       0.04857405      -0.05377936       0.02615978
In      -0.27575335       5.20437424      15.86714278        7       0.04857405       0.05377936      -0.02615978
In       2.69931684       5.03433940      13.96710029        8       0.03184927       0.03387772      -0.03754487
In       5.66140154       4.37656305       3.20133980        9       0.03184927      -0.03387772       0.03754487
In       3.22485256       1.89737191      11.78555984       10      -0.03184927       0.03387772       0.03754487
In       0.26276786       1.23959557       5.38288025       11      -0.03184927      -0.03387772      -0.03754487
In       3.22485256       1.23959557       3.20133980       12      -0.03184927      -0.03387772       0.03754487
In       0.26276786       1.89737191      13.96710029       13      -0.03184927       0.03387772      -0.03754487
In       2.69931684       4.37656305       5.38288025       14       0.03184927      -0.03387772      -0.03754487
In       5.66140154       5.03433940      11.78555984       15       0.03184927       0.03387772       0.03754487
O        4.83611539       5.64566756      13.76590071       16      -0.01955204      -0.08738931      -0.00663192
O        1.87403069       3.76523489       3.40253937       17      -0.01955204       0.08738931       0.00663192
O        1.08805401       2.50870008      11.98675942       18       0.01955204      -0.08738931       0.00663192
O        4.05013871       0.62826740       5.18168067       19       0.01955204       0.08738931      -0.00663192
O        1.08805401       0.62826740       3.40253937       20       0.01955204       0.08738931       0.00663192
O        4.05013871       2.50870008      13.76590071       21       0.01955203      -0.08738931      -0.00663192
O        4.83611539       3.76523489       5.18168067       22      -0.01955204       0.08738931      -0.00663192
O        1.87403069       5.64566756      11.98675942       23      -0.01955203      -0.08738931       0.00663192
O        4.10492867       3.75267660      10.87041508       24      -0.01668314       0.12066425       0.06210254
O        1.14284397       5.65822585       6.29802501       25      -0.01668314      -0.12066425      -0.06210254
O        1.81924073       0.61570912      14.88224505       26       0.01668314       0.12066425      -0.06210254
O        4.78132543       2.52125836       2.28619504       27       0.01668314      -0.12066425       0.06210254
O        1.81924073       2.52125836       6.29802501       28       0.01668314      -0.12066425      -0.06210254
O        4.78132543       0.61570912      10.87041508       29       0.01668314       0.12066425       0.06210254
O        4.10492867       5.65822585       2.28619504       30      -0.01668314      -0.12066425       0.06210254
O        1.14284397       3.75267660      14.88224505       31      -0.01668314       0.12066425      -0.06210254
O        3.73847266       4.16849205      16.45499497       32      -0.06497385      -0.09477171       0.03912608
O        0.77638796       5.24241040       0.71344512       33      -0.06497385       0.09477171      -0.03912608
O        2.18569674       1.03152456       9.29766516       34       0.06497385      -0.09477171      -0.03912608
O        5.14778144       2.10544292       7.87077492       35       0.06497385       0.09477171       0.03912608
O        2.18569674       2.10544292       0.71344512       36       0.06497385       0.09477171      -0.03912608
O        5.14778144       1.03152456      16.45499497       37       0.06497385      -0.09477171       0.03912608
O        3.73847266       5.24241040       7.87077492       38      -0.06497385       0.09477171       0.03912608
O        0.77638796       4.16849205       9.29766516       39      -0.06497385      -0.09477171      -0.03912608
40
Lattice="5.9101784827831825 -3.286970337864032e-42 0.0 3.587066099807309e-42 6.273843605990578 0.0 0.0 0.0 17.209332809649286" Properties=species:S:1:pos:R:3:spacegroup_kinds:I:1:forces:R:3 spacegroup="P 1" unit_cell=conventional occupancy="_JSON {\"0\": {\"In\": 1}, \"1\": {\"In\": 1}, \"2\": {\"In\": 1}, \"3\": {\"In\": 1}, \"4\": {\"In\": 1}, \"5\": {\"In\": 1}, \"6\": {\"In\": 1}, \"7\": {\"In\": 1}, \"8\": {\"In\": 1}, \"9\": {\"In\": 1}, \"10\": {\"In\": 1}, \"11\": {\"In\": 1}, \"12\": {\"In\": 1}, \"13\": {\"In\": 1}, \"14\": {\"In\": 1}, \"15\": {\"In\": 1}, \"16\": {\"O\": 1}, \"17\": {\"O\": 1}, \"18\": {\"O\": 1}, \"19\": {\"O\": 1}, \"20\": {\"O\": 1}, \"21\": {\"O\": 1}, \"22\": {\"O\": 1}, \"23\": {\"O\": 1}, \"24\": {\"O\": 1}, \"25\": {\"O\": 1}, \"26\": {\"O\": 1}, \"27\": {\"O\": 1}, \"28\": {\"O\": 1}, \"29\": {\"O\": 1}, \"30\": {\"O\": 1}, \"31\": {\"O\": 1}, \"32\": {\"O\": 1}, \"33\": {\"O\": 1}, \"34\": {\"O\": 1}, \"35\": {\"O\": 1}, \"36\": {\"O\": 1}, \"37\": {\"O\": 1}, \"38\": {\"O\": 1}, \"39\": {\"O\": 1}}" n_minim_iter=2 energy=-45146.100982343865 stress="0.05841343257243507 -1.9172803621686577e-14 1.5421146769703876e-13 -1.9172803621686577e-14 0.059151250656652506 1.6853670008778257e-13 1.5421146769703876e-13 1.6853670008778257e-13 0.05906952423888397" free_energy=-45146.100982343865 pbc="T T T"
In       2.68010482       5.20442907       9.90912690        0       0.05954473       0.06459879       0.01385383
In      -0.27498442       4.20633634       7.30020591        1       0.05954473      -0.06459879      -0.01385383
In       3.23007366       2.06750726      15.90487232        2      -0.05954473       0.06459879      -0.01385383
In       6.18516290       1.06941454       1.30446049        3      -0.05954473      -0.06459879       0.01385383
In       3.23007366       1.06941454       7.30020591        4      -0.05954473      -0.06459879      -0.01385383
In       6.18516290       2.06750726       9.90912690        5      -0.05954473       0.06459879       0.01385383
In       2.68010482       4.20633634       1.30446049        6       0.05954473      -0.06459879       0.01385383
In      -0.27498442       5.20442907      15.90487232        7       0.05954473       0.06459879      -0.01385383
In       2.69301912       5.03434836      14.00027649        8       0.01308677       0.03455195      -0.05054550
In       5.64810836       4.37641705       3.20905632        9       0.01308677      -0.03455195       0.05054550
In       3.21715937       1.89742656      11.81372273       10      -0.01308677       0.03455195       0.05054550
In       0.26207012       1.23949524       5.39561008       11      -0.01308677      -0.03455195      -0.05054550
In       3.21715937       1.23949524       3.20905632       12      -0.01308677      -0.03455195       0.05054550
In       0.26207012       1.89742656      14.00027649       13      -0.01308677       0.03455195      -0.05054550
In       2.69301912       4.37641705       5.39561008       14       0.01308677      -0.03455195      -0.05054550
In       5.64810836       5.03434836      11.81372273       15       0.01308677       0.03455195       0.05054550
O        4.82464672       5.64537311      13.79867294       16      -0.00424382      -0.08784950      -0.02150065
O        1.86955748       3.76539229       3.41065987       17      -0.00424382       0.08784950       0.02150065
O        1.08553176       2.50845131      12.01532628       18       0.00424382      -0.08784950       0.02150065
O        4.04062100       0.62847049       5.19400653       19       0.00424382       0.08784950      -0.02150065
O        1.08553176       0.62847049       3.41065987       20       0.00424382       0.08784950       0.02150065
O        4.04062100       2.50845131      13.79867294       21       0.00424382      -0.08784950      -0.02150065
O        4.82464672       3.76539229       5.19400653       22      -0.00424382       0.08784950      -0.02150065
O        1.86955748       5.64537311      12.01532628       23      -0.00424382      -0.08784950       0.02150065
O        4.09519377       3.75291500      10.89645801       24      -0.01721372       0.11127463       0.07547221
O        1.14010453       5.65785041       6.31287480       25      -0.01721372      -0.11127463      -0.07547221
O        1.81498471       0.61599320      14.91754120       26       0.01721372       0.11127463      -0.07547221
O        4.77007395       2.52092860       2.29179160       27       0.01721372      -0.11127463       0.07547221
O        1.81498471       2.52092860       6.31287480       28       0.01721372      -0.11127463      -0.07547221
O        4.77007395       0.61599320      10.89645801       29       0.01721372       0.11127463       0.07547221
O        4.09519377       5.65785041       2.29179160       30      -0.01721372      -0.11127463       0.07547221
O        1.14010453       3.75291500      14.91754120       31      -0.01721372       0.11127463      -0.07547221
O        3.72948621       4.16820118      16.49428362       32      -0.06886051      -0.09229748       0.04819509
O        0.77439697       5.24256423       0.71504919       33      -0.06886051       0.09229748      -0.04819509
O        2.18069227       1.03127938       9.31971560       34       0.06886051      -0.09229748      -0.04819509
O        5.13578151       2.10564242       7.88961721       35       0.06886051       0.09229748       0.04819509
O        2.18069227       2.10564242       0.71504919       36       0.06886051       0.09229748      -0.04819509
O        5.13578151       1.03127938      16.49428362       37       0.06886051      -0.09229748       0.04819509
O        3.72948621       5.24256423       7.88961721       38      -0.06886051       0.09229748       0.04819509
O        0.77439697       4.16820118       9.31971560       39      -0.06886051      -0.09229748      -0.04819509
40
Lattice="5.9152808220173885 -3.291199652211408e-42 0.0 3.576903612726818e-42 6.2580702588525385 0.0 0.0 0.0 17.237826950284298" Properties=species:S:1:pos:R:3:spacegroup_kinds:I:1:forces:R:3 spacegroup="P 1" unit_cell=conventional occupancy="_JSON {\"0\": {\"In\": 1}, \"1\": {\"In\": 1}, \"2\": {\"In\": 1}, \"3\": {\"In\": 1}, \"4\": {\"In\": 1}, \"5\": {\"In\": 1}, \"6\": {\"In\": 1}, \"7\": {\"In\": 1}, \"8\": {\"In\": 1}, \"9\": {\"In\": 1}, \"10\": {\"In\": 1}, \"11\": {\"In\": 1}, \"12\": {\"In\": 1}, \"13\": {\"In\": 1}, \"14\": {\"In\": 1}, \"15\": {\"In\": 1}, \"16\": {\"O\": 1}, \"17\": {\"O\": 1}, \"18\": {\"O\": 1}, \"19\": {\"O\": 1}, \"20\": {\"O\": 1}, \"21\": {\"O\": 1}, \"22\": {\"O\": 1}, \"23\": {\"O\": 1}, \"24\": {\"O\": 1}, \"25\": {\"O\": 1}, \"26\": {\"O\": 1}, \"27\": {\"O\": 1}, \"28\": {\"O\": 1}, \"29\": {\"O\": 1}, \"30\": {\"O\": 1}, \"31\": {\"O\": 1}, \"32\": {\"O\": 1}, \"33\": {\"O\": 1}, \"34\": {\"O\": 1}, \"35\": {\"O\": 1}, \"36\": {\"O\": 1}, \"37\": {\"O\": 1}, \"38\": {\"O\": 1}, \"39\": {\"O\": 1}}" n_minim_iter=3 energy=-45146.10581114986 stress="0.05896300585142539 -5.374488409333941e-13 -1.1478071574878475e-13 -5.374488409333941e-13 0.0564486608893653 2.1636083841616508e-13 -1.1478071574878475e-13 2.1636083841616508e-13 0.059502884069100107" free_energy=-45146.10581114986 pbc="T T T"
In       2.68343659       5.19245357       9.92582476        0       0.04427360       0.03840714       0.00980713
In      -0.27420382       4.19465182       7.31200219        1       0.04427360      -0.03840714      -0.00980713
In       3.23184423       2.06341844      15.93091566        2      -0.04427360       0.03840714      -0.00980713
In       6.18948464       1.06561669       1.30691129        3      -0.04427360      -0.03840714       0.00980713
In       3.23184423       1.06561669       7.31200219        4      -0.04427360      -0.03840714      -0.00980713
In       6.18948464       2.06341844       9.92582476        5      -0.04427360       0.03840714       0.00980713
In       2.68343659       4.19465182       1.30691129        6       0.04427360      -0.03840714       0.00980713
In      -0.27420382       5.19245357      15.93091566        7       0.04427360       0.03840714      -0.00980713
In       2.69564124       5.02230228      14.02259775        8       0.01492765       0.03398702      -0.05895239
In       5.65328165       4.36480311       3.21522920        9       0.01492765      -0.03398702       0.05895239
In       3.21963958       1.89326715      11.83414267       10      -0.01492765       0.03398702       0.05895239
In       0.26199917       1.23576798       5.40368428       11      -0.01492765      -0.03398702      -0.05895239
In       3.21963958       1.23576798       3.21522920       12      -0.01492765      -0.03398702       0.05895239
In       0.26199917       1.89326715      14.02259775       13      -0.01492765       0.03398703      -0.05895239
In       2.69564124       4.36480311       5.40368428       14       0.01492765      -0.03398702      -0.05895239
In       5.65328165       5.02230228      11.83414267       15       0.01492765       0.03398702       0.05895239
O        4.82868352       5.62962202      13.82118689       16      -0.00358384      -0.07778474      -0.02524525
O        1.87104311       3.75748337       3.41664006       17      -0.00358384       0.07778474       0.02524525
O        1.08659730       2.50058689      12.03555354       18       0.00358384      -0.07778474       0.02524525
O        4.04423771       0.62844824       5.20227341       19       0.00358383       0.07778474      -0.02524525
O        1.08659730       0.62844824       3.41664006       20       0.00358383       0.07778474       0.02524525
O        4.04423771       2.50058689      13.82118689       21       0.00358383      -0.07778474      -0.02524525
O        4.82868352       3.75748337       5.20227341       22      -0.00358384       0.07778474      -0.02524525
O        1.87104311       5.62962202      12.03555354       23      -0.00358383      -0.07778474       0.02524525
O        4.09842575       3.74548741      10.91580416       24      -0.01315369       0.10128422       0.07333758
O        1.14078534       5.64161798       6.32202279       25      -0.01315369      -0.10128422      -0.07333758
O        1.81685507       0.61645228      14.94093626       26       0.01315369       0.10128423      -0.07333758
O        4.77449548       2.51258285       2.29689069       27       0.01315369      -0.10128422       0.07333758
O        1.81685507       2.51258285       6.32202279       28       0.01315369      -0.10128422      -0.07333758
O        4.77449548       0.61645228      10.91580416       29       0.01315369       0.10128422       0.07333758
O        4.09842575       5.64161798       2.29689069       30      -0.01315369      -0.10128423       0.07333758
O        1.14078534       3.74548741      14.94093626       31      -0.01315369       0.10128422      -0.07333758
O        3.73149813       4.15607478      16.52242499       32      -0.04850393      -0.04756467       0.03872220
O        0.77385771       5.23103061       0.71540196       33      -0.04850393       0.04756467      -0.03872220
O        2.18378270       1.02703965       9.33431544       34       0.04850393      -0.04756467      -0.03872220
O        5.14142311       2.10199548       7.90351151       35       0.04850393       0.04756467       0.03872220
O        2.18378270       2.10199548       0.71540196       36       0.04850393       0.04756467      -0.03872220
O        5.14142311       1.02703965      16.52242499       37       0.04850393      -0.04756467       0.03872220
O        3.73149813       5.23103061       7.90351151       38      -0.04850393       0.04756467       0.03872220
O        0.77385771       4.15607478       9.33431544       39      -0.04850393      -0.04756467      -0.03872220
40
Lattice="5.8993813464062255 -3.281416866539134e-42 0.0 3.595026965089585e-42 6.285933771387521 0.0 0.0 0.0 17.20766912499933" Properties=species:S:1:pos:R:3:spacegroup_kinds:I:1:forces:R:3 spacegroup="P 1" unit_cell=conventional occupancy="_JSON {\"0\": {\"In\": 1}, \"1\": {\"In\": 1}, \"2\": {\"In\": 1}, \"3\": {\"In\": 1}, \"4\": {\"In\": 1}, \"5\": {\"In\": 1}, \"6\": {\"In\": 1}, \"7\": {\"In\": 1}, \"8\": {\"In\": 1}, \"9\": {\"In\": 1}, \"10\": {\"In\": 1}, \"11\": {\"In\": 1}, \"12\": {\"In\": 1}, \"13\": {\"In\": 1}, \"14\": {\"In\": 1}, \"15\": {\"In\": 1}, \"16\": {\"O\": 1}, \"17\": {\"O\": 1}, \"18\": {\"O\": 1}, \"19\": {\"O\": 1}, \"20\": {\"O\": 1}, \"21\": {\"O\": 1}, \"22\": {\"O\": 1}, \"23\": {\"O\": 1}, \"24\": {\"O\": 1}, \"25\": {\"O\": 1}, \"26\": {\"O\": 1}, \"27\": {\"O\": 1}, \"28\": {\"O\": 1}, \"29\": {\"O\": 1}, \"30\": {\"O\": 1}, \"31\": {\"O\": 1}, \"32\": {\"O\": 1}, \"33\": {\"O\": 1}, \"34\": {\"O\": 1}, \"35\": {\"O\": 1}, \"36\": {\"O\": 1}, \"37\": {\"O\": 1}, \"38\": {\"O\": 1}, \"39\": {\"O\": 1}}" n_minim_iter=4 energy=-45146.12282433249 stress="0.053452429014125474 -2.3414854712113625e-13 8.792041785802359e-13 -2.3414854712113625e-13 0.0549482106500162 -3.3589900114430936e-14 8.792041785802359e-13 -3.3589900114430936e-14 0.05350792513322091" free_energy=-45146.12282433249 pbc="T T T"
In       2.68367435       5.22357424       9.91055447        0      -0.06162002      -0.04549604      -0.01521428
In      -0.26601632       4.20532642       7.29711466        1      -0.06162002       0.04549604       0.01521428
In       3.21570699       2.08060735      15.90094922        2       0.06162002      -0.04549604       0.01521428
In       6.16539767       1.06235953       1.30671991        3       0.06162002       0.04549604      -0.01521428
In       3.21570699       1.06235953       7.29711466        4       0.06162002       0.04549604       0.01521428
In       6.16539767       2.08060735       9.91055447        5       0.06162002      -0.04549604      -0.01521428
In       2.68367435       4.20532642       1.30671991        6      -0.06162002       0.04549604      -0.01521428
In      -0.26601632       5.22357424      15.90094922        7      -0.06162002      -0.04549604       0.01521428
In       2.69062262       5.04930148      13.99138152        8      -0.01368110       0.00390467       0.02757645
In       5.64031330       4.37959918       3.21628761        9      -0.01368110      -0.00390467      -0.02757645
In       3.20875872       1.90633459      11.82012217       10       0.01368110       0.00390467      -0.02757645
In       0.25906805       1.23663229       5.38754695       11       0.01368110      -0.00390467       0.02757645
In       3.20875872       1.23663229       3.21628761       12       0.01368110      -0.00390467      -0.02757645
In       0.25906805       1.90633459      13.99138152       13       0.01368110       0.00390467       0.02757645
In       2.69062262       4.37959918       5.38754695       14      -0.01368110      -0.00390467       0.02757645
In       5.64031330       5.04930148      11.82012217       15      -0.01368110       0.00390467      -0.02757645
O        4.81478748       5.64301790      13.79438177       16       0.01942999      -0.00039057       0.02010827
O        1.86509681       3.78588275       3.41328736       17       0.01942999       0.00039057      -0.02010827
O        1.08459387       2.50005102      12.01712192       18      -0.01942999      -0.00039057      -0.02010827
O        4.03428454       0.64291587       5.19054721       19      -0.01942999       0.00039057       0.02010827
O        1.08459387       0.64291587       3.41328736       20      -0.01942999       0.00039057      -0.02010827
O        4.03428454       2.50005102      13.79438177       21      -0.01942999      -0.00039057       0.02010827
O        4.81478748       3.78588275       5.19054721       22       0.01942999       0.00039057       0.02010827
O        1.86509681       5.64301790      12.01712192       23       0.01942999      -0.00039057      -0.02010827
O        4.08518752       3.77722980      10.90656883       24       0.01324026       0.03516492       0.07751157
O        1.13549685       5.65167085       6.30110029       25       0.01324026      -0.03516492      -0.07751157
O        1.81419383       0.63426292      14.90493486       26      -0.01324026       0.03516492      -0.07751157
O        4.76388450       2.50870397       2.30273427       27      -0.01324026      -0.03516492       0.07751157
O        1.81419383       2.50870397       6.30110029       28      -0.01324026      -0.03516492      -0.07751157
O        4.76388450       0.63426292      10.90656883       29      -0.01324026       0.03516492       0.07751157
O        4.08518752       5.65167085       2.30273427       30       0.01324026      -0.03516492       0.07751157
O        1.13549685       3.77722980      14.90493486       31       0.01324026       0.03516492      -0.07751157
O        3.71269241       4.16285082      16.49965998       32       0.09436258       0.09150692      -0.02530534
O        0.76300174       5.26604983       0.70800914       33       0.09436258      -0.09150692       0.02530534
O        2.18668893       1.01988394       9.31184370       34      -0.09436258       0.09150692       0.02530534
O        5.13637961       2.12308295       7.89582542       35      -0.09436258      -0.09150692      -0.02530534
O        2.18668893       2.12308295       0.70800914       36      -0.09436258      -0.09150692       0.02530534
O        5.13637961       1.01988394      16.49965998       37      -0.09436258       0.09150692      -0.02530534
O        3.71269241       5.26604983       7.89582542       38       0.09436258      -0.09150692      -0.02530534
O        0.76300174       4.16285082       9.31184370       39       0.09436258       0.09150692       0.02530534
40
Lattice="5.904695400588829 -3.2996032810218053e-42 0.0 3.6041430647282194e-42 6.2767355415949915 0.0 0.0 0.0 17.217376973559187" Properties=species:S:1:pos:R:3:spacegroup_kinds:I:1:forces:R:3 spacegroup="P 1" unit_cell=conventional occupancy="_JSON {\"0\": {\"In\": 1}, \"1\": {\"In\": 1}, \"2\": {\"In\": 1}, \"3\": {\"In\": 1}, \"4\": {\"In\": 1}, \"5\": {\"In\": 1}, \"6\": {\"In\": 1}, \"7\": {\"In\": 1}, \"8\": {\"In\": 1}, \"9\": {\"In\": 1}, \"10\": {\"In\": 1}, \"11\": {\"In\": 1}, \"12\": {\"In\": 1}, \"13\": {\"In\": 1}, \"14\": {\"In\": 1}, \"15\": {\"In\": 1}, \"16\": {\"O\": 1}, \"17\": {\"O\": 1}, \"18\": {\"O\": 1}, \"19\": {\"O\": 1}, \"20\": {\"O\": 1}, \"21\": {\"O\": 1}, \"22\": {\"O\": 1}, \"23\": {\"O\": 1}, \"24\": {\"O\": 1}, \"25\": {\"O\": 1}, \"26\": {\"O\": 1}, \"27\": {\"O\": 1}, \"28\": {\"O\": 1}, \"29\": {\"O\": 1}, \"30\": {\"O\": 1}, \"31\": {\"O\": 1}, \"32\": {\"O\": 1}, \"33\": {\"O\": 1}, \"34\": {\"O\": 1}, \"35\": {\"O\": 1}, \"36\": {\"O\": 1}, \"37\": {\"O\": 1}, \"38\": {\"O\": 1}, \"39\": {\"O\": 1}}" n_minim_iter=5 energy=-45146.1273900185 stress="0.05497525202051295 -2.0588815680306737e-13 2.743410055818111e-13 -2.0588815680306737e-13 0.05493813526884414 -1.089001953254616e-13 2.743410055818111e-13 -1.089001953254616e-13 0.05496849354805321" free_energy=-45146.1273900185 pbc="T T T"
In       2.68396409       5.21381555       9.91556758        0      -0.03154058      -0.02176436      -0.00781937
In      -0.26838361       4.20128776       7.30180940        1      -0.03154058       0.02176436       0.00781937
In       3.22073131       2.07544778      15.91049788        2       0.03154058      -0.02176436       0.00781937
In       6.17307901       1.06291999       1.30687909        3       0.03154058       0.02176436      -0.00781937
In       3.22073131       1.06291999       7.30180940        4       0.03154058       0.02176436       0.00781937
In       6.17307901       2.07544778       9.91556758        5       0.03154058      -0.02176436      -0.00781937
In       2.68396409       4.20128776       1.30687909        6      -0.03154058       0.02176436      -0.00781937
In      -0.26838361       5.21381555      15.91049788        7      -0.03154058      -0.02176436       0.00781937
In       2.69248635       5.04106812      14.00080207        8      -0.00209324       0.01356070       0.00109241
In       5.64483405       4.37403520       3.21657491        9      -0.00209324      -0.01356070      -0.00109241
In       3.21220905       1.90270035      11.82526339       10       0.00209324       0.01356070      -0.00109241
In       0.25986135       1.23566743       5.39211358       11       0.00209324      -0.01356070       0.00109241
In       3.21220905       1.23566743       3.21657491       12       0.00209324      -0.01356070      -0.00109241
In       0.25986135       1.90270035      14.00080207       13       0.00209324       0.01356070       0.00109241
In       2.69248635       4.37403520       5.39211358       14      -0.00209324      -0.01356070       0.00109241
In       5.64483405       5.04106812      11.82526339       15      -0.00209324       0.01356070      -0.00109241
O        4.81950506       5.63702258      13.80285899       16       0.01117544      -0.01631470       0.00927660
O        1.86715736       3.77808073       3.41451799       17       0.01117544       0.01631470      -0.00927660
O        1.08519034       2.49865481      12.02320647       18      -0.01117544      -0.01631470      -0.00927660
O        4.03753804       0.63971296       5.19417050       19      -0.01117544       0.01631470       0.00927660
O        1.08519034       0.63971296       3.41451799       20      -0.01117544       0.01631470      -0.00927660
O        4.03753804       2.49865481      13.80285899       21      -0.01117544      -0.01631470       0.00927660
O        4.81950506       3.77808073       5.19417050       22       0.01117544       0.01631470       0.00927660
O        1.86715736       5.63702258      12.02320647       23       0.01117544      -0.01631470      -0.00927660
O        4.08944656       3.76915848      10.91164827       24       0.00750174       0.04443258       0.06669014
O        1.13709886       5.64594483       6.30572870       25       0.00750174      -0.04443258      -0.06669014
O        1.81524884       0.63079071      14.91441719       26      -0.00750174       0.04443258      -0.06669014
O        4.76759654       2.50757706       2.30295978       27      -0.00750174      -0.04443258       0.06669014
O        1.81524884       2.50757706       6.30572870       28      -0.00750174      -0.04443258      -0.06669014
O        4.76759654       0.63079071      10.91164827       29      -0.00750174       0.04443258       0.06669014
O        4.08944656       5.64594483       2.30295978       30       0.00750174      -0.04443258       0.06669014
O        1.13709886       3.76915848      14.91441719       31       0.00750174       0.04443258      -0.06669014
O        3.71877999       4.16014835      16.50748978       32       0.05080099       0.05211120      -0.00697704
O        0.76643229       5.25495497       0.70988719       33       0.05080099      -0.05211120       0.00697704
O        2.18591541       1.02178058       9.31857568       34      -0.05080099       0.05211120       0.00697704
O        5.13826311       2.11658720       7.89880130       35      -0.05080099      -0.05211120      -0.00697704
O        2.18591541       2.11658720       0.70988719       36      -0.05080099      -0.05211120       0.00697704
O        5.13826311       1.02178058      16.50748978       37      -0.05080099       0.05211120      -0.00697704
O        3.71877999       5.25495497       7.89880130       38       0.05080099      -0.05211120      -0.00697704
O        0.76643229       4.16014835       9.31857568       39       0.05080099       0.05211120       0.00697704
40