40
Lattice="5.933766102688883 -3.427558258611675e-42 0.0 3.0027979911520315e-42 6.239582910643603 0.0 0.0 0.0 16.5315704798589" Properties=species:S:1:pos:R:3:spacegroup_kinds:I:1:forces:R:3 spacegroup="P 1" unit_cell=conventional occupancy="_JSON {\"0\": {\"In\": 1}, \"1\": {\"In\": 1}, \"2\": {\"In\": 1}, \"3\": {\"In\": 1}, \"4\": {\"In\": 1}, \"5\": {\"In\": 1}, \"6\": {\"In\": 1}, \"7\": {\"In\": 1}, \"8\": {\"In\": 1}, \"9\": {\"In\": 1}, \"10\": {\"In\": 1}, \"11\": {\"In\": 1}, \"12\": {\"In\": 1}, \"13\": {\"In\": 1}, \"14\": {\"In\": 1}, \"15\": {\"In\": 1}, \"16\": {\"O\": 1}, \"17\": {\"O\": 1}, \"18\": {\"O\": 1}, \"19\": {\"O\": 1}, \"20\": {\"O\": 1}, \"21\": {\"O\": 1}, \"22\": {\"O\": 1}, \"23\": {\"O\": 1}, \"24\": {\"O\": 1}, \"25\": {\"O\": 1}, \"26\": {\"O\": 1}, \"27\": {\"O\": 1}, \"28\": {\"O\": 1}, \"29\": {\"O\": 1}, \"30\": {\"O\": 1}, \"31\": {\"O\": 1}, \"32\": {\"O\": 1}, \"33\": {\"O\": 1}, \"34\": {\"O\": 1}, \"35\": {\"O\": 1}, \"36\": {\"O\": 1}, \"37\": {\"O\": 1}, \"38\": {\"O\": 1}, \"39\": {\"O\": 1}}" n_minim_iter=31 energy=-45147.79243791292 stress="0.03701422804043251 4.385856989349972e-13 -8.557533324147198e-14 4.385856989349972e-13 0.036958345331541416 -4.2878293916027245e-13 -8.557533324147198e-14 -4.2878293916027245e-13 0.03685257594882645" free_energy=-45147.79243791292 pbc="T T T"
In       2.66827851       5.16117039       9.51159575        0      -0.00294601       0.00415822      -0.00450669
In      -0.29860454       4.19820397       7.01997473        1      -0.00294601      -0.00415822       0.00450669
In       3.26548759       2.04137894      15.28575997        2       0.00294601       0.00415822       0.00450669
In       6.23237064       1.07841252       1.24581051        3       0.00294601      -0.00415822      -0.00450669
In       3.26548759       1.07841252       7.01997473        4       0.00294601      -0.00415822       0.00450669
In       6.23237064       2.04137894       9.51159575        5       0.00294601       0.00415822      -0.00450669
In       2.66827851       4.19820397       1.24581051        6      -0.00294601      -0.00415822      -0.00450669
In      -0.29860454       5.16117039      15.28575997        7      -0.00294601       0.00415822       0.00450669
In       2.69297103       4.98304812      13.50279742        8       0.00563388      -0.00133465       0.00454740
In       5.65985408       4.37632624       3.02877306        9       0.00563388       0.00133465      -0.00454740
In       3.24079507       1.86325667      11.29455830       10      -0.00563388      -0.00133465      -0.00454740
In       0.27391202       1.25653479       5.23701218       11      -0.00563388       0.00133465       0.00454740
In       3.24079507       1.25653479       3.02877306       12      -0.00563388       0.00133465      -0.00454740
In       0.27391202       1.86325667      13.50279742       13      -0.00563388      -0.00133465       0.00454740
In       2.69297103       4.37632624       5.23701218       14       0.00563388       0.00133465       0.00454740
In       5.65985408       4.98304812      11.29455830       15       0.00563388      -0.00133465      -0.00454740
O        4.82709753       5.62580031      13.24432504       16      -0.00030392      -0.00009541      -0.00005802
O        1.86021447       3.73357405       3.28724544       17      -0.00030392       0.00009541       0.00005802
O        1.10666858       2.50600886      11.55303068       18       0.00030392      -0.00009541       0.00005802
O        4.07355163       0.61378260       4.97853980       19       0.00030392       0.00009541      -0.00005802
O        1.10666858       0.61378260       3.28724544       20       0.00030392       0.00009541       0.00005802
O        4.07355163       2.50600886      13.24432504       21       0.00030392      -0.00009541      -0.00005802
O        4.82709753       3.73357405       4.97853980       22      -0.00030392       0.00009541      -0.00005802
O        1.86021447       5.62580031      11.55303068       23      -0.00030392      -0.00009541       0.00005802
O        4.10365150       3.68959106      10.37539349       24       0.00024664       0.00439156       0.00242329
O        1.13676845       5.66978331       6.15617699       25       0.00024664      -0.00439156      -0.00242329
O        1.83011460       0.56979960      14.42196223       26      -0.00024664       0.00439156      -0.00242329
O        4.79699765       2.54999185       2.10960825       27      -0.00024664      -0.00439156       0.00242329
O        1.83011460       2.54999185       6.15617699       28      -0.00024664      -0.00439156      -0.00242329
O        4.79699765       0.56979960      10.37539349       29      -0.00024664       0.00439156       0.00242329
O        4.10365150       5.66978331       2.10960825       30       0.00024664      -0.00439156       0.00242329
O        1.13676845       3.68959106      14.42196223       31       0.00024664       0.00439156      -0.00242329
O        3.74835140       4.15234224      15.81711903       32      -0.00409532       0.00342005      -0.00143949
O        0.78146835       5.20703213       0.71445145       33      -0.00409532      -0.00342005       0.00143949
O        2.18541470       1.03255078       8.98023669       34       0.00409532       0.00342005       0.00143949
O        5.15229775       2.08724067       7.55133379       35       0.00409532      -0.00342005      -0.00143949
O        2.18541470       2.08724067       0.71445145       36       0.00409532      -0.00342005       0.00143949
O        5.15229775       1.03255078      15.81711903       37       0.00409532       0.00342005      -0.00143949
O        3.74835140       5.20703213       7.55133379       38      -0.00409532      -0.00342005      -0.00143949
O        0.78146835       4.15234224       8.98023669       39      -0.00409532       0.00342005       0.00143949
