40
Lattice="5.587480471660182 -1.2852660742397251e-42 0.0 -1.6189125230619423e-42 5.773806006970734 0.0 0.0 0.0 16.14670918367541" Properties=species:S:1:pos:R:3:spacegroup_kinds:I:1:forces:R:3 spacegroup="P 1" unit_cell=conventional occupancy="_JSON {\"0\": {\"In\": 1}, \"1\": {\"In\": 1}, \"2\": {\"In\": 1}, \"3\": {\"In\": 1}, \"4\": {\"In\": 1}, \"5\": {\"In\": 1}, \"6\": {\"In\": 1}, \"7\": {\"In\": 1}, \"8\": {\"In\": 1}, \"9\": {\"In\": 1}, \"10\": {\"In\": 1}, \"11\": {\"In\": 1}, \"12\": {\"In\": 1}, \"13\": {\"In\": 1}, \"14\": {\"In\": 1}, \"15\": {\"In\": 1}, \"16\": {\"O\": 1}, \"17\": {\"O\": 1}, \"18\": {\"O\": 1}, \"19\": {\"O\": 1}, \"20\": {\"O\": 1}, \"21\": {\"O\": 1}, \"22\": {\"O\": 1}, \"23\": {\"O\": 1}, \"24\": {\"O\": 1}, \"25\": {\"O\": 1}, \"26\": {\"O\": 1}, \"27\": {\"O\": 1}, \"28\": {\"O\": 1}, \"29\": {\"O\": 1}, \"30\": {\"O\": 1}, \"31\": {\"O\": 1}, \"32\": {\"O\": 1}, \"33\": {\"O\": 1}, \"34\": {\"O\": 1}, \"35\": {\"O\": 1}, \"36\": {\"O\": 1}, \"37\": {\"O\": 1}, \"38\": {\"O\": 1}, \"39\": {\"O\": 1}}" n_minim_iter=16 energy=-45150.294522175784 stress="0.0001559191471613872 2.1752922191460553e-13 -1.804823010044105e-13 2.1752922191460553e-13 0.00024697507106458567 4.583078061445034e-13 -1.804823010044105e-13 4.583078061445034e-13 0.00025087503388081673" free_energy=-45150.294522175784 pbc="T T T"
In       2.78205612       4.62513067       9.22089741        0      -0.00022338       0.00512873      -0.00256339
In      -0.01168411       4.03557834       6.92581178        1      -0.00022338      -0.00512873       0.00256339
In       2.80542435       1.73822766      14.99916637        2       0.00022338       0.00512873       0.00256339
In       5.59916458       1.14867534       1.14754282        3       0.00022338      -0.00512873      -0.00256339
In       2.80542435       1.14867534       6.92581178        4       0.00022338      -0.00512873       0.00256339
In       5.59916458       1.73822766       9.22089741        5       0.00022338       0.00512873      -0.00256339
In       2.78205612       4.03557834       1.14754282        6      -0.00022338      -0.00512873      -0.00256339
In      -0.01168411       4.62513067      14.99916637        7      -0.00022338       0.00512873       0.00256339
In       2.77289485       4.32571743      13.21151644        8       0.00753308       0.00379247       0.00103893
In       5.56663509       4.33499158       2.93519274        9       0.00753308      -0.00379247      -0.00103893
In       2.81458562       1.43881443      11.00854733       10      -0.00753308       0.00379247      -0.00103893
In       0.02084539       1.44808858       5.13816185       11      -0.00753308      -0.00379247       0.00103893
In       2.81458562       1.44808858       2.93519274       12      -0.00753308      -0.00379247      -0.00103893
In       0.02084539       1.43881443      13.21151644       13      -0.00753308       0.00379247       0.00103893
In       2.77289485       4.33499158       5.13816185       14       0.00753308      -0.00379247       0.00103893
In       5.56663509       4.32571743      11.00854733       15       0.00753308       0.00379247      -0.00103893
O        4.79531613       5.10416373      12.88921208       16       0.00126161      -0.00355088      -0.00162827
O        2.00157590       3.55654528       3.25749710       17       0.00126161       0.00355088       0.00162827
O        0.79216434       2.21726072      11.33085169       18      -0.00126161      -0.00355088       0.00162827
O        3.58590457       0.66964228       4.81585749       19      -0.00126161       0.00355088      -0.00162827
O        0.79216434       0.66964228       3.25749710       20      -0.00126161       0.00355088       0.00162827
O        3.58590457       2.21726072      12.88921208       21      -0.00126161      -0.00355088      -0.00162827
O        4.79531613       3.55654528       4.81585749       22       0.00126161       0.00355088      -0.00162827
O        2.00157590       5.10416373      11.33085169       23       0.00126161      -0.00355088       0.00162827
O        3.94759368       3.05724274      10.08322457       24      -0.00298065      -0.00119998       0.00296491
O        1.15385345       5.60346627       6.06348462       25      -0.00298065       0.00119998      -0.00296491
O        1.63988679       0.17033974      14.13683921       26       0.00298065      -0.00119998      -0.00296491
O        4.43362703       2.71656326       2.00986998       27       0.00298065       0.00119998       0.00296491
O        1.63988679       2.71656326       6.06348462       28       0.00298065       0.00119998      -0.00296491
O        4.43362703       0.17033974      10.08322457       29       0.00298065      -0.00119998       0.00296491
O        3.94759368       5.60346627       2.00986998       30      -0.00298065       0.00119998       0.00296491
O        1.15385345       3.05724274      14.13683921       31      -0.00298065      -0.00119998      -0.00296491
O        3.60416008       3.82596286      15.30765702       32       0.00674910       0.00141838       0.00297653
O        0.81041984       4.83474615       0.83905216       33       0.00674910      -0.00141838      -0.00297653
O        1.98332039       0.93905985       8.91240675       34      -0.00674910       0.00141838      -0.00297653
O        4.77706063       1.94784315       7.23430243       35      -0.00674910      -0.00141838       0.00297653
O        1.98332039       1.94784315       0.83905216       36      -0.00674910      -0.00141838      -0.00297653
O        4.77706063       0.93905985      15.30765702       37      -0.00674910       0.00141838       0.00297653
O        3.60416008       4.83474615       7.23430243       38       0.00674910      -0.00141838       0.00297653
O        0.81041984       3.82596286       8.91240675       39       0.00674910       0.00141838      -0.00297653
