40
Lattice="5.589771 0.0 0.0 0.0 5.775531 0.0 0.0 0.0 16.135291" Properties=species:S:1:pos:R:3:spacegroup_kinds:I:1:forces:R:3 spacegroup="P 1" unit_cell=conventional occupancy="_JSON {\"0\": {\"In\": 1}, \"1\": {\"In\": 1}, \"2\": {\"In\": 1}, \"3\": {\"In\": 1}, \"4\": {\"In\": 1}, \"5\": {\"In\": 1}, \"6\": {\"In\": 1}, \"7\": {\"In\": 1}, \"8\": {\"In\": 1}, \"9\": {\"In\": 1}, \"10\": {\"In\": 1}, \"11\": {\"In\": 1}, \"12\": {\"In\": 1}, \"13\": {\"In\": 1}, \"14\": {\"In\": 1}, \"15\": {\"In\": 1}, \"16\": {\"O\": 1}, \"17\": {\"O\": 1}, \"18\": {\"O\": 1}, \"19\": {\"O\": 1}, \"20\": {\"O\": 1}, \"21\": {\"O\": 1}, \"22\": {\"O\": 1}, \"23\": {\"O\": 1}, \"24\": {\"O\": 1}, \"25\": {\"O\": 1}, \"26\": {\"O\": 1}, \"27\": {\"O\": 1}, \"28\": {\"O\": 1}, \"29\": {\"O\": 1}, \"30\": {\"O\": 1}, \"31\": {\"O\": 1}, \"32\": {\"O\": 1}, \"33\": {\"O\": 1}, \"34\": {\"O\": 1}, \"35\": {\"O\": 1}, \"36\": {\"O\": 1}, \"37\": {\"O\": 1}, \"38\": {\"O\": 1}, \"39\": {\"O\": 1}}" n_minim_iter=1 energy=-45150.25852220457 stress="-0.0008384306025578455 -3.8768286811541884e-13 1.4889441390456054e-13 -3.8768286811541884e-13 -0.0009793601551142497 -6.731815388100066e-14 1.4889441390456054e-13 -6.731815388100066e-14 -0.0016163688208469717" free_energy=-45150.25852220457 pbc="T T T"
In       2.80276149       4.57778405       9.19871326        0      -0.01062564       0.02605634      -0.00107656
In       0.00787599       4.08551245       6.93657774        1      -0.01062564      -0.02605634       0.00107656
In       2.78700951       1.69001855      15.00422324        2       0.01062564       0.02605634       0.00107656
In       5.58189501       1.19774695       1.13106776        3       0.01062564      -0.02605634      -0.00107656
In       2.78700951       1.19774695       6.93657774        4       0.01062564      -0.02605634       0.00107656
In       5.58189501       1.69001855       9.19871326        5       0.01062564       0.02605634      -0.00107656
In       2.80276149       4.08551245       1.13106776        6      -0.01062564      -0.02605634      -0.00107656
In       0.00787599       4.57778405      15.00422324        7      -0.01062564       0.02605634       0.00107656
In       2.78882060       4.26397058      13.20692931        8      -0.02456013       0.04141693      -0.02176298
In       5.58370610       4.39932592       2.92836169        9      -0.02456013      -0.04141693       0.02176298
In       2.80095040       1.37620508      10.99600719       10       0.02456013       0.04141693       0.02176298
In       0.00606490       1.51156042       5.13928381       11       0.02456013      -0.04141693      -0.02176298
In       2.80095040       1.51156042       2.92836169       12       0.02456013      -0.04141693       0.02176298
In       0.00606490       1.37620508      13.20692931       13       0.02456013       0.04141693      -0.02176298
In       2.78882060       4.39932592       5.13928381       14      -0.02456013      -0.04141693      -0.02176298
In       5.58370610       4.26397058      10.99600719       15      -0.02456013       0.04141693       0.02176298
O        4.81310027       5.03928363      12.87723691       16      -0.00240491      -0.01447254      -0.00133716
O        2.01821477       3.62401287       3.25805409       17      -0.00240491       0.01447254       0.00133716
O        0.77667073       2.15151813      11.32569959       18       0.00240491      -0.01447254       0.00133716
O        3.57155623       0.73624737       4.80959141       19       0.00240491       0.01447254      -0.00133716
O        0.77667073       0.73624737       3.25805409       20       0.00240491       0.01447254       0.00133716
O        3.57155623       2.15151813      12.87723691       21       0.00240491      -0.01447254      -0.00133716
O        4.81310027       3.62401287       4.80959141       22      -0.00240491       0.01447254      -0.00133716
O        2.01821477       5.03928363      11.32569959       23      -0.00240491      -0.01447254       0.00133716
O        3.94638951       2.99280508      10.06333897       24       0.00732542       0.04569811       0.05567986
O        1.15150401       5.67049142       6.07195203       25       0.00732542      -0.04569811      -0.05567986
O        1.64338149       0.10503958      14.13959753       26      -0.00732542       0.04569811      -0.05567986
O        4.43826699       2.78272592       1.99569347       27      -0.00732542      -0.04569811       0.05567986
O        1.64338149       2.78272592       6.07195203       28      -0.00732542      -0.04569811      -0.05567986
O        4.43826699       0.10503958      10.06333897       29      -0.00732542       0.04569811       0.05567986
O        3.94638951       5.67049142       1.99569347       30       0.00732542      -0.04569811       0.05567986
O        1.15150401       2.99280508      14.13959753       31       0.00732542       0.04569811      -0.05567986
O        3.62643660       3.77778060      15.28702648       32      -0.02525541       0.02472647       0.01068864
O        0.83155110       4.88551590       0.84826452       33      -0.02525541      -0.02472647      -0.01068864
O        1.96333440       0.89001510       8.91591002       34       0.02525541       0.02472647      -0.01068864
O        4.75821990       1.99775040       7.21938098       35       0.02525541      -0.02472647       0.01068864
O        1.96333440       1.99775040       0.84826452       36       0.02525541      -0.02472647      -0.01068864
O        4.75821990       0.89001510      15.28702648       37       0.02525541       0.02472647       0.01068864
O        3.62643660       4.88551590       7.21938098       38      -0.02525541      -0.02472647       0.01068864
O        0.83155110       3.77778060       8.91591002       39      -0.02525541       0.02472647      -0.01068864
40
Lattice="5.592636174147089 0.0 0.0 0.0 5.778989142950898 0.0 0.0 0.0 16.15123915371145" Properties=species:S:1:pos:R:3:spacegroup_kinds:I:1:forces:R:3 spacegroup="P 1" unit_cell=conventional occupancy="_JSON {\"0\": {\"In\": 1}, \"1\": {\"In\": 1}, \"2\": {\"In\": 1}, \"3\": {\"In\": 1}, \"4\": {\"In\": 1}, \"5\": {\"In\": 1}, \"6\": {\"In\": 1}, \"7\": {\"In\": 1}, \"8\": {\"In\": 1}, \"9\": {\"In\": 1}, \"10\": {\"In\": 1}, \"11\": {\"In\": 1}, \"12\": {\"In\": 1}, \"13\": {\"In\": 1}, \"14\": {\"In\": 1}, \"15\": {\"In\": 1}, \"16\": {\"O\": 1}, \"17\": {\"O\": 1}, \"18\": {\"O\": 1}, \"19\": {\"O\": 1}, \"20\": {\"O\": 1}, \"21\": {\"O\": 1}, \"22\": {\"O\": 1}, \"23\": {\"O\": 1}, \"24\": {\"O\": 1}, \"25\": {\"O\": 1}, \"26\": {\"O\": 1}, \"27\": {\"O\": 1}, \"28\": {\"O\": 1}, \"29\": {\"O\": 1}, \"30\": {\"O\": 1}, \"31\": {\"O\": 1}, \"32\": {\"O\": 1}, \"33\": {\"O\": 1}, \"34\": {\"O\": 1}, \"35\": {\"O\": 1}, \"36\": {\"O\": 1}, \"37\": {\"O\": 1}, \"38\": {\"O\": 1}, \"39\": {\"O\": 1}}" n_minim_iter=2 energy=-45150.25926092285 stress="0.0002917212380062688 8.446024503283612e-13 -1.0840063439503017e-13 8.446024503283612e-13 0.0003805390650316135 1.7623249571970376e-13 -1.0840063439503017e-13 1.7623249571970376e-13 -0.00023157341412812098" free_energy=-45150.25926092285 pbc="T T T"
In       2.80418564       4.58055562       9.20780402        0      -0.00806469       0.02305427      -0.00410806
In       0.00786755       4.08792809       6.94343513        1      -0.00806469      -0.02305427       0.00410806
In       2.78845053       1.69106105      15.01905471        2       0.00806469       0.02305427       0.00410806
In       5.58476862       1.19843352       1.13218445        3       0.00806469      -0.02305427      -0.00410806
In       2.78845053       1.19843352       6.94343513        4       0.00806469      -0.02305427       0.00410806
In       5.58476862       1.69106105       9.20780402        5       0.00806469       0.02305427      -0.00410806
In       2.80418564       4.08792809       1.13218445        6      -0.00806469      -0.02305427      -0.00410806
In       0.00786755       4.58055562      15.01905471        7      -0.00806469       0.02305427       0.00410806
In       2.79022125       4.26657229      13.21995751        8      -0.02660647       0.04195487      -0.02230412
In       5.58653933       4.40191143       2.93128165        9      -0.02660647      -0.04195487       0.02230412
In       2.80241493       1.37707772      11.00690123       10       0.02660647       0.04195487       0.02230412
In       0.00609684       1.51241685       5.14433793       11       0.02660647      -0.04195487      -0.02230412
In       2.80241493       1.51241685       2.93128165       12       0.02660647      -0.04195487       0.02230412
In       0.00609684       1.37707772      13.21995751       13       0.02660647       0.04195487      -0.02230412
In       2.79022125       4.40191143       5.14433793       14      -0.02660647      -0.04195487      -0.02230412
In       5.58653933       4.26657229      11.00690123       15      -0.02660647       0.04195487       0.02230412
O        4.81556452       5.04228395      12.88996323       16      -0.00269441      -0.01738161      -0.00479185
O        2.01924643       3.62619977       3.26127593       17      -0.00269441       0.01738161       0.00479185
O        0.77707165       2.15278938      11.33689550       18       0.00269441      -0.01738161       0.00479185
O        3.57338974       0.73670519       4.81434365       19       0.00269441       0.01738161      -0.00479185
O        0.77707165       0.73670519       3.26127593       20       0.00269441       0.01738161       0.00479185
O        3.57338974       2.15278938      12.88996323       21       0.00269441      -0.01738161      -0.00479185
O        4.81556452       3.62619977       4.81434365       22      -0.00269441       0.01738161      -0.00479185
O        2.01924643       5.04228395      11.33689550       23      -0.00269441      -0.01738161       0.00479185
O        3.94842093       2.99465070      10.07335099       24       0.00348161       0.04623094       0.05338603
O        1.15210284       5.67383302       6.07788816       25       0.00348161      -0.04623094      -0.05338603
O        1.64421525       0.10515612      14.15350774       26      -0.00348161       0.04623094      -0.05338603
O        4.44053333       2.78433845       1.99773141       27      -0.00348161      -0.04623094       0.05338603
O        1.64421525       2.78433845       6.07788816       28      -0.00348161      -0.04623094      -0.05338603
O        4.44053333       0.10515612      10.07335099       29      -0.00348161       0.04623094       0.05338603
O        3.94842093       5.67383302       1.99773141       30       0.00348161      -0.04623094       0.05338603
O        1.15210284       2.99465070      14.15350774       31       0.00348161       0.04623094      -0.05338603
O        3.62826577       3.78007160      15.30214876       32      -0.02320123       0.02810452       0.01793770
O        0.83194768       4.88841211       0.84909039       33      -0.02320123      -0.02810452      -0.01793770
O        1.96437040       0.89057703       8.92470997       34       0.02320123       0.02810452      -0.01793770
O        4.76068849       1.99891754       7.22652918       35       0.02320123      -0.02810452       0.01793770
O        1.96437040       1.99891754       0.84909039       36       0.02320123      -0.02810452      -0.01793770
O        4.76068849       0.89057703      15.30214876       37       0.02320123       0.02810452       0.01793770
O        3.62826577       4.88841211       7.22652918       38      -0.02320123      -0.02810452       0.01793770
O        0.83194768       3.78007160       8.92470997       39      -0.02320123       0.02810452      -0.01793770
40
Lattice="5.5897507594281866 -1.0880399844598432e-43 0.0 -6.426475726699459e-44 5.774889365363072 0.0 0.0 0.0 16.16962953740061" Properties=species:S:1:pos:R:3:spacegroup_kinds:I:1:forces:R:3 spacegroup="P 1" unit_cell=conventional occupancy="_JSON {\"0\": {\"In\": 1}, \"1\": {\"In\": 1}, \"2\": {\"In\": 1}, \"3\": {\"In\": 1}, \"4\": {\"In\": 1}, \"5\": {\"In\": 1}, \"6\": {\"In\": 1}, \"7\": {\"In\": 1}, \"8\": {\"In\": 1}, \"9\": {\"In\": 1}, \"10\": {\"In\": 1}, \"11\": {\"In\": 1}, \"12\": {\"In\": 1}, \"13\": {\"In\": 1}, \"14\": {\"In\": 1}, \"15\": {\"In\": 1}, \"16\": {\"O\": 1}, \"17\": {\"O\": 1}, \"18\": {\"O\": 1}, \"19\": {\"O\": 1}, \"20\": {\"O\": 1}, \"21\": {\"O\": 1}, \"22\": {\"O\": 1}, \"23\": {\"O\": 1}, \"24\": {\"O\": 1}, \"25\": {\"O\": 1}, \"26\": {\"O\": 1}, \"27\": {\"O\": 1}, \"28\": {\"O\": 1}, \"29\": {\"O\": 1}, \"30\": {\"O\": 1}, \"31\": {\"O\": 1}, \"32\": {\"O\": 1}, \"33\": {\"O\": 1}, \"34\": {\"O\": 1}, \"35\": {\"O\": 1}, \"36\": {\"O\": 1}, \"37\": {\"O\": 1}, \"38\": {\"O\": 1}, \"39\": {\"O\": 1}}" n_minim_iter=3 energy=-45150.25968276818 stress="-0.0003638412177639735 -3.440455307942367e-13 -1.7126293634868487e-13 -3.440455307942367e-13 -0.0002676079246427189 4.0305600220038284e-13 -1.7126293634868487e-13 4.0305600220038284e-13 0.0005129615448302455" free_energy=-45150.25968276818 pbc="T T T"
In       2.80269084       4.57744071       9.21826649        0      -0.00124047       0.02725063      -0.01323361
In       0.00781546       4.08489334       6.95136305        1      -0.00124047      -0.02725063       0.01323361
In       2.78705992       1.68999603      15.03617781        2       0.00124047       0.02725063       0.01323361
In       5.58193530       1.19744865       1.13345172        3       0.00124047      -0.02725063      -0.01323361
In       2.78705992       1.19744865       6.95136305        4       0.00124047      -0.02725063       0.01323361
In       5.58193530       1.68999603       9.21826649        5       0.00124047       0.02725063      -0.01323361
In       2.80269084       4.08489334       1.13345172        6      -0.00124047      -0.02725063      -0.01323361
In       0.00781546       4.57744071      15.03617781        7      -0.00124047       0.02725063       0.01323361
In       2.78862964       4.26378685      13.23488172        8      -0.03030045       0.04159155      -0.02549163
In       5.58350502       4.39854720       2.93474781        9      -0.03030045      -0.04159155       0.02549163
In       2.80112112       1.37634217      11.01956258       10       0.03030045       0.04159155       0.02549163
In       0.00624574       1.51110251       5.15006695       11       0.03030045      -0.04159155      -0.02549163
In       2.80112112       1.51110251       2.93474781       12       0.03030045      -0.04159155       0.02549163
In       0.00624574       1.37634217      13.23488172       13       0.03030045       0.04159155      -0.02549163
In       2.78862964       4.39854720       5.15006695       14      -0.03030045      -0.04159155      -0.02549163
In       5.58350502       4.26378685      11.01956258       15      -0.03030045       0.04159155       0.02549163
O        4.81306467       5.03860845      12.90461465       16       0.00080210      -0.01611515      -0.00883193
O        2.01818929       3.62372560       3.26501489       17       0.00080210       0.01611515       0.00883193
O        0.77668609       2.15116377      11.34982966       18      -0.00080210      -0.01611515       0.00883193
O        3.57156147       0.73628092       4.81979988       19      -0.00080210       0.01611515      -0.00883193
O        0.77668609       0.73628092       3.26501489       20      -0.00080210       0.01611515       0.00883193
O        3.57156147       2.15116377      12.90461465       21      -0.00080210      -0.01611515      -0.00883193
O        4.81306467       3.62372560       4.81979988       22       0.00080210       0.01611515      -0.00883193
O        2.01818929       5.03860845      11.34982966       23       0.00080210      -0.01611515       0.00883193
O        3.94640623       2.99279223      10.08513065       24       0.00643043       0.04336312       0.05295436
O        1.15153085       5.66954181       6.08449888       25       0.00643043      -0.04336312      -0.05295436
O        1.64334453       0.10534755      14.16931365       26      -0.00643043       0.04336312      -0.05295436
O        4.43821991       2.78209713       2.00031588       27      -0.00643043      -0.04336312       0.05295436
O        1.64334453       2.78209713       6.08449888       28      -0.00643043      -0.04336312      -0.05295436
O        4.43821991       0.10534755      10.08513065       29      -0.00643043       0.04336312       0.05295436
O        3.94640623       5.66954181       2.00031588       30       0.00643043      -0.04336312       0.05295436
O        1.15153085       2.99279223      14.16931365       31       0.00643043       0.04336312      -0.05295436
O        3.62625890       3.77754977      15.31967150       32      -0.02888011       0.02799144       0.02584378
O        0.83138352       4.88478428       0.84995804       33      -0.02888011      -0.02799144      -0.02584378
O        1.96349186       0.89010508       8.93477280       34       0.02888011       0.02799144      -0.02584378
O        4.75836724       1.99733960       7.23485673       35       0.02888011      -0.02799144       0.02584378
O        1.96349186       1.99733960       0.84995804       36       0.02888011      -0.02799144      -0.02584378
O        4.75836724       0.89010508      15.31967150       37       0.02888011       0.02799144       0.02584378
O        3.62625890       4.88478428       7.23485673       38      -0.02888011      -0.02799144       0.02584378
O        0.83138352       3.77754977       8.93477280       39      -0.02888011       0.02799144      -0.02584378
40
Lattice="5.602697747340431 -1.0385576830788843e-43 0.0 -6.709967168128527e-44 5.760480194563854 0.0 0.0 0.0 16.185804710686522" Properties=species:S:1:pos:R:3:spacegroup_kinds:I:1:forces:R:3 spacegroup="P 1" unit_cell=conventional occupancy="_JSON {\"0\": {\"In\": 1}, \"1\": {\"In\": 1}, \"2\": {\"In\": 1}, \"3\": {\"In\": 1}, \"4\": {\"In\": 1}, \"5\": {\"In\": 1}, \"6\": {\"In\": 1}, \"7\": {\"In\": 1}, \"8\": {\"In\": 1}, \"9\": {\"In\": 1}, \"10\": {\"In\": 1}, \"11\": {\"In\": 1}, \"12\": {\"In\": 1}, \"13\": {\"In\": 1}, \"14\": {\"In\": 1}, \"15\": {\"In\": 1}, \"16\": {\"O\": 1}, \"17\": {\"O\": 1}, \"18\": {\"O\": 1}, \"19\": {\"O\": 1}, \"20\": {\"O\": 1}, \"21\": {\"O\": 1}, \"22\": {\"O\": 1}, \"23\": {\"O\": 1}, \"24\": {\"O\": 1}, \"25\": {\"O\": 1}, \"26\": {\"O\": 1}, \"27\": {\"O\": 1}, \"28\": {\"O\": 1}, \"29\": {\"O\": 1}, \"30\": {\"O\": 1}, \"31\": {\"O\": 1}, \"32\": {\"O\": 1}, \"33\": {\"O\": 1}, \"34\": {\"O\": 1}, \"35\": {\"O\": 1}, \"36\": {\"O\": 1}, \"37\": {\"O\": 1}, \"38\": {\"O\": 1}, \"39\": {\"O\": 1}}" n_minim_iter=4 energy=-45150.264855073605 stress="0.001654294044412275 8.396015225264551e-13 4.5396281849910404e-14 8.396015225264551e-13 -0.0013216015521561237 -5.930457103573962e-14 4.5396281849910404e-14 -5.930457103573962e-14 0.00024312313155371035" free_energy=-45150.264855073605 pbc="T T T"
In       2.80853291       4.56895212       9.22658953        0      -0.02295583       0.00137479       0.01073491
In       0.00718403       4.07176817       6.95921518        1      -0.02295583      -0.00137479      -0.01073491
In       2.79416484       1.68871202      15.05211754        2       0.02295583       0.00137479      -0.01073491
In       5.59551371       1.19152808       1.13368717        3       0.02295583      -0.00137479       0.01073491
In       2.79416484       1.19152808       6.95921518        4       0.02295583      -0.00137479      -0.01073491
In       5.59551371       1.68871202       9.22658953        5       0.02295583       0.00137479       0.01073491
In       2.80853291       4.07176817       1.13368717        6      -0.02295583      -0.00137479       0.01073491
In       0.00718403       4.56895212      15.05211754        7      -0.02295583       0.00137479      -0.01073491
In       2.79178047       4.25806678      13.24532979        8       0.01883889       0.02179984      -0.01110110
In       5.59312934       4.38265351       2.94047492        9       0.01883889      -0.02179984       0.01110110
In       2.81091728       1.37782669      11.03337727       10      -0.01883889       0.02179984       0.01110110
In       0.00956840       1.50241341       5.15242744       11      -0.01883889      -0.02179984      -0.01110110
In       2.81091728       1.50241341       2.94047492       12      -0.01883889      -0.02179984       0.01110110
In       0.00956840       1.37782669      13.24532979       13      -0.01883889       0.02179984      -0.01110110
In       2.79178047       4.38265351       5.15242744       14       0.01883889      -0.02179984      -0.01110110
In       5.59312934       4.25806678      11.03337727       15       0.01883889       0.02179984       0.01110110
O        4.82406129       5.02406996      12.91678840       16      -0.01926624       0.00872868       0.03328447
O        2.02271241       3.61665033       3.26901631       17      -0.01926624      -0.00872868      -0.03328447
O        0.77863646       2.14382987      11.36191866       18       0.01926624       0.00872868      -0.03328447
O        3.57998533       0.73641023       4.82388605       19       0.01926624      -0.00872868       0.03328447
O        0.77863646       0.73641023       3.26901631       20       0.01926624      -0.00872868      -0.03328447
O        3.57998533       2.14382987      12.91678840       21       0.01926624       0.00872868       0.03328447
O        4.82406129       3.61665033       4.82388605       22      -0.01926624      -0.00872868       0.03328447
O        2.02271241       5.02406996      11.36191866       23      -0.01926624       0.00872868      -0.03328447
O        3.95612535       2.99062912      10.10154348       24       0.01457101       0.04120875       0.01397416
O        1.15477647       5.65009117       6.08426123       25       0.01457101      -0.04120875      -0.01397416
O        1.64657240       0.11038903      14.17716359       26      -0.01457101       0.04120875      -0.01397416
O        4.44792127       2.76985107       2.00864113       27      -0.01457101      -0.04120875       0.01397416
O        1.64657240       2.76985107       6.08426123       28      -0.01457101      -0.04120875      -0.01397416
O        4.44792127       0.11038903      10.10154348       29      -0.01457101       0.04120875       0.01397416
O        3.95612535       5.65009117       2.00864113       30       0.01457101      -0.04120875       0.01397416
O        1.15477647       2.99062912      14.17716359       31       0.01457101       0.04120875      -0.01397416
O        3.63162999       3.77140412      15.33744665       32      -0.00180865       0.04019001      -0.00981684
O        0.83028111       4.86931617       0.84835806       33      -0.00180865      -0.04019001       0.00981683
O        1.97106776       0.89116402       8.94126042       34       0.00180865       0.04019001       0.00981683
O        4.77241663       1.98907607       7.24454429       35       0.00180865      -0.04019001      -0.00981684
O        1.97106776       1.98907607       0.84835806       36       0.00180865      -0.04019001       0.00981683
O        4.77241663       0.89116402      15.33744665       37       0.00180865       0.04019001      -0.00981684
O        3.63162999       4.86931617       7.24454429       38      -0.00180865      -0.04019001      -0.00981684
O        0.83028111       3.77140412       8.94126042       39      -0.00180865       0.04019001       0.00981683
40
Lattice="5.590750868068448 -9.368846925202284e-44 0.0 -6.222004453135696e-44 5.770638397192047 0.0 0.0 0.0 16.1885711421515" Properties=species:S:1:pos:R:3:spacegroup_kinds:I:1:forces:R:3 spacegroup="P 1" unit_cell=conventional occupancy="_JSON {\"0\": {\"In\": 1}, \"1\": {\"In\": 1}, \"2\": {\"In\": 1}, \"3\": {\"In\": 1}, \"4\": {\"In\": 1}, \"5\": {\"In\": 1}, \"6\": {\"In\": 1}, \"7\": {\"In\": 1}, \"8\": {\"In\": 1}, \"9\": {\"In\": 1}, \"10\": {\"In\": 1}, \"11\": {\"In\": 1}, \"12\": {\"In\": 1}, \"13\": {\"In\": 1}, \"14\": {\"In\": 1}, \"15\": {\"In\": 1}, \"16\": {\"O\": 1}, \"17\": {\"O\": 1}, \"18\": {\"O\": 1}, \"19\": {\"O\": 1}, \"20\": {\"O\": 1}, \"21\": {\"O\": 1}, \"22\": {\"O\": 1}, \"23\": {\"O\": 1}, \"24\": {\"O\": 1}, \"25\": {\"O\": 1}, \"26\": {\"O\": 1}, \"27\": {\"O\": 1}, \"28\": {\"O\": 1}, \"29\": {\"O\": 1}, \"30\": {\"O\": 1}, \"31\": {\"O\": 1}, \"32\": {\"O\": 1}, \"33\": {\"O\": 1}, \"34\": {\"O\": 1}, \"35\": {\"O\": 1}, \"36\": {\"O\": 1}, \"37\": {\"O\": 1}, \"38\": {\"O\": 1}, \"39\": {\"O\": 1}}" n_minim_iter=5 energy=-45150.26741945814 stress="3.3144492248014614e-05 2.411587495713613e-13 4.828055131679892e-13 2.411587495713613e-13 0.00017631766803135528 2.7788543199622584e-13 4.828055131679892e-13 2.7788543199622584e-13 0.00013327348511056876" free_energy=-45150.26741945814 pbc="T T T"
In       2.80213074       4.57846925       9.22776570        0      -0.01334400       0.01310975       0.04184349
In       0.00675531       4.07748835       6.96080544        1      -0.01334400      -0.01310975      -0.04184349
In       2.78862012       1.69315005      15.05509101        2       0.01334400       0.01310975      -0.04184349
In       5.58399556       1.19216915       1.13348013        3       0.01334400      -0.01310975       0.04184349
In       2.78862012       1.19216915       6.96080544        4       0.01334400      -0.01310975      -0.04184349
In       5.58399556       1.69315005       9.22776570        5       0.01334400       0.01310975       0.04184349
In       2.80213074       4.07748835       1.13348013        6      -0.01334400      -0.01310975       0.04184349
In       0.00675531       4.57846925      15.05509101        7      -0.01334400       0.01310975      -0.04184349
In       2.78427048       4.26810034      13.24616756        8       0.02664854      -0.00853179       0.01185911
In       5.57964591       4.38785725       2.94240358        9       0.02664854       0.00853179      -0.01185911
In       2.80648039       1.38278114      11.03668916       10      -0.02664854      -0.00853179      -0.01185911
In       0.01110495       1.50253805       5.15188199       11      -0.02664854       0.00853179       0.01185911
In       2.80648039       1.50253805       2.94240358       12      -0.02664854       0.00853179      -0.01185911
In       0.01110495       1.38278114      13.24616756       13      -0.02664854      -0.00853179       0.01185911
In       2.78427048       4.38785725       5.15188199       14       0.02664854       0.00853179       0.01185911
In       5.57964591       4.26810034      11.03668916       15       0.02664854      -0.00853179      -0.01185911
O        4.81362271       5.03199084      12.91876756       16      -0.02879683       0.02764300       0.05260319
O        2.01824728       3.62396676       3.26980358       17      -0.02879683      -0.02764300      -0.05260319
O        0.77712816       2.14667164      11.36408915       18       0.02879683       0.02764300      -0.05260319
O        3.57250359       0.73864756       4.82448199       19       0.02879683      -0.02764300       0.05260319
O        0.77712816       0.73864756       3.26980358       20       0.02879683      -0.02764300      -0.05260319
O        3.57250359       2.14667164      12.91876756       21       0.02879683       0.02764300       0.05260319
O        4.81362271       3.62396676       4.82448199       22      -0.02879683      -0.02764300       0.05260319
O        2.01824728       5.03199084      11.36408915       23      -0.02879683       0.02764300      -0.05260319
O        3.94803504       2.99869629      10.10645643       24       0.00523677       0.04517401      -0.00812266
O        1.15265960       5.65726130       6.08211471       25       0.00523677      -0.04517401       0.00812266
O        1.64271583       0.11337710      14.17640028       26      -0.00523677       0.04517401       0.00812266
O        4.43809127       2.77194210       2.01217086       27      -0.00523677      -0.04517401      -0.00812266
O        1.64271583       2.77194210       6.08211471       28      -0.00523677      -0.04517401       0.00812266
O        4.43809127       0.11337710      10.10645643       29      -0.00523677       0.04517401      -0.00812266
O        3.94803504       5.65726130       2.01217086       30       0.00523677      -0.04517401      -0.00812266
O        1.15265960       2.99869629      14.17640028       31       0.00523677       0.04517401       0.00812266
O        3.62238302       3.77984008      15.34123916       32       0.00279632       0.02879185      -0.02303644
O        0.82700759       4.87611752       0.84733198       33       0.00279632      -0.02879185       0.02303644
O        1.96836785       0.89452088       8.94161755       34      -0.00279632       0.02879185       0.02303644
O        4.76374328       1.99079832       7.24695359       35      -0.00279632      -0.02879185      -0.02303644
O        1.96836785       1.99079832       0.84733198       36      -0.00279632      -0.02879185       0.02303644
O        4.76374328       0.89452088      15.34123916       37      -0.00279632       0.02879185      -0.02303644
O        3.62238302       4.87611752       7.24695359       38       0.00279632      -0.02879185      -0.02303644
O        0.82700759       3.77984008       8.94161755       39       0.00279632       0.02879185       0.02303644
40