40
Lattice="5.20413323932064 9.721905323507849e-43 -9.497489422744532e-81 -4.749216155607043e-43 5.431396111481425 1.9344453831845267e-37 -9.056400417294035e-85 6.824764247781479e-37 13.821768314067961" Properties=species:S:1:pos:R:3:spacegroup_kinds:I:1:forces:R:3 spacegroup="P 1" unit_cell=conventional occupancy="_JSON {\"0\": {\"In\": 1}, \"1\": {\"In\": 1}, \"2\": {\"In\": 1}, \"3\": {\"In\": 1}, \"4\": {\"In\": 1}, \"5\": {\"In\": 1}, \"6\": {\"In\": 1}, \"7\": {\"In\": 1}, \"8\": {\"In\": 1}, \"9\": {\"In\": 1}, \"10\": {\"In\": 1}, \"11\": {\"In\": 1}, \"12\": {\"In\": 1}, \"13\": {\"In\": 1}, \"14\": {\"In\": 1}, \"15\": {\"In\": 1}, \"16\": {\"O\": 1}, \"17\": {\"O\": 1}, \"18\": {\"O\": 1}, \"19\": {\"O\": 1}, \"20\": {\"O\": 1}, \"21\": {\"O\": 1}, \"22\": {\"O\": 1}, \"23\": {\"O\": 1}, \"24\": {\"O\": 1}, \"25\": {\"O\": 1}, \"26\": {\"O\": 1}, \"27\": {\"O\": 1}, \"28\": {\"O\": 1}, \"29\": {\"O\": 1}, \"30\": {\"O\": 1}, \"31\": {\"O\": 1}, \"32\": {\"O\": 1}, \"33\": {\"O\": 1}, \"34\": {\"O\": 1}, \"35\": {\"O\": 1}, \"36\": {\"O\": 1}, \"37\": {\"O\": 1}, \"38\": {\"O\": 1}, \"39\": {\"O\": 1}}" n_minim_iter=38 energy=-45137.11682686311 stress="-0.28255189687902643 4.146634887366225e-13 3.0191703836643226e-13 4.146634887366225e-13 -0.28285225078938053 6.53410567145031e-13 3.0191703836643226e-13 6.53410567145031e-13 -0.28267178345858646" free_energy=-45137.11682686311 pbc="T T T"
In       2.81842082       3.82414213       7.57184459        0      -0.00074122      -0.00103912      -0.00595490
In       0.21635420       4.32295204       6.24992373        1      -0.00074122       0.00103912       0.00595490
In       2.38571242       1.10844408      13.16080789        2       0.00074122      -0.00103912       0.00595490
In       4.98777904       1.60725398       0.66096043        3       0.00074122       0.00103912      -0.00595490
In       2.38571242       1.60725398       6.24992373        4       0.00074122       0.00103912       0.00595490
In       4.98777904       1.10844408       7.57184459        5       0.00074122      -0.00103912      -0.00595490
In       2.81842082       4.32295204       0.66096043        6      -0.00074122       0.00103912      -0.00595490
In       0.21635420       3.82414213      13.16080789        7      -0.00074122      -0.00103912       0.00595490
In       2.73434262       3.17332529      11.22785186        8       0.00374759      -0.00421993      -0.00568480
In       5.33640924       4.97376888       2.59391645        9       0.00374759       0.00421993       0.00568480
In       2.46979062       0.45762723       9.50480061       10      -0.00374759      -0.00421993       0.00568480
In      -0.13227600       2.25807082       4.31696770       11      -0.00374759       0.00421993      -0.00568480
In       2.46979062       2.25807082       2.59391645       12      -0.00374759       0.00421993       0.00568480
In      -0.13227600       0.45762723      11.22785186       13      -0.00374759      -0.00421993      -0.00568480
In       2.73434262       4.97376888       4.31696770       14       0.00374759       0.00421993      -0.00568480
In       5.33640924       3.17332529       9.50480061       15       0.00374759      -0.00421993       0.00568480
O        4.61078433       3.93778822      11.18224903       16      -0.00160059       0.00101309       0.00088527
O        2.00871771       4.20930595       2.63951929       17      -0.00160059      -0.00101309      -0.00088527
O        0.59334891       1.22209016       9.55040345       18       0.00160059       0.00101309      -0.00088527
O        3.19541553       1.49360789       4.27136487       19       0.00160059      -0.00101309       0.00088527
O        0.59334891       1.49360789       2.63951929       20       0.00160059      -0.00101309      -0.00088527
O        3.19541553       1.22209016      11.18224903       21       0.00160059       0.00101309       0.00088527
O        4.61078433       4.20930595       4.27136487       22      -0.00160059      -0.00101309       0.00088527
O        2.00871771       3.93778822       9.55040345       23      -0.00160059       0.00101309      -0.00088527
O        3.44160949       2.10433790       8.65877325       24       0.00711395       0.00266395       0.00241038
O        0.83954287       6.04275627       5.16299507       25       0.00711395      -0.00266395      -0.00241038
O        1.76252375      -0.61136016      12.07387923       26      -0.00711395       0.00266395      -0.00241038
O        4.36459037       3.32705821       1.74788909       27      -0.00711395      -0.00266395       0.00241038
O        1.76252375       3.32705821       5.16299507       28      -0.00711395      -0.00266396      -0.00241038
O        4.36459037      -0.61136016       8.65877325       29      -0.00711395       0.00266395       0.00241038
O        3.44160949       6.04275627       1.74788909       30       0.00711395      -0.00266395       0.00241038
O        0.83954287       2.10433790      12.07387923       31       0.00711395       0.00266395      -0.00241038
O        3.59285775       2.85570520      13.16980582       32       0.00343763       0.00539437       0.00244028
O        0.99079113       5.29138897       0.65196249       33       0.00343763      -0.00539437      -0.00244028
O        1.61127549       0.14000714       7.56284665       34      -0.00343763       0.00539437      -0.00244028
O        4.21334211       2.57569092       6.25892167       35      -0.00343763      -0.00539437       0.00244028
O        1.61127549       2.57569092       0.65196249       36      -0.00343763      -0.00539437      -0.00244028
O        4.21334211       0.14000714      13.16980582       37      -0.00343763       0.00539437       0.00244028
O        3.59285775       5.29138897       6.25892167       38       0.00343763      -0.00539437       0.00244028
O        0.99079113       2.85570520       7.56284665       39       0.00343763       0.00539437      -0.00244028
