40
Lattice="5.749204995886955 -1.512980809211472e-42 0.0 8.785369974938712e-43 5.888626593623294 0.0 0.0 0.0 16.540509521057153" Properties=species:S:1:pos:R:3:spacegroup_kinds:I:1:forces:R:3 spacegroup="P 1" unit_cell=conventional occupancy="_JSON {\"0\": {\"In\": 1}, \"1\": {\"In\": 1}, \"2\": {\"In\": 1}, \"3\": {\"In\": 1}, \"4\": {\"In\": 1}, \"5\": {\"In\": 1}, \"6\": {\"In\": 1}, \"7\": {\"In\": 1}, \"8\": {\"In\": 1}, \"9\": {\"In\": 1}, \"10\": {\"In\": 1}, \"11\": {\"In\": 1}, \"12\": {\"In\": 1}, \"13\": {\"In\": 1}, \"14\": {\"In\": 1}, \"15\": {\"In\": 1}, \"16\": {\"O\": 1}, \"17\": {\"O\": 1}, \"18\": {\"O\": 1}, \"19\": {\"O\": 1}, \"20\": {\"O\": 1}, \"21\": {\"O\": 1}, \"22\": {\"O\": 1}, \"23\": {\"O\": 1}, \"24\": {\"O\": 1}, \"25\": {\"O\": 1}, \"26\": {\"O\": 1}, \"27\": {\"O\": 1}, \"28\": {\"O\": 1}, \"29\": {\"O\": 1}, \"30\": {\"O\": 1}, \"31\": {\"O\": 1}, \"32\": {\"O\": 1}, \"33\": {\"O\": 1}, \"34\": {\"O\": 1}, \"35\": {\"O\": 1}, \"36\": {\"O\": 1}, \"37\": {\"O\": 1}, \"38\": {\"O\": 1}, \"39\": {\"O\": 1}}" n_minim_iter=9 energy=-45149.502848495475 stress="0.03916424106866704 -6.065961449367067e-13 3.18882409317122e-13 -6.065961449367067e-13 0.03884566826476657 -2.325477239027838e-13 3.18882409317122e-13 -2.325477239027838e-13 0.03919055613130813" free_energy=-45149.502848495475 pbc="T T T"
In       2.86081612       4.69101680       9.43708526        0      -0.00032921      -0.00908119      -0.00339700
In      -0.01378638       4.14192309       7.10342426        1      -0.00032921       0.00908119       0.00339700
In       2.88838888       1.74670350      15.37367902        2       0.00032921      -0.00908119       0.00339700
In       5.76299137       1.19760980       1.16683050        3       0.00032921       0.00908119      -0.00339700
In       2.88838888       1.19760980       7.10342426        4       0.00032921       0.00908119       0.00339700
In       5.76299137       1.74670350       9.43708526        5       0.00032921      -0.00908119      -0.00339700
In       2.86081612       4.14192309       1.16683050        6      -0.00032921       0.00908119      -0.00339700
In      -0.01378638       4.69101680      15.37367902        7      -0.00032921      -0.00908119       0.00339700
In       2.84518468       4.37355576      13.53014016        8      -0.00052808      -0.00340944      -0.00025673
In       5.71978718       4.45938413       3.01036936        9      -0.00052808       0.00340944       0.00025673
In       2.90402031       1.42924247      11.28062413       10       0.00052808      -0.00340944       0.00025673
In       0.02941782       1.51507083       5.25988540       11       0.00052808       0.00340944      -0.00025673
In       2.90402031       1.51507083       3.01036936       12       0.00052808       0.00340944       0.00025673
In       0.02941782       1.42924247      13.53014016       13       0.00052808      -0.00340944      -0.00025673
In       2.84518468       4.45938413       5.25988540       14      -0.00052808       0.00340944      -0.00025673
In       5.71978718       4.37355576      11.28062413       15      -0.00052808      -0.00340944       0.00025673
O        4.93378176       5.14084918      13.20687002       16      -0.00486160      -0.00205671      -0.00575540
O        2.05917926       3.69209071       3.33363951       17      -0.00486160       0.00205671       0.00575540
O        0.81542324       2.19653588      11.60389427       18       0.00486160      -0.00205671       0.00575540
O        3.69002574       0.74777741       4.93661525       19       0.00486160       0.00205671      -0.00575540
O        0.81542324       0.74777741       3.33363951       20       0.00486160       0.00205671       0.00575540
O        3.69002574       2.19653588      13.20687002       21       0.00486160      -0.00205671      -0.00575540
O        4.93378176       3.69209071       4.93661525       22      -0.00486160       0.00205671      -0.00575540
O        2.05917926       5.14084918      11.60389427       23      -0.00486160      -0.00205671       0.00575540
O        4.04301556       3.09684888      10.32478401       24      -0.00040170      -0.00931285       0.00268276
O        1.16841306       5.73609101       6.21572551       25      -0.00040170       0.00931285      -0.00268276
O        1.70618944       0.15253558      14.48598027       26       0.00040170      -0.00931285      -0.00268276
O        4.58079194       2.79177771       2.05452925       27       0.00040170       0.00931285       0.00268276
O        1.70618944       2.79177771       6.21572551       28       0.00040170       0.00931285      -0.00268276
O        4.58079194       0.15253558      10.32478401       29       0.00040170      -0.00931285       0.00268276
O        4.04301556       5.73609101       2.05452925       30      -0.00040170       0.00931285       0.00268276
O        1.16841306       3.09684888      14.48598027       31      -0.00040170      -0.00931285      -0.00268276
O        3.71863546       3.88504620      15.68760980       32       0.00054920       0.00153317       0.00346359
O        0.84403296       4.94789369       0.85289972       33       0.00054920      -0.00153317      -0.00346359
O        2.03056954       0.94073290       9.12315448       34      -0.00054920       0.00153317      -0.00346359
O        4.90517204       2.00358040       7.41735504       35      -0.00054920      -0.00153317       0.00346359
O        2.03056954       2.00358040       0.85289972       36      -0.00054920      -0.00153317      -0.00346359
O        4.90517204       0.94073290      15.68760980       37      -0.00054920       0.00153317       0.00346359
O        3.71863546       4.94789369       7.41735504       38       0.00054920      -0.00153317       0.00346359
O        0.84403296       3.88504620       9.12315448       39       0.00054920       0.00153317      -0.00346359
