40
Lattice="8.845016878360921 6.932472373932807e-10 2.664535259100413e-15 -2.9483389601072405 8.33916188563354 -1.2007412841796872e-09 -2.948338959126842 -4.169580942123521 7.221926040030092" Properties=species:S:1:pos:R:3:spacegroup_kinds:I:1:forces:R:3 spacegroup="P 1" unit_cell=conventional occupancy="_JSON {\"0\": {\"In\": 1}, \"1\": {\"In\": 1}, \"2\": {\"In\": 1}, \"3\": {\"In\": 1}, \"4\": {\"In\": 1}, \"5\": {\"In\": 1}, \"6\": {\"In\": 1}, \"7\": {\"In\": 1}, \"8\": {\"In\": 1}, \"9\": {\"In\": 1}, \"10\": {\"In\": 1}, \"11\": {\"In\": 1}, \"12\": {\"In\": 1}, \"13\": {\"In\": 1}, \"14\": {\"In\": 1}, \"15\": {\"In\": 1}, \"16\": {\"O\": 1}, \"17\": {\"O\": 1}, \"18\": {\"O\": 1}, \"19\": {\"O\": 1}, \"20\": {\"O\": 1}, \"21\": {\"O\": 1}, \"22\": {\"O\": 1}, \"23\": {\"O\": 1}, \"24\": {\"O\": 1}, \"25\": {\"O\": 1}, \"26\": {\"O\": 1}, \"27\": {\"O\": 1}, \"28\": {\"O\": 1}, \"29\": {\"O\": 1}, \"30\": {\"O\": 1}, \"31\": {\"O\": 1}, \"32\": {\"O\": 1}, \"33\": {\"O\": 1}, \"34\": {\"O\": 1}, \"35\": {\"O\": 1}, \"36\": {\"O\": 1}, \"37\": {\"O\": 1}, \"38\": {\"O\": 1}, \"39\": {\"O\": 1}}" n_minim_iter=6 energy=-45151.63626313926 stress="-0.025968088317166415 2.652462175171748e-13 -5.453201559052814e-13 2.652462175171748e-13 -0.025968088318081325 2.1593441668980384e-13 -5.453201559052814e-13 2.1593441668980384e-13 -0.02596808831688771" free_energy=-45151.63626313926 pbc="T T T"
In      -4.22456900       2.98722139       5.65886985        0      -0.00442948       0.00313212      -0.00542499
In       7.17290795       1.18235956       1.56305619        1       0.00442948      -0.00313212       0.00542499
In       1.27623003      -0.90243091       5.17401921        2       0.00442948      -0.00313212       0.00542499
In      -1.47416948      -2.08479047       3.61096302        3       0.00000000       0.00000000       0.00000000
In      -1.27623004       4.02961662       3.36853770        4      -0.00442948       0.00313212       0.00542499
In       4.62044788      -2.84725706       5.41644453        5      -0.00442948      -0.00626423      -0.00000000
In      -1.27623004       1.32232388       5.41644453        6      -0.00442948      -0.00626423      -0.00000000
In      -1.67210893       7.01683801       1.80548151        7       0.00442948       0.00626423      -0.00000000
In       4.22456899       0.13996433       3.85338834        8       0.00442948      -0.00313212      -0.00542499
In      -1.47416948       4.16958094      -0.00000000        9      -0.00000000       0.00000000       0.00000000
In       4.22456899       6.39433574       0.24242532       10       0.00442948      -0.00313212      -0.00542499
In      -1.27623004      -2.22475479       6.97950072       11      -0.00442948       0.00313212       0.00542499
In       4.22456899       2.84725706       1.80548151       12       0.00442948       0.00626423      -0.00000000
In       1.67210892       5.07201186       2.04790683       13      -0.00442948       0.00313212      -0.00542499
In       4.42250844       0.00000000      -0.00000000       14       0.00000000      -0.00000000       0.00000000
In       1.47416948       2.08479047       3.61096302       15      -0.00000000      -0.00000000      -0.00000000
O        0.86311346       4.16877462       3.93354500       16      -0.00073265      -0.00534690      -0.00372500
O       -2.08522550       3.40695306       5.25585183       17      -0.00073265      -0.00055250       0.00649305
O       -0.43206818       2.23799431       0.05862174       18      -0.00580622       0.00303506       0.00027922
O       -0.86311346      -0.76343420       1.96747080       19       0.00073265      -0.00589940       0.00276805
O        3.90718132       4.96686042       1.90884906       20      -0.00027668       0.00606060       0.00248883
O        1.98949660       2.91510891       1.64488881       21       0.00027668       0.00087491       0.00649305
O        1.98949660       6.22133246       0.26396024       22       0.00027668       0.00518569      -0.00400422
O       -2.25402400       5.91573110       3.66958475       23      -0.00479689       0.00446247       0.00027922
O        3.38040714       1.93158663       7.16330430       24       0.00580622      -0.00303506      -0.00027922
O        5.20236296      -1.74615015       3.55234128       25       0.00479689      -0.00446247      -0.00027922
O        6.32874610       3.25455554       1.70211396       26       0.00580622       0.00175934      -0.00248883
O        3.64265392       2.30487855       3.87492326       27      -0.00479689      -0.00198942      -0.00400422
O        0.69431496       4.28813319       6.89934405       28      -0.00479689      -0.00247305       0.00372500
O        2.25402400      -0.11855224       0.32258198       29       0.00479689       0.00247305      -0.00372500
O       -3.38040714       0.91502540       5.51981208       30      -0.00580622      -0.00175934       0.00248883
O        5.03356446       0.76262788       1.96607421       31       0.00073265       0.00055250      -0.00649305
O        0.95884236       1.25447204       5.57703722       32      -0.00027668      -0.00087491      -0.00649305
O        3.38040714      -1.01656123       5.57843382       33       0.00580622       0.00127572       0.00276805
O        2.08522550       0.00080632       3.28838103       34       0.00073265       0.00534690       0.00372500
O        0.95884236      -2.05175151       6.95796579       35      -0.00027668      -0.00518569       0.00400422
O       -0.69431496       1.86470240       3.34700277       36       0.00479689       0.00198942       0.00400422
O       -0.95884236      -0.79727948       5.31307698       37       0.00027668      -0.00606060      -0.00248883
O       -0.43206818       5.18614217       1.64349222       38      -0.00580622      -0.00127572      -0.00276805
O        3.81145242       4.93301515       5.25445524       39      -0.00073265       0.00589940      -0.00276805
