40
Lattice="8.612144284826519 6.749942826900221e-10 6.661338147750946e-15 -2.8707147622452314 8.119607498918732 -1.1691412282743845e-09 -2.8707147612906505 -4.05980374878436 7.031786363601677" Properties=species:S:1:pos:R:3:spacegroup_kinds:I:1:forces:R:3 spacegroup="P 1" unit_cell=conventional occupancy="_JSON {\"0\": {\"In\": 1}, \"1\": {\"In\": 1}, \"2\": {\"In\": 1}, \"3\": {\"In\": 1}, \"4\": {\"In\": 1}, \"5\": {\"In\": 1}, \"6\": {\"In\": 1}, \"7\": {\"In\": 1}, \"8\": {\"In\": 1}, \"9\": {\"In\": 1}, \"10\": {\"In\": 1}, \"11\": {\"In\": 1}, \"12\": {\"In\": 1}, \"13\": {\"In\": 1}, \"14\": {\"In\": 1}, \"15\": {\"In\": 1}, \"16\": {\"O\": 1}, \"17\": {\"O\": 1}, \"18\": {\"O\": 1}, \"19\": {\"O\": 1}, \"20\": {\"O\": 1}, \"21\": {\"O\": 1}, \"22\": {\"O\": 1}, \"23\": {\"O\": 1}, \"24\": {\"O\": 1}, \"25\": {\"O\": 1}, \"26\": {\"O\": 1}, \"27\": {\"O\": 1}, \"28\": {\"O\": 1}, \"29\": {\"O\": 1}, \"30\": {\"O\": 1}, \"31\": {\"O\": 1}, \"32\": {\"O\": 1}, \"33\": {\"O\": 1}, \"34\": {\"O\": 1}, \"35\": {\"O\": 1}, \"36\": {\"O\": 1}, \"37\": {\"O\": 1}, \"38\": {\"O\": 1}, \"39\": {\"O\": 1}}" n_minim_iter=4 energy=-45148.75728755273 stress="-0.12144384011971371 1.844464558914127e-13 -7.711503144459651e-13 1.844464558914127e-13 -0.12144384011886476 -1.1277568207625715e-13 -7.711503144459651e-13 -1.1277568207625715e-13 -0.12144384012039947" free_energy=-45148.75728755273 pbc="T T T"
In      -4.10829113       2.90500051       5.51607106        0      -0.00184295       0.00130316      -0.00225714
In       6.97900588       1.15480324       1.51571530        1       0.00184295      -0.00130316       0.00225714
In       1.23757636      -0.87509864       5.03160848        2       0.00184295      -0.00130316       0.00225714
In      -1.43535738      -2.02990187       3.51589318        3       0.00000000      -0.00000000      -0.00000000
In      -1.23757636       3.91995145       3.27366189        4      -0.00184295       0.00130316       0.00225714
In       4.50385316      -2.76514821       5.27383977        5      -0.00184295      -0.00260632       0.00000000
In      -1.23757636       1.29465554       5.27383977        6      -0.00184295      -0.00260632      -0.00000000
In      -1.63313840       6.82495196       1.75794659        7       0.00184295       0.00260632       0.00000000
In       4.10829112       0.13985230       3.75812447        8       0.00184295      -0.00130316      -0.00225714
In      -1.43535738       4.05980375      -0.00000000        9      -0.00000000      -0.00000000       0.00000000
In       4.10829112       6.22955793       0.24223129       10       0.00184295      -0.00130316      -0.00225714
In      -1.23757636      -2.16975417       6.78955507       11      -0.00184295       0.00130316       0.00225714
In       4.10829112       2.76514821       1.75794659       12       0.00184295       0.00260632       0.00000000
In       1.63313840       4.93490239       2.00017788       13      -0.00184295       0.00130316      -0.00225714
In       4.30607214       0.00000000      -0.00000000       14      -0.00000000      -0.00000000      -0.00000000
In       1.43535738       2.02990188       3.51589318       15       0.00000000      -0.00000000       0.00000000
O        0.83235788       4.05554349       3.84681261       16      -0.00061060       0.00488647       0.00538255
O       -2.03835688       3.33356758       5.11206955       17      -0.00061060       0.00221819      -0.00692308
O       -0.41126601       2.18304060       0.07305438       18       0.00649480      -0.00280609       0.00177922
O       -0.83235789      -0.73049643       1.92709580       19       0.00061060       0.00710465      -0.00154053
O        3.82236995       4.83247815       1.85404142       20       0.00229486      -0.00607742      -0.00331975
O        1.91905957       2.84049398       1.59617637       21      -0.00229486      -0.00016372      -0.00692308
O        1.91905957       6.05178792       0.25786505       22      -0.00229486      -0.00591370       0.00360332
O       -2.19527908       5.74977074       3.58894756       23       0.00481054      -0.00518799       0.00177922
O        3.28198077       1.87676316       6.95873198       24      -0.00649480       0.00280609      -0.00177922
O        5.06599384      -1.68996699       3.44283880       25      -0.00481054       0.00518799      -0.00177922
O        6.15269553       3.18468912       1.66185176       26      -0.00649480       0.00013781       0.00331975
O        3.54615044       2.26313627       3.77375823       27       0.00481054       0.00413485       0.00360332
O        0.67543568       4.16650425       6.70086692       28       0.00481054       0.00105314      -0.00538255
O        2.19527908      -0.10670049       0.33091943       29      -0.00481054      -0.00105314       0.00538255
O       -3.28198077       0.87511463       5.36993460       30       0.00649480      -0.00013781      -0.00331975
O        4.90907164       0.72623617       1.91971681       31       0.00061060      -0.00221819       0.00692308
O        0.95165519       1.21930978       5.43560999       32       0.00229486       0.00016372       0.00692308
O        3.28198077      -1.00164852       5.44298898       33      -0.00649480      -0.00294390      -0.00154053
O        2.03835688       0.00426026       3.18497374       34       0.00061060      -0.00488647      -0.00538255
O        0.95165519      -1.99198417       6.77392131       35       0.00229486       0.00591370      -0.00360332
O       -0.67543568       1.79666749       3.25802812       36      -0.00481054      -0.00413485      -0.00360332
O       -0.95165519      -0.77267439       5.17774494       37      -0.00229486       0.00607742       0.00331975
O       -0.41126601       5.06145228       1.58879738       38       0.00649480       0.00294390       0.00154053
O        3.70307264       4.79030018       5.10469056       39      -0.00061060      -0.00710465       0.00154053
