40
Lattice="8.768762938397199 6.872711288963274e-10 1.7763568394002505e-15 -2.922920980113699 8.267268981581491 -1.1903962260362277e-09 -2.92292097914175 -4.13363449010347 7.1596649587622725" Properties=species:S:1:pos:R:3:spacegroup_kinds:I:1:forces:R:3 spacegroup="P 1" unit_cell=conventional occupancy="_JSON {\"0\": {\"In\": 1}, \"1\": {\"In\": 1}, \"2\": {\"In\": 1}, \"3\": {\"In\": 1}, \"4\": {\"In\": 1}, \"5\": {\"In\": 1}, \"6\": {\"In\": 1}, \"7\": {\"In\": 1}, \"8\": {\"In\": 1}, \"9\": {\"In\": 1}, \"10\": {\"In\": 1}, \"11\": {\"In\": 1}, \"12\": {\"In\": 1}, \"13\": {\"In\": 1}, \"14\": {\"In\": 1}, \"15\": {\"In\": 1}, \"16\": {\"O\": 1}, \"17\": {\"O\": 1}, \"18\": {\"O\": 1}, \"19\": {\"O\": 1}, \"20\": {\"O\": 1}, \"21\": {\"O\": 1}, \"22\": {\"O\": 1}, \"23\": {\"O\": 1}, \"24\": {\"O\": 1}, \"25\": {\"O\": 1}, \"26\": {\"O\": 1}, \"27\": {\"O\": 1}, \"28\": {\"O\": 1}, \"29\": {\"O\": 1}, \"30\": {\"O\": 1}, \"31\": {\"O\": 1}, \"32\": {\"O\": 1}, \"33\": {\"O\": 1}, \"34\": {\"O\": 1}, \"35\": {\"O\": 1}, \"36\": {\"O\": 1}, \"37\": {\"O\": 1}, \"38\": {\"O\": 1}, \"39\": {\"O\": 1}}" n_minim_iter=1 energy=-45151.08691716444 stress="-0.05458760209073482 8.03972014258562e-14 8.545857721176102e-14 8.03972014258562e-14 -0.054587602090451576 -1.198937720766873e-13 8.545857721176102e-14 -1.198937720766873e-13 -0.05458760209109148" free_energy=-45151.08691716444 pbc="T T T"
In      -4.18814849       2.96146820       5.61008406        0      -0.00298237       0.00210886      -0.00365265
In       7.11106946       1.17216630       1.54958090        1       0.00298237      -0.00210886       0.00365265
In       1.26522750      -0.89465095       5.12941338        2       0.00298237      -0.00210886       0.00365265
In      -1.46146049      -2.06681724       3.57983248        3      -0.00000000      -0.00000000       0.00000000
In      -1.26522751       3.99487682       3.33949714        4      -0.00298237       0.00210886       0.00365265
In       4.58061445      -2.82271052       5.36974872        5      -0.00298237      -0.00421771       0.00000000
In      -1.26522751       1.31092397       5.36974872        6      -0.00298237      -0.00421771       0.00000000
In      -1.65769348       6.95634501       1.78991624        7       0.00298237       0.00421771      -0.00000000
In       4.18814848       0.13875768       3.82016782        8       0.00298237      -0.00210886      -0.00365265
In      -1.46146049       4.13363449      -0.00000000        9      -0.00000000      -0.00000000      -0.00000000
In       4.18814848       6.33920941       0.24033534       10       0.00298237      -0.00210886      -0.00365265
In      -1.26522751      -2.20557492       6.91932962       11      -0.00298237       0.00210886       0.00365265
In       4.18814848       2.82271052       1.78991624       12       0.00298237       0.00421771      -0.00000000
In       1.65769347       5.02828544       2.03025158       13      -0.00298237       0.00210886      -0.00365265
In       4.38438147       0.00000000      -0.00000000       14       0.00000000       0.00000000      -0.00000000
In       1.46146049       2.06681725       3.57983248       15       0.00000000       0.00000000       0.00000000
O        0.85567246       4.13283512       3.89963344       16      -0.01355113      -0.00844539       0.05729976
O       -2.06724852       3.37758132       5.21054051       17      -0.01355113       0.05384574      -0.02133596
O       -0.42834327       2.21870030       0.05811635       18       0.03828682       0.01719078       0.04215230
O       -0.85567246      -0.75685254       1.95050900       19       0.01355113       0.04540035       0.03596380
O        3.87349704       4.92404053       1.89239264       20       0.05528330      -0.02106371      -0.00618850
O        1.97234491       2.88997741       1.63070803       21      -0.05528330      -0.00517246      -0.02133596
O        1.97234491       6.16769762       0.26168461       22      -0.05528330      -0.01589125       0.01514746
O       -2.23459179       5.86473088       3.63794883       23      -0.00344535      -0.04182742       0.04215230
O        3.35126425       1.91493419       7.10154860       24      -0.03828682      -0.01719078      -0.04215230
O        5.15751277      -1.73109638       3.52171612       25       0.00344535       0.04182742      -0.04215230
O        6.27418523       3.22649764       1.68743983       26      -0.03828682       0.04510036       0.00618850
O        3.61125016       2.28500792       3.84151709       27      -0.00344535       0.05741868       0.01514746
O        0.68832919       4.25116468       6.83986399       28      -0.00344535      -0.01559126      -0.05729976
O        2.23459179      -0.11753019       0.31980097       29       0.00344535       0.01559126       0.05729976
O       -3.35126425       0.90713686       5.47222512       30       0.03828682      -0.04510036      -0.00618850
O        4.99016950       0.75605318       1.94912445       31       0.01355113      -0.05384574       0.02133596
O        0.95057606       1.24365709       5.52895693       32       0.05528330       0.00517246       0.02133596
O        3.35126425      -1.00779733       5.53034148       33      -0.03828682      -0.02790958       0.03596380
O        2.06724852       0.00079937       3.26003151       34       0.01355113       0.00844539      -0.05729976
O        0.95057606      -2.03406312       6.89798034       35       0.05528330       0.01589125      -0.01514746
O       -0.68832919       1.84862658       3.31814786       36       0.00344535      -0.05741868      -0.01514746
O       -0.95057607      -0.79040604       5.26727231       37      -0.05528330       0.02106371       0.00618850
O       -0.42834327       5.14143183       1.62932348       38       0.03828682       0.02790958      -0.03596380
O        3.77859343       4.89048704       5.20915596       39      -0.01355113      -0.04540035      -0.03596380
40
Lattice="8.768762938397197 6.872711288963274e-10 1.7763568394002445e-15 -2.922920980113699 8.26726898158149 -1.1903962260362277e-09 -2.92292097914175 -4.133634490103469 7.1596649587622725" Properties=species:S:1:pos:R:3:spacegroup_kinds:I:1:forces:R:3 spacegroup="P 1" unit_cell=conventional occupancy="_JSON {\"0\": {\"In\": 1}, \"1\": {\"In\": 1}, \"2\": {\"In\": 1}, \"3\": {\"In\": 1}, \"4\": {\"In\": 1}, \"5\": {\"In\": 1}, \"6\": {\"In\": 1}, \"7\": {\"In\": 1}, \"8\": {\"In\": 1}, \"9\": {\"In\": 1}, \"10\": {\"In\": 1}, \"11\": {\"In\": 1}, \"12\": {\"In\": 1}, \"13\": {\"In\": 1}, \"14\": {\"In\": 1}, \"15\": {\"In\": 1}, \"16\": {\"O\": 1}, \"17\": {\"O\": 1}, \"18\": {\"O\": 1}, \"19\": {\"O\": 1}, \"20\": {\"O\": 1}, \"21\": {\"O\": 1}, \"22\": {\"O\": 1}, \"23\": {\"O\": 1}, \"24\": {\"O\": 1}, \"25\": {\"O\": 1}, \"26\": {\"O\": 1}, \"27\": {\"O\": 1}, \"28\": {\"O\": 1}, \"29\": {\"O\": 1}, \"30\": {\"O\": 1}, \"31\": {\"O\": 1}, \"32\": {\"O\": 1}, \"33\": {\"O\": 1}, \"34\": {\"O\": 1}, \"35\": {\"O\": 1}, \"36\": {\"O\": 1}, \"37\": {\"O\": 1}, \"38\": {\"O\": 1}, \"39\": {\"O\": 1}}" n_minim_iter=2 energy=-45151.09047825901 stress="-0.05415497733227529 5.207035259117967e-13 1.961706645229141e-13 5.207035259117967e-13 -0.054154977330684674 1.0900888366415506e-13 1.961706645229141e-13 1.0900888366415506e-13 -0.054154977329580585" free_energy=-45151.09047825901 pbc="T T T"
In      -4.18836151       2.96161883       5.60982315        0       0.02017136      -0.01426330       0.02470477
In       7.11128249       1.17201567       1.54984180        1      -0.02017136       0.01426330      -0.02470477
In       1.26544053      -0.89480158       5.12967428        2      -0.02017136       0.01426330      -0.02470477
In      -1.46146049      -2.06681724       3.57983248        3      -0.00000000       0.00000000      -0.00000000
In      -1.26544053       3.99502745       3.33975804        4       0.02017136      -0.01426330      -0.02470477
In       4.58040143      -2.82301178       5.36974872        5       0.02017136       0.02852661      -0.00000000
In      -1.26544053       1.31062271       5.36974872        6       0.02017136       0.02852661      -0.00000000
In      -1.65748045       6.95664628       1.78991624        7      -0.02017136      -0.02852661       0.00000000
In       4.18836151       0.13860704       3.81990691        8      -0.02017136       0.01426330       0.02470477
In      -1.46146049       4.13363449      -0.00000000        9       0.00000000       0.00000000      -0.00000000
In       4.18836151       6.33905878       0.24007443       10      -0.02017136       0.01426330       0.02470477
In      -1.26544053      -2.20542428       6.91959052       11       0.02017136      -0.01426330      -0.02470477
In       4.18836151       2.82301179       1.78991624       12      -0.02017136      -0.02852661       0.00000000
In       1.65748045       5.02843607       2.02999067       13       0.02017136      -0.01426330       0.02470477
In       4.38438147       0.00000000      -0.00000000       14       0.00000000       0.00000000      -0.00000000
In       1.46146049       2.06681725       3.57983248       15      -0.00000000       0.00000000      -0.00000000
O        0.85470452       4.13223188       3.90372628       16      -0.01993137      -0.01328289       0.00510713
O       -2.06821646       3.38142744       5.20901651       17      -0.01993137       0.01106435       0.00894976
O       -0.42560850       2.21992821       0.06112723       18      -0.00873545       0.00314764       0.02266191
O       -0.85470452      -0.75360966       1.95307784       19       0.01993137      -0.00221854       0.01405689
O        3.87744585       4.92253598       1.89195061       20       0.01707536       0.01530240      -0.00860502
O        1.96839611       2.88960795       1.62918403       21      -0.01707536       0.01510336       0.00894976
O        1.96839611       6.16656253       0.26276657       22      -0.01707536       0.00019904      -0.01755477
O       -2.23483789       5.86174321       3.64095971       23      -0.00587944       0.00718665       0.02266191
O        3.34852948       1.91370628       7.09853772       24       0.00873545      -0.00314764      -0.02266191
O        5.15775887      -1.72810871       3.51870524       25       0.00587944      -0.00718665      -0.02266191
O        6.27145045       3.22971909       1.68788187       26       0.00873545       0.02119961       0.00860502
O        3.61100407       2.28910925       3.84259905       27      -0.00587944       0.01603246      -0.01755477
O        0.68808309       4.25005102       6.83577115       28      -0.00587944      -0.02321911      -0.00510713
O        2.23483789      -0.11641653       0.32389381       29       0.00587944       0.02321911       0.00510713
O       -3.34852948       0.90391541       5.47178309       30      -0.00873545      -0.02119961      -0.00860502
O        4.99113744       0.75220705       1.95064844       31       0.01993137      -0.01106435      -0.00894976
O        0.95452487       1.24402655       5.53048092       32       0.01707536      -0.01510336      -0.00894976
O        3.34852948      -1.00979087       5.53291032       33       0.00873545      -0.01805197       0.01405689
O        2.06821646       0.00140261       3.25593867       34       0.01993137       0.01328289      -0.00510713
O        0.95452487      -2.03292803       6.89689838       35       0.01707536      -0.00019904       0.01755477
O       -0.68808309       1.84452525       3.31706590       36       0.00587944      -0.01603246       0.01755478
O       -0.95452487      -0.78890148       5.26771435       37      -0.01707536      -0.01530240       0.00860502
O       -0.42560850       5.14342537       1.62675463       38      -0.00873545       0.01805197      -0.01405689
O        3.77762550       4.88724416       5.20658711       39      -0.01993137       0.00221854      -0.01405689
40
Lattice="8.768762938397193 6.872711288963271e-10 1.776356839400246e-15 -2.922920980113698 8.267268981581486 -1.190396226036228e-09 -2.922920979141749 -4.133634490103467 7.159664958762273" Properties=species:S:1:pos:R:3:spacegroup_kinds:I:1:forces:R:3 spacegroup="P 1" unit_cell=conventional occupancy="_JSON {\"0\": {\"In\": 1}, \"1\": {\"In\": 1}, \"2\": {\"In\": 1}, \"3\": {\"In\": 1}, \"4\": {\"In\": 1}, \"5\": {\"In\": 1}, \"6\": {\"In\": 1}, \"7\": {\"In\": 1}, \"8\": {\"In\": 1}, \"9\": {\"In\": 1}, \"10\": {\"In\": 1}, \"11\": {\"In\": 1}, \"12\": {\"In\": 1}, \"13\": {\"In\": 1}, \"14\": {\"In\": 1}, \"15\": {\"In\": 1}, \"16\": {\"O\": 1}, \"17\": {\"O\": 1}, \"18\": {\"O\": 1}, \"19\": {\"O\": 1}, \"20\": {\"O\": 1}, \"21\": {\"O\": 1}, \"22\": {\"O\": 1}, \"23\": {\"O\": 1}, \"24\": {\"O\": 1}, \"25\": {\"O\": 1}, \"26\": {\"O\": 1}, \"27\": {\"O\": 1}, \"28\": {\"O\": 1}, \"29\": {\"O\": 1}, \"30\": {\"O\": 1}, \"31\": {\"O\": 1}, \"32\": {\"O\": 1}, \"33\": {\"O\": 1}, \"34\": {\"O\": 1}, \"35\": {\"O\": 1}, \"36\": {\"O\": 1}, \"37\": {\"O\": 1}, \"38\": {\"O\": 1}, \"39\": {\"O\": 1}}" n_minim_iter=3 energy=-45151.0913401003 stress="-0.05382309717870391 9.557790633354214e-14 -1.6766678946051314e-13 9.557790633354214e-14 -0.05382309717721975 -5.244819107432658e-14 -1.6766678946051314e-13 -5.244819107432658e-14 -0.05382309717801454" free_energy=-45151.0913401003 pbc="T T T"
In      -4.18768495       2.96114043       5.61065177        0       0.01918371      -0.01356493       0.02349515
In       7.11060593       1.17249407       1.54901319        1      -0.01918371       0.01356493      -0.02349515
In       1.26476397      -0.89432318       5.12884567        2      -0.01918371       0.01356493      -0.02349515
In      -1.46146049      -2.06681724       3.57983248        3      -0.00000000      -0.00000000       0.00000000
In      -1.26476397       3.99454905       3.33892943        4       0.01918371      -0.01356493      -0.02349515
In       4.58107798      -2.82205498       5.36974872        5       0.01918371       0.02712986       0.00000000
In      -1.26476397       1.31157951       5.36974872        6       0.01918371       0.02712986      -0.00000000
In      -1.65815701       6.95568948       1.78991624        7      -0.01918371      -0.02712986      -0.00000000
In       4.18768495       0.13908544       3.82073553        8      -0.01918371       0.01356493       0.02349515
In      -1.46146049       4.13363449      -0.00000000        9      -0.00000000       0.00000000       0.00000000
In       4.18768495       6.33953718       0.24090305       10      -0.01918371       0.01356493       0.02349515
In      -1.26476397      -2.20590268       6.91876191       11       0.01918371      -0.01356493      -0.02349515
In       4.18768495       2.82205499       1.78991624       12      -0.01918371      -0.02712986       0.00000000
In       1.65815700       5.02795767       2.03081929       13       0.01918371      -0.01356493       0.02349515
In       4.38438147       0.00000000      -0.00000000       14      -0.00000000       0.00000000       0.00000000
In       1.46146049       2.06681725       3.57983248       15      -0.00000000       0.00000000       0.00000000
O        0.85336064       4.13136025       3.90627412       16      -0.01539751      -0.00369976      -0.01702982
O       -2.06956034       3.38406975       5.20849745       17      -0.01539751      -0.01289838       0.01171900
O       -0.42438705       2.22075656       0.06375004       18      -0.02078138      -0.00909141       0.00512513
O       -0.85336065      -0.75183898       1.95510662       19       0.01539751      -0.01659814      -0.00531082
O        3.88038500       4.92227958       1.89135657       20      -0.00702820       0.01955714      -0.01043596
O        1.96545695       2.88999419       1.62866497       21       0.00702820       0.01881637       0.01171900
O        1.96545695       6.16591988       0.26269160       22       0.00702820       0.00074077      -0.02215496
O       -2.23521172       5.86031549       3.64358252       23       0.00164433       0.02262334       0.00512513
O        3.34730802       1.91287793       7.09591491       24       0.02078138       0.00909141      -0.00512513
O        5.15813269      -1.72668100       3.51608244       25      -0.00164433      -0.02262334      -0.00512513
O        6.27022900       3.23240468       1.68847590       26       0.02078138      -0.00010721       0.01043596
O        3.61063024       2.29209452       3.84252408       27       0.00164433      -0.00687318      -0.02215496
O        0.68770926       4.24849346       6.83322331       28       0.00164433      -0.01575017       0.01702982
O        2.23521171      -0.11485897       0.32644165       29      -0.00164433       0.01575017      -0.01702982
O       -3.34730803       0.90122981       5.47118905       30      -0.02078138       0.00010721      -0.01043596
O        4.99248131       0.74956474       1.95116751       31       0.01539751       0.01289838      -0.01171900
O        0.95746402       1.24364030       5.53099999       32      -0.00702820      -0.01881637      -0.01171900
O        3.34730802      -1.01164812       5.53493910       33       0.02078138      -0.00898420      -0.00531082
O        2.06956033       0.00227425       3.25339083       34       0.01539751       0.00369976       0.01702982
O        0.95746402      -2.03228539       6.89697335       35      -0.00702820      -0.00074077       0.02215496
O       -0.68770927       1.84153997       3.31714087       36      -0.00164433       0.00687318       0.02215496
O       -0.95746403      -0.78864509       5.26830838       37       0.00702820      -0.01955714       0.01043596
O       -0.42438705       5.14528261       1.62472586       38      -0.02078138       0.00898420       0.00531082
O        3.77628162       4.88547348       5.20455834       39      -0.01539751       0.01659814       0.00531082
40
Lattice="8.768762938397197 6.872711288963275e-10 1.7763568394002493e-15 -2.9229209801136995 8.26726898158149 -1.1903962260362286e-09 -2.9229209791417503 -4.133634490103469 7.159664958762277" Properties=species:S:1:pos:R:3:spacegroup_kinds:I:1:forces:R:3 spacegroup="P 1" unit_cell=conventional occupancy="_JSON {\"0\": {\"In\": 1}, \"1\": {\"In\": 1}, \"2\": {\"In\": 1}, \"3\": {\"In\": 1}, \"4\": {\"In\": 1}, \"5\": {\"In\": 1}, \"6\": {\"In\": 1}, \"7\": {\"In\": 1}, \"8\": {\"In\": 1}, \"9\": {\"In\": 1}, \"10\": {\"In\": 1}, \"11\": {\"In\": 1}, \"12\": {\"In\": 1}, \"13\": {\"In\": 1}, \"14\": {\"In\": 1}, \"15\": {\"In\": 1}, \"16\": {\"O\": 1}, \"17\": {\"O\": 1}, \"18\": {\"O\": 1}, \"19\": {\"O\": 1}, \"20\": {\"O\": 1}, \"21\": {\"O\": 1}, \"22\": {\"O\": 1}, \"23\": {\"O\": 1}, \"24\": {\"O\": 1}, \"25\": {\"O\": 1}, \"26\": {\"O\": 1}, \"27\": {\"O\": 1}, \"28\": {\"O\": 1}, \"29\": {\"O\": 1}, \"30\": {\"O\": 1}, \"31\": {\"O\": 1}, \"32\": {\"O\": 1}, \"33\": {\"O\": 1}, \"34\": {\"O\": 1}, \"35\": {\"O\": 1}, \"36\": {\"O\": 1}, \"37\": {\"O\": 1}, \"38\": {\"O\": 1}, \"39\": {\"O\": 1}}" n_minim_iter=4 energy=-45151.091920630766 stress="-0.05382404795573376 4.549740896956043e-13 -6.630910299461405e-13 4.549740896956043e-13 -0.05382404795707504 -1.891402035034218e-13 -6.630910299461405e-13 -1.891402035034218e-13 -0.053824047956474594" free_energy=-45151.091920630766 pbc="T T T"
In      -4.18673245       2.96046690       5.61181835        0      -0.00048040       0.00033969      -0.00058837
In       7.10965342       1.17316759       1.54784661        1       0.00048040      -0.00033969       0.00058837
In       1.26381146      -0.89364965       5.12767909        2       0.00048040      -0.00033969       0.00058837
In      -1.46146049      -2.06681724       3.57983248        3      -0.00000000       0.00000000      -0.00000000
In      -1.26381147       3.99387553       3.33776285        4      -0.00048040       0.00033969       0.00058837
In       4.58203049      -2.82070793       5.36974872        5      -0.00048040      -0.00067939       0.00000000
In      -1.26381147       1.31292656       5.36974872        6      -0.00048040      -0.00067939      -0.00000000
In      -1.65910952       6.95434243       1.78991624        7       0.00048040       0.00067939       0.00000000
In       4.18673244       0.13975897       3.82190211        8       0.00048040      -0.00033969      -0.00058837
In      -1.46146049       4.13363449      -0.00000000        9       0.00000000      -0.00000000      -0.00000000
In       4.18673244       6.34021070       0.24206963       10       0.00048040      -0.00033969      -0.00058837
In      -1.26381147      -2.20657621       6.91759533       11      -0.00048040       0.00033969       0.00058837
In       4.18673244       2.82070794       1.78991624       12       0.00048040       0.00067939       0.00000000
In       1.65910951       5.02728415       2.03198587       13      -0.00048040       0.00033969      -0.00058837
In       4.38438147       0.00000000      -0.00000000       14      -0.00000000       0.00000000      -0.00000000
In       1.46146049       2.06681725       3.57983248       15       0.00000000       0.00000000      -0.00000000
O        0.85251805       4.13100003       3.90588151       16      -0.00428611       0.00757873       0.00044024
O       -2.07040292       3.38390985       5.20900571       17      -0.00428611      -0.00340810      -0.00678349
O       -0.42515828       2.22054620       0.06434569       18       0.00250340      -0.00820901       0.00153193
O       -0.85251806      -0.75235910       1.95522226       19       0.00428611       0.00417062      -0.00634325
O        3.88051510       4.92314360       1.89087657       20      -0.00178449      -0.00328617      -0.00787517
O        1.96532685       2.89084189       1.62917323       21       0.00178449       0.00517702      -0.00678349
O        1.96532685       6.16593620       0.26170334       22       0.00178449      -0.00846318      -0.00109168
O       -2.23527047       5.86111274       3.64417816       23       0.00857400       0.00037611       0.00153193
O        3.34807926       1.91308829       7.09531927       24      -0.00250340       0.00820901      -0.00153193
O        5.15819144      -1.72747825       3.51548679       25      -0.00857400      -0.00037611      -0.00153193
O        6.27100024       3.23281535       1.68895590       26      -0.00250340      -0.00277782       0.00787518
O        3.61057149       2.29221175       3.84153582       27       0.00857400       0.00113863      -0.00109168
O        0.68765051       4.24757899       6.83361592       28       0.00857400      -0.00151474      -0.00044024
O        2.23527046      -0.11394450       0.32604903       29      -0.00857400       0.00151474       0.00044024
O       -3.34807926       0.90081915       5.47070905       30       0.00250340       0.00277782      -0.00787517
O        4.99332390       0.74972465       1.95065925       31       0.00428611       0.00340810       0.00678349
O        0.95759413       1.24279260       5.53049173       32      -0.00178449      -0.00517702       0.00678349
O        3.34807926      -1.01226914       5.53505474       33      -0.00250340      -0.00543119      -0.00634325
O        2.07040292       0.00263446       3.25378344       34       0.00428611      -0.00757873      -0.00044024
O        0.95759413      -2.03230170       6.89796161       35      -0.00178449       0.00846318       0.00109168
O       -0.68765052       1.84142275       3.31812913       36      -0.00857400      -0.00113863       0.00109168
O       -0.95759413      -0.78950910       5.26878838       37       0.00178449       0.00328617       0.00787517
O       -0.42515828       5.14590364       1.62461021       38       0.00250340       0.00543119       0.00634325
O        3.77543903       4.88599360       5.20444269       39      -0.00428611      -0.00417062       0.00634325
