40
Lattice="8.280574262810973 6.490061821295977e-10 1.5099033134902145e-14 -2.7601914215488845 7.8070002842535855 -1.1241301223208223e-09 -2.760191420631062 -3.9035001414777764 6.761060574265345" Properties=species:S:1:pos:R:3:spacegroup_kinds:I:1:forces:R:3 spacegroup="P 1" unit_cell=conventional occupancy="_JSON {\"0\": {\"In\": 1}, \"1\": {\"In\": 1}, \"2\": {\"In\": 1}, \"3\": {\"In\": 1}, \"4\": {\"In\": 1}, \"5\": {\"In\": 1}, \"6\": {\"In\": 1}, \"7\": {\"In\": 1}, \"8\": {\"In\": 1}, \"9\": {\"In\": 1}, \"10\": {\"In\": 1}, \"11\": {\"In\": 1}, \"12\": {\"In\": 1}, \"13\": {\"In\": 1}, \"14\": {\"In\": 1}, \"15\": {\"In\": 1}, \"16\": {\"O\": 1}, \"17\": {\"O\": 1}, \"18\": {\"O\": 1}, \"19\": {\"O\": 1}, \"20\": {\"O\": 1}, \"21\": {\"O\": 1}, \"22\": {\"O\": 1}, \"23\": {\"O\": 1}, \"24\": {\"O\": 1}, \"25\": {\"O\": 1}, \"26\": {\"O\": 1}, \"27\": {\"O\": 1}, \"28\": {\"O\": 1}, \"29\": {\"O\": 1}, \"30\": {\"O\": 1}, \"31\": {\"O\": 1}, \"32\": {\"O\": 1}, \"33\": {\"O\": 1}, \"34\": {\"O\": 1}, \"35\": {\"O\": 1}, \"36\": {\"O\": 1}, \"37\": {\"O\": 1}, \"38\": {\"O\": 1}, \"39\": {\"O\": 1}}" n_minim_iter=6 energy=-45136.909442200864 stress="-0.3313926371184618 7.230002422962781e-13 -5.63456711507621e-13 7.230002422962781e-13 -0.3313926371205566 2.412927002428632e-13 -5.63456711507621e-13 2.412927002428632e-13 -0.33139263712043215" free_energy=-45136.909442200864 pbc="T T T"
In      -3.94472890       2.78934456       5.31030437        0      -0.00005436       0.00003844      -0.00006657
In       6.70492032       1.11415559       1.45075620        1       0.00005436      -0.00003844       0.00006657
In       1.18453748      -0.83759448       4.83128648        2       0.00005436      -0.00003844       0.00006657
In      -1.38009571      -1.95175007       3.38053028        3       0.00000000      -0.00000000       0.00000000
In      -1.18453748       3.76521959       3.14102134        4      -0.00005436       0.00003844       0.00006657
In       4.33584536      -2.65106400       5.07079543        5      -0.00005436      -0.00007687       0.00000000
In      -1.18453748       1.25243614       5.07079543        6      -0.00005436      -0.00007687      -0.00000000
In      -1.57565395       6.55456414       1.69026514        7       0.00005436       0.00007687      -0.00000000
In       3.94472890       0.13828056       3.62003923        8       0.00005436      -0.00003844      -0.00006657
In      -1.38009571       3.90350014      -0.00000000        9       0.00000000       0.00000000      -0.00000000
In       3.94472890       5.99353077       0.23950894       10       0.00005436      -0.00003844      -0.00006657
In      -1.18453748      -2.09003062       6.52155163       11      -0.00005436       0.00003844       0.00006657
In       3.94472890       2.65106400       1.69026514       12       0.00005436       0.00007687       0.00000000
In       1.57565394       4.74109463       1.92977408       13      -0.00005436       0.00003844      -0.00006657
In       4.14028713       0.00000000      -0.00000000       14      -0.00000000      -0.00000000       0.00000000
In       1.38009571       1.95175007       3.38053028       15       0.00000000      -0.00000000       0.00000000
O        0.78013910       3.89084300       3.72455229       16       0.00010423      -0.00003464      -0.00000890
O       -1.98005232       3.23188548       4.90974583       17       0.00010423       0.00000961       0.00003445
O       -0.38509128       2.10407771       0.10210561       18       0.00001114       0.00007543      -0.00007955
O       -0.78013910      -0.68427181       1.87323755       19      -0.00010423      -0.00002503       0.00002555
O        3.70706829       4.64672266       1.77113194       20      -0.00002568      -0.00002090       0.00010510
O        1.81331455       2.74126615       1.52921554       21       0.00002568      -0.00010147       0.00003445
O        1.81331455       5.80895665       0.24191639       22       0.00002568       0.00008057       0.00007065
O       -2.11210725       5.51695852       3.48263590       23      -0.00006741      -0.00003565      -0.00007955
O        3.14528270       1.79942244       6.65895496       24      -0.00001114      -0.00007543       0.00007955
O        4.87229867      -1.61345837       3.27842467       25       0.00006741       0.00003565       0.00007955
O        5.90547412       3.09221498       1.60939834       26      -0.00001114      -0.00003117      -0.00010510
O        3.40827559       2.20932198       3.62244668       27      -0.00006741      -0.00005107       0.00007065
O        0.64808417       3.98421994       6.41703856       28      -0.00006741       0.00008672       0.00000890
O        2.11210725      -0.08071979       0.34402201       29       0.00006741      -0.00008672      -0.00000890
O       -3.14528270       0.81128516       5.15166223       30       0.00001114       0.00003117       0.00010510
O        4.74024374       0.67161467       1.85131474       31      -0.00010423      -0.00000961      -0.00003445
O        0.94687687       1.16223400       5.23184503       32      -0.00002568       0.00010147      -0.00003445
O        3.14528270      -0.98813727       5.25376784       33      -0.00001114       0.00010661       0.00002555
O        1.98005232       0.01265714       3.03650828       34      -0.00010423       0.00003464       0.00000890
O        0.94687687      -1.90545651       6.51914418       35      -0.00002568      -0.00008057      -0.00007065
O       -0.64808417       1.69417817       3.13861389       36       0.00006741       0.00005107      -0.00007065
O       -0.94687687      -0.74322251       4.98992863       37       0.00002568       0.00002090      -0.00010510
O       -0.38509128       4.89163742       1.50729273       38       0.00001114      -0.00010661      -0.00002555
O        3.54033052       4.58777195       4.88782302       39       0.00010423       0.00002503      -0.00002555
