40
Lattice="9.608755258541194 7.531095747026484e-10 1.8207657603852567e-14 -3.20291842022377 9.0592213358508 -1.3044276769846874e-09 -3.2029184191587285 -4.529610667172292 7.8455158162224" Properties=species:S:1:pos:R:3:spacegroup_kinds:I:1:forces:R:3 spacegroup="P 1" unit_cell=conventional occupancy="_JSON {\"0\": {\"In\": 1}, \"1\": {\"In\": 1}, \"2\": {\"In\": 1}, \"3\": {\"In\": 1}, \"4\": {\"In\": 1}, \"5\": {\"In\": 1}, \"6\": {\"In\": 1}, \"7\": {\"In\": 1}, \"8\": {\"In\": 1}, \"9\": {\"In\": 1}, \"10\": {\"In\": 1}, \"11\": {\"In\": 1}, \"12\": {\"In\": 1}, \"13\": {\"In\": 1}, \"14\": {\"In\": 1}, \"15\": {\"In\": 1}, \"16\": {\"O\": 1}, \"17\": {\"O\": 1}, \"18\": {\"O\": 1}, \"19\": {\"O\": 1}, \"20\": {\"O\": 1}, \"21\": {\"O\": 1}, \"22\": {\"O\": 1}, \"23\": {\"O\": 1}, \"24\": {\"O\": 1}, \"25\": {\"O\": 1}, \"26\": {\"O\": 1}, \"27\": {\"O\": 1}, \"28\": {\"O\": 1}, \"29\": {\"O\": 1}, \"30\": {\"O\": 1}, \"31\": {\"O\": 1}, \"32\": {\"O\": 1}, \"33\": {\"O\": 1}, \"34\": {\"O\": 1}, \"35\": {\"O\": 1}, \"36\": {\"O\": 1}, \"37\": {\"O\": 1}, \"38\": {\"O\": 1}, \"39\": {\"O\": 1}}" n_minim_iter=1 energy=-45141.09984783355 stress="0.12904416754553247 3.3629106493131357e-13 3.356661597806089e-13 3.3629106493131357e-13 0.12904416754620676 2.171033314613191e-13 3.356661597806089e-13 2.171033314613191e-13 0.12904416754635323" free_energy=-45141.09984783355 pbc="T T T"
In      -4.50749219       3.18727829       6.24774578        0       0.06036724      -0.04268608       0.07393447
In       7.71041060       1.34233238       1.59777003        1      -0.06036724       0.04268608      -0.07393447
In       1.30457376      -0.92247295       5.52052793        2      -0.06036724       0.04268608      -0.07393447
In      -1.60145921      -2.26480533       3.92275791        3       0.00000000      -0.00000000      -0.00000000
In      -1.30457377       4.31968096       3.55914898        4       0.06036724      -0.04268608      -0.07393447
In       5.10126307      -2.97734858       5.88413686        5       0.06036724       0.08537217      -0.00000000
In      -1.30457377       1.55226209       5.88413686        6       0.06036724       0.08537217      -0.00000000
In      -1.89834466       7.50695925       1.96137895        7      -0.06036724      -0.08537217       0.00000000
In       4.50749218       0.20992971       4.28636683        8      -0.06036724       0.04268608       0.07393447
In      -1.60145921       4.52961067      -0.00000000        9       0.00000000       0.00000000       0.00000000
In       4.50749218       7.00434571       0.36360892       10      -0.06036724       0.04268608       0.07393447
In      -1.30457377      -2.47473504       7.48190689       11       0.06036724      -0.04268608      -0.07393447
In       4.50749218       2.97734858       1.96137895       12      -0.06036724      -0.08537217       0.00000000
In       1.89834465       5.45208363       2.32498787       13       0.06036724      -0.04268608       0.07393447
In       4.80437763       0.00000000      -0.00000000       14      -0.00000000       0.00000000      -0.00000000
In       1.60145921       2.26480534       3.92275790       15      -0.00000000       0.00000000       0.00000000
O        1.20039682       4.57027145       4.25481467       16       0.07305157       0.07327383      -0.04396747
O       -2.00252160       3.66444720       5.68289521       17       0.07305157      -0.07471386      -0.04147326
O       -0.37721632       2.51518282      -0.17203630       18       0.02299285      -0.03931700      -0.10278242
O       -1.20039683      -0.82450269       2.09219407       19      -0.07305157      -0.00144003      -0.08544073
O        4.12238115       5.25478816       2.26423036       20      -0.09479143      -0.05790143       0.01734169
O        2.28345568       2.93131840       1.76013730       21       0.09479143      -0.04396906      -0.04147326
O        2.28345568       6.85308043       0.50409305       22       0.09479143      -0.01393237       0.05881495
O       -2.49707587       6.31166468       3.75072161       23       0.04473271      -0.00857220      -0.10278242
O        3.58013473       2.01442785       8.01755211       24      -0.02299285       0.03931700       0.10278242
O        5.69999429      -1.78205401       4.09479420       25      -0.04473271       0.00857220       0.10278242
O        6.78305315       3.37340894       1.65852754       26      -0.02299285      -0.10867069      -0.01734169
O        3.90876096       2.35719320       4.42685096       27       0.04473271      -0.08472609       0.05881495
O        0.70584255       4.91997413       7.51345905       28       0.04473271       0.09329829       0.04396747
O        2.49707587      -0.39036346       0.33205676       29      -0.04473271      -0.09329829      -0.04396747
O       -3.58013474       1.15620173       6.18698827       30       0.02299285       0.10867069       0.01734169
O        5.20544001       0.86516347       2.16262060       31      -0.07305157       0.07471386       0.04147326
O        0.91946273       1.59829227       6.08537851       32      -0.09479143       0.04396906       0.04147326
O        3.58013473      -0.85822612       6.01495197       33      -0.02299285       0.06935369      -0.08544073
O        2.00252159      -0.04066078       3.59070114       34      -0.07305157      -0.07327383       0.04396747
O        0.91946273      -2.32346975       7.34142276       35      -0.09479143       0.01393237      -0.05881495
O       -0.70584255       2.17241748       3.41866485       36      -0.04473271       0.08472609      -0.05881495
O       -0.91946274      -0.72517749       5.58128545       37       0.09479143       0.05790143      -0.01734169
O       -0.37721632       5.38783679       1.83056384       38       0.02299285      -0.06935369       0.08544073
O        4.40331524       5.35411336       5.75332174       39       0.07305157       0.00144003       0.08544073
40
Lattice="9.608755258541189 7.531095747026479e-10 1.8207657603852564e-14 -3.2029184202237677 9.059221335850795 -1.3044276769846866e-09 -3.2029184191587263 -4.52961066717229 7.845515816222395" Properties=species:S:1:pos:R:3:spacegroup_kinds:I:1:forces:R:3 spacegroup="P 1" unit_cell=conventional occupancy="_JSON {\"0\": {\"In\": 1}, \"1\": {\"In\": 1}, \"2\": {\"In\": 1}, \"3\": {\"In\": 1}, \"4\": {\"In\": 1}, \"5\": {\"In\": 1}, \"6\": {\"In\": 1}, \"7\": {\"In\": 1}, \"8\": {\"In\": 1}, \"9\": {\"In\": 1}, \"10\": {\"In\": 1}, \"11\": {\"In\": 1}, \"12\": {\"In\": 1}, \"13\": {\"In\": 1}, \"14\": {\"In\": 1}, \"15\": {\"In\": 1}, \"16\": {\"O\": 1}, \"17\": {\"O\": 1}, \"18\": {\"O\": 1}, \"19\": {\"O\": 1}, \"20\": {\"O\": 1}, \"21\": {\"O\": 1}, \"22\": {\"O\": 1}, \"23\": {\"O\": 1}, \"24\": {\"O\": 1}, \"25\": {\"O\": 1}, \"26\": {\"O\": 1}, \"27\": {\"O\": 1}, \"28\": {\"O\": 1}, \"29\": {\"O\": 1}, \"30\": {\"O\": 1}, \"31\": {\"O\": 1}, \"32\": {\"O\": 1}, \"33\": {\"O\": 1}, \"34\": {\"O\": 1}, \"35\": {\"O\": 1}, \"36\": {\"O\": 1}, \"37\": {\"O\": 1}, \"38\": {\"O\": 1}, \"39\": {\"O\": 1}}" n_minim_iter=2 energy=-45141.12196883539 stress="0.12668077875392286 3.6596877618255385e-13 3.2078410214047306e-14 3.6596877618255385e-13 0.12668077875327674 -8.89993199474385e-14 3.2078410214047306e-14 -8.89993199474385e-14 0.12668077875316247" free_energy=-45141.12196883539 pbc="T T T"
In      -4.50318024       3.18422929       6.25302682        0       0.01538326      -0.01087760       0.01884056
In       7.70609866       1.34538139       1.59248899        1      -0.01538326       0.01087760      -0.01884056
In       1.30026182      -0.91942395       5.51524690        2      -0.01538326       0.01087760      -0.01884056
In      -1.60145921      -2.26480533       3.92275791        3      -0.00000000      -0.00000000       0.00000000
In      -1.30026182       4.31663195       3.55386795        4       0.01538326      -0.01087760      -0.01884056
In       5.10557502      -2.97125057       5.88413686        5       0.01538326       0.02175521       0.00000000
In      -1.30026182       1.55836010       5.88413686        6       0.01538326       0.02175521       0.00000000
In      -1.90265660       7.50086124       1.96137895        7      -0.01538326      -0.02175521      -0.00000000
In       4.50318024       0.21297872       4.29164786        8      -0.01538326       0.01087760       0.01884056
In      -1.60145921       4.52961067      -0.00000000        9       0.00000000      -0.00000000       0.00000000
In       4.50318024       7.00739472       0.36888995       10      -0.01538326       0.01087760       0.01884056
In      -1.30026182      -2.47778405       7.47662586       11       0.01538326      -0.01087760      -0.01884056
In       4.50318024       2.97125057       1.96137895       12      -0.01538326      -0.02175521       0.00000000
In       1.90265660       5.44903462       2.33026891       13       0.01538326      -0.01087760       0.01884056
In       4.80437763       0.00000000      -0.00000000       14      -0.00000000      -0.00000000      -0.00000000
In       1.60145921       2.26480534       3.92275790       15      -0.00000000      -0.00000000       0.00000000
O        1.20561479       4.57550529       4.25167413       16       0.06832409       0.02455854       0.01353943
O       -1.99730363       3.65911050       5.67993284       17       0.06832409      -0.00055378      -0.02803803
O       -0.37557397       2.51237446      -0.17937790       18       0.04540660       0.01565133      -0.05610611
O       -1.20561480      -0.82460555       2.08609116       19      -0.06832409       0.02400476      -0.01449861
O        4.11561033       5.25065234       2.26546905       20      -0.02329681      -0.05639764       0.04160750
O        2.29022650       2.92817775       1.75717493       21       0.02329681      -0.06423197      -0.02803803
O        2.29022650       6.85208526       0.50829412       22       0.02329681       0.00783433       0.06964554
O       -2.49388068       6.31105238       3.74338001       23       0.00037932      -0.04802686      -0.05610611
O        3.57849239       2.01723621       8.02489371       24      -0.04540660      -0.01565133       0.05610611
O        5.69679910      -1.78144171       4.10213580       25      -0.00037932       0.04802686       0.05610611
O        6.78141081       3.36564675       1.65728885       26      -0.04540660      -0.04076365      -0.04160750
O        3.91195616       2.35114133       4.43105203       27       0.00037932      -0.02457589       0.06964554
O        0.70903774       4.92663830       7.51659959       28       0.00037932       0.07260275      -0.01353943
O        2.49388068      -0.39702762       0.32891622       29      -0.00037932      -0.07260275       0.01353943
O       -3.57849239       1.16396392       6.18822696       30       0.04540660       0.04076365       0.04160750
O        5.20022204       0.87050017       2.16558297       31      -0.06832409       0.00055378       0.02803803
O        0.91269192       1.60143292       6.08834088       32      -0.02329681       0.06423197       0.02803803
O        3.57849239      -0.85327229       6.00884906       33      -0.04540660       0.05641498      -0.01449861
O        1.99730362      -0.04589462       3.59384168       34      -0.06832409      -0.02455854      -0.01353943
O        0.91269192      -2.32247458       7.33722169       35      -0.02329681      -0.00783433      -0.06964554
O       -0.70903774       2.17846934       3.41446378       36      -0.00037932       0.02457589      -0.06964554
O       -0.91269192      -0.72104167       5.58004676       37       0.02329681       0.05639764      -0.04160750
O       -0.37557397       5.38288296       1.83666675       38       0.04540660      -0.05641498       0.01449861
O        4.40853321       5.35421622       5.75942465       39       0.06832409      -0.02400476       0.01449861
40
Lattice="9.608755258541187 7.531095747026477e-10 1.8207657603852555e-14 -3.202918420223767 9.059221335850792 -1.3044276769846862e-09 -3.2029184191587254 -4.529610667172288 7.845515816222393" Properties=species:S:1:pos:R:3:spacegroup_kinds:I:1:forces:R:3 spacegroup="P 1" unit_cell=conventional occupancy="_JSON {\"0\": {\"In\": 1}, \"1\": {\"In\": 1}, \"2\": {\"In\": 1}, \"3\": {\"In\": 1}, \"4\": {\"In\": 1}, \"5\": {\"In\": 1}, \"6\": {\"In\": 1}, \"7\": {\"In\": 1}, \"8\": {\"In\": 1}, \"9\": {\"In\": 1}, \"10\": {\"In\": 1}, \"11\": {\"In\": 1}, \"12\": {\"In\": 1}, \"13\": {\"In\": 1}, \"14\": {\"In\": 1}, \"15\": {\"In\": 1}, \"16\": {\"O\": 1}, \"17\": {\"O\": 1}, \"18\": {\"O\": 1}, \"19\": {\"O\": 1}, \"20\": {\"O\": 1}, \"21\": {\"O\": 1}, \"22\": {\"O\": 1}, \"23\": {\"O\": 1}, \"24\": {\"O\": 1}, \"25\": {\"O\": 1}, \"26\": {\"O\": 1}, \"27\": {\"O\": 1}, \"28\": {\"O\": 1}, \"29\": {\"O\": 1}, \"30\": {\"O\": 1}, \"31\": {\"O\": 1}, \"32\": {\"O\": 1}, \"33\": {\"O\": 1}, \"34\": {\"O\": 1}, \"35\": {\"O\": 1}, \"36\": {\"O\": 1}, \"37\": {\"O\": 1}, \"38\": {\"O\": 1}, \"39\": {\"O\": 1}}" n_minim_iter=3 energy=-45141.129075587625 stress="0.12467846110331382 5.430414379977192e-13 8.300139285026474e-14 5.430414379977192e-13 0.12467846110307229 2.713221441701432e-13 8.300139285026474e-14 2.713221441701432e-13 0.12467846110396175" free_energy=-45141.129075587625 pbc="T T T"
In      -4.49994172       3.18193931       6.25699318        0      -0.02073068       0.01465880      -0.02538979
In       7.70286014       1.34767137       1.58852263        1       0.02073068      -0.01465880       0.02538979
In       1.29702330      -0.91713397       5.51128054        2       0.02073068      -0.01465880       0.02538979
In      -1.60145921      -2.26480533       3.92275791        3      -0.00000000       0.00000000       0.00000000
In      -1.29702330       4.31434197       3.54990158        4      -0.02073068       0.01465880       0.02538979
In       5.10881354      -2.96667060       5.88413686        5      -0.02073068      -0.02931761      -0.00000000
In      -1.29702330       1.56294006       5.88413686        6      -0.02073068      -0.02931761      -0.00000000
In      -1.90589512       7.49628128       1.96137895        7       0.02073068       0.02931761       0.00000000
In       4.49994172       0.21526870       4.29561423        8       0.02073068      -0.01465880      -0.02538979
In      -1.60145921       4.52961067      -0.00000000        9      -0.00000000      -0.00000000       0.00000000
In       4.49994172       7.00968470       0.37285632       10       0.02073068      -0.01465880      -0.02538979
In      -1.29702330      -2.48007403       7.47265949       11      -0.02073068       0.01465880       0.02538979
In       4.49994172       2.96667061       1.96137895       12       0.02073068       0.02931761       0.00000000
In       1.90589512       5.44674464       2.33423527       13      -0.02073068       0.01465880      -0.02538979
In       4.80437763       0.00000000      -0.00000000       14       0.00000000       0.00000000       0.00000000
In       1.60145921       2.26480534       3.92275790       15       0.00000000      -0.00000000      -0.00000000
O        1.21075630       4.57958098       4.24992394       16       0.06349534      -0.01005347       0.05619545
O       -1.99216212       3.65555695       5.67727828       17       0.06349534       0.05369342      -0.01939116
O       -0.37336786       2.51089655      -0.18562757       18       0.06230925       0.05453211      -0.02084381
O       -1.21075631      -0.82408341       2.08168641       19      -0.06349534       0.04363995       0.03680429
O        4.11054618       5.24652196       2.26731398       20       0.02945753      -0.05567413       0.05764810
O        2.29529066       2.92451481       1.75452037       21      -0.02945753      -0.07776178      -0.01939116
O        2.29529066       6.85161782       0.51279360       22      -0.02945753       0.02208766       0.07703926
O       -2.49175192       6.30946508       3.73713034       23      -0.03064362      -0.07692309      -0.02084381
O        3.57628627       2.01871412       8.03114338       24      -0.06230925      -0.05453211       0.02084381
O        5.69467034      -1.77985441       4.10838547       25       0.03064362       0.07692309       0.02084381
O        6.77920469       3.35949542       1.65544392       26      -0.06230925       0.00921478      -0.05764810
O        3.91408492       2.34652261       4.43555151       27      -0.03064362       0.02041028       0.07703926
O        0.71116650       4.93284432       7.51834978       28      -0.03064362       0.05651282      -0.05619545
O        2.49175192      -0.40323365       0.32716603       29       0.03064362      -0.05651282       0.05619545
O       -3.57628628       1.17011525       6.19007189       30       0.06230925      -0.00921478       0.05764810
O        5.19508053       0.87405373       2.16823753       31      -0.06349534      -0.05369342       0.01939116
O        0.90762776       1.60509586       6.09099544       32       0.02945753       0.07776178       0.01939116
O        3.57628627      -0.84859887       6.00444432       33      -0.06230925       0.04531733       0.03680429
O        1.99216211      -0.04997031       3.59559187       34      -0.06349534       0.01005347      -0.05619545
O        0.90762776      -2.32200715       7.33272221       35       0.02945753      -0.02208766      -0.07703926
O       -0.71116650       2.18308806       3.40996430       36       0.03064362      -0.02041028      -0.07703926
O       -0.90762776      -0.71691128       5.57820183       37      -0.02945753       0.05567413      -0.05764810
O       -0.37336786       5.37820954       1.84107149       38       0.06230925      -0.04531733      -0.03680429
O        4.41367472       5.35369408       5.76382940       39       0.06349534      -0.04363995      -0.03680429
40
Lattice="9.608755258541184 7.53109574702647e-10 1.820765760385253e-14 -3.2029184202237637 9.059221335850784 -1.3044276769846854e-09 -3.2029184191587223 -4.529610667172284 7.845515816222386" Properties=species:S:1:pos:R:3:spacegroup_kinds:I:1:forces:R:3 spacegroup="P 1" unit_cell=conventional occupancy="_JSON {\"0\": {\"In\": 1}, \"1\": {\"In\": 1}, \"2\": {\"In\": 1}, \"3\": {\"In\": 1}, \"4\": {\"In\": 1}, \"5\": {\"In\": 1}, \"6\": {\"In\": 1}, \"7\": {\"In\": 1}, \"8\": {\"In\": 1}, \"9\": {\"In\": 1}, \"10\": {\"In\": 1}, \"11\": {\"In\": 1}, \"12\": {\"In\": 1}, \"13\": {\"In\": 1}, \"14\": {\"In\": 1}, \"15\": {\"In\": 1}, \"16\": {\"O\": 1}, \"17\": {\"O\": 1}, \"18\": {\"O\": 1}, \"19\": {\"O\": 1}, \"20\": {\"O\": 1}, \"21\": {\"O\": 1}, \"22\": {\"O\": 1}, \"23\": {\"O\": 1}, \"24\": {\"O\": 1}, \"25\": {\"O\": 1}, \"26\": {\"O\": 1}, \"27\": {\"O\": 1}, \"28\": {\"O\": 1}, \"29\": {\"O\": 1}, \"30\": {\"O\": 1}, \"31\": {\"O\": 1}, \"32\": {\"O\": 1}, \"33\": {\"O\": 1}, \"34\": {\"O\": 1}, \"35\": {\"O\": 1}, \"36\": {\"O\": 1}, \"37\": {\"O\": 1}, \"38\": {\"O\": 1}, \"39\": {\"O\": 1}}" n_minim_iter=4 energy=-45141.14170318743 stress="0.12134990715410003 3.6571639188326537e-13 -7.097797146264695e-13 3.6571639188326537e-13 0.12134990715369313 7.068524225290575e-14 -7.097797146264695e-13 7.068524225290575e-14 0.12134990715323593" free_energy=-45141.14170318743 pbc="T T T"
In      -4.49603696       3.17917822       6.26177552        0      -0.06916106       0.04890425      -0.08470465
In       7.69895537       1.35043245       1.58374029        1       0.06916106      -0.04890425       0.08470465
In       1.29311854      -0.91437288       5.50649820        2       0.06916106      -0.04890425       0.08470465
In      -1.60145921      -2.26480533       3.92275791        3       0.00000000      -0.00000000       0.00000000
In      -1.29311854       4.31158089       3.54511925        4      -0.06916106       0.04890425       0.08470465
In       5.11271830      -2.96114844       5.88413686        5      -0.06916106      -0.09780850       0.00000000
In      -1.29311854       1.56846223       5.88413686        6      -0.06916106      -0.09780850      -0.00000000
In      -1.90979988       7.49075911       1.96137895        7       0.06916106       0.09780850       0.00000000
In       4.49603696       0.21802978       4.30039656        8       0.06916106      -0.04890425      -0.08470465
In      -1.60145921       4.52961067      -0.00000000        9      -0.00000000      -0.00000000      -0.00000000
In       4.49603695       7.01244578       0.37763865       10       0.06916106      -0.04890425      -0.08470465
In      -1.29311854      -2.48283511       7.46787716       11      -0.06916106       0.04890425       0.08470465
In       4.49603696       2.96114844       1.96137895       12       0.06916106       0.09780850       0.00000000
In       1.90979988       5.44398356       2.33901761       13      -0.06916106       0.04890425      -0.08470465
In       4.80437763       0.00000000      -0.00000000       14       0.00000000      -0.00000000      -0.00000000
In       1.60145921       2.26480534       3.92275790       15       0.00000000       0.00000000      -0.00000000
O        1.22461377       4.58580055       4.25136720       16       0.05607059      -0.03581941       0.09195697
O       -1.97830465       3.65369706       5.67117035       17       0.05607059       0.09754678      -0.01495797
O       -0.36463835       2.51266268      -0.19801595       18       0.07688732       0.08282713       0.01053721
O       -1.22461378      -0.81972373       2.07702174       19      -0.05607059       0.06172737       0.07699900
O        4.10417350       5.23500984       2.27503768       20       0.07327779      -0.05564371       0.06646179
O        2.30166333       2.91206982       1.74841244       21      -0.07327779      -0.08537945      -0.01495797
O        2.30166333       6.85255069       0.52662524       22      -0.07327779       0.02973574       0.08141976
O       -2.49050721       6.30064611       3.72474196       23      -0.05246106      -0.10009910       0.01053721
O        3.56755677       2.01694799       8.04353176       24      -0.07688732      -0.08282713      -0.01053721
O        5.69342563      -1.77103544       4.12077385       25       0.05246106       0.10009910      -0.01053721
O        6.77047519       3.34964984       1.64772022       26      -0.07688732       0.05053906      -0.06646179
O        3.91532962       2.34020344       4.44938315       27      -0.05246106       0.05917505       0.08141976
O        0.71241121       4.94798246       7.51690652       28      -0.05246106       0.04092406      -0.09195697
O        2.49050721      -0.41837178       0.32860929       29       0.05246106      -0.04092406       0.09195697
O       -3.56755677       1.17996084       6.19779559       30       0.07688732      -0.05053906       0.06646179
O        5.18122306       0.87591361       2.17434546       31      -0.05607059      -0.09754678       0.01495797
O        0.90125509       1.61754085       6.09710337       32       0.07327779       0.08537945       0.01495797
O        3.56755677      -0.83698715       5.99977965       33      -0.07688732       0.03228807       0.07699900
O        1.97830464      -0.05618988       3.59414861       34      -0.05607059       0.03581941      -0.09195697
O        0.90125509      -2.32294001       7.31889057       35       0.07327779      -0.02973574      -0.08141976
O       -0.71241121       2.18940723       3.39613266       36       0.05246106      -0.05917505      -0.08141976
O       -0.90125509      -0.70539917       5.57047813       37      -0.07327779       0.05564371      -0.06646179
O       -0.36463835       5.36659782       1.84573616       38       0.07688732      -0.03228807      -0.07699900
O        4.42753219       5.34933440       5.76849407       39       0.05607059      -0.06172737      -0.07699900
40
Lattice="9.608755258541153 7.531095747026449e-10 1.8207657603852488e-14 -3.2029184202237544 9.05922133585076 -1.3044276769846816e-09 -3.202918419158713 -4.529610667172272 7.845515816222364" Properties=species:S:1:pos:R:3:spacegroup_kinds:I:1:forces:R:3 spacegroup="P 1" unit_cell=conventional occupancy="_JSON {\"0\": {\"In\": 1}, \"1\": {\"In\": 1}, \"2\": {\"In\": 1}, \"3\": {\"In\": 1}, \"4\": {\"In\": 1}, \"5\": {\"In\": 1}, \"6\": {\"In\": 1}, \"7\": {\"In\": 1}, \"8\": {\"In\": 1}, \"9\": {\"In\": 1}, \"10\": {\"In\": 1}, \"11\": {\"In\": 1}, \"12\": {\"In\": 1}, \"13\": {\"In\": 1}, \"14\": {\"In\": 1}, \"15\": {\"In\": 1}, \"16\": {\"O\": 1}, \"17\": {\"O\": 1}, \"18\": {\"O\": 1}, \"19\": {\"O\": 1}, \"20\": {\"O\": 1}, \"21\": {\"O\": 1}, \"22\": {\"O\": 1}, \"23\": {\"O\": 1}, \"24\": {\"O\": 1}, \"25\": {\"O\": 1}, \"26\": {\"O\": 1}, \"27\": {\"O\": 1}, \"28\": {\"O\": 1}, \"29\": {\"O\": 1}, \"30\": {\"O\": 1}, \"31\": {\"O\": 1}, \"32\": {\"O\": 1}, \"33\": {\"O\": 1}, \"34\": {\"O\": 1}, \"35\": {\"O\": 1}, \"36\": {\"O\": 1}, \"37\": {\"O\": 1}, \"38\": {\"O\": 1}, \"39\": {\"O\": 1}}" n_minim_iter=5 energy=-45141.196218496225 stress="0.11088463582078782 -1.4857144342960016e-13 -4.496319361093667e-13 -1.4857144342960016e-13 0.11088463582217226 2.675623903010196e-13 -4.496319361093667e-13 2.675623903010196e-13 0.11088463582183017" free_energy=-45141.196218496225 pbc="T T T"
In      -4.48915914       3.17431487       6.27019909        0      -0.15625974       0.11049232      -0.19137831
In       7.69207756       1.35529580       1.57531672        1       0.15625974      -0.11049232       0.19137831
In       1.28624072      -0.90950953       5.49807463        2       0.15625974      -0.11049232       0.19137831
In      -1.60145921      -2.26480533       3.92275791        3       0.00000000      -0.00000000      -0.00000000
In      -1.28624072       4.30671754       3.53669568        4      -0.15625974       0.11049232       0.19137831
In       5.11959612      -2.95142173       5.88413686        5      -0.15625974      -0.22098464       0.00000000
In      -1.28624072       1.57818893       5.88413686        6      -0.15625974      -0.22098464       0.00000000
In      -1.91667770       7.48103241       1.96137895        7       0.15625974       0.22098464      -0.00000000
In       4.48915914       0.22289313       4.30882013        8       0.15625974      -0.11049232      -0.19137831
In      -1.60145921       4.52961067      -0.00000000        9      -0.00000000       0.00000000      -0.00000000
In       4.48915914       7.01730914       0.38606223       10       0.15625974      -0.11049232      -0.19137831
In      -1.28624072      -2.48769846       7.45945358       11      -0.15625974       0.11049232       0.19137831
In       4.48915914       2.95142174       1.96137895       12       0.15625974       0.22098464      -0.00000000
In       1.91667770       5.43912021       2.34744118       13      -0.15625974       0.11049232      -0.19137831
In       4.80437763       0.00000000      -0.00000000       14      -0.00000000      -0.00000000       0.00000000
In       1.60145921       2.26480534       3.92275790       15       0.00000000      -0.00000000      -0.00000000
O        1.28142071       4.60363813       4.26758252       16       0.03025190      -0.03675802       0.09815001
O       -1.92149771       3.65882115       5.64761489       17       0.03025190       0.10337941      -0.01724163
O       -0.32405424       2.52925804      -0.24144023       18       0.07289522       0.07322603       0.03498556
O       -1.28142071      -0.79676206       2.06968160       19      -0.03025190       0.06662140       0.08090838
O        4.09006889       5.18697715       2.31112182       20       0.08738308      -0.04642247       0.04592282
O        2.31576794       2.85680370       1.72485698       21      -0.08738308      -0.06298157      -0.01724163
O        2.31576794       6.85978412       0.58626483       22      -0.08738308       0.01655909       0.06316445
O       -2.49262543       6.25685126       3.68131768       23      -0.04473976      -0.09313495       0.03498556
O        3.52697266       2.00035264       8.08695604       24      -0.07289522      -0.07322603      -0.03498556
O        5.69554384      -1.72724058       4.16419813       25       0.04473976       0.09313495      -0.03498556
O        6.72989108       3.32034099       1.61163608       26      -0.07289522       0.06691140      -0.04592282
O        3.91321141       2.32449434       4.50902274       27      -0.04473976       0.07686586       0.06316445
O        0.71029299       5.00748641       7.50069120       28      -0.04473976       0.01626909      -0.09815001
O        2.49262542      -0.47787574       0.34482461       29       0.04473976      -0.01626909       0.09815001
O       -3.52697266       1.20926968       6.23387973       30       0.07289522      -0.06691140       0.04592282
O        5.12441613       0.87078952       2.19790092       31      -0.03025190      -0.10337941       0.01724163
O        0.88715047       1.67280697       6.12065883       32       0.08738308       0.06298157       0.01724163
O        3.52697266      -0.79108295       5.99243951       33      -0.07289522       0.00631463       0.08090838
O        1.92149771      -0.07402746       3.57793329       34      -0.03025190       0.03675802      -0.09815001
O        0.88715048      -2.33017345       7.25925098       35       0.08738308      -0.01655909      -0.06316445
O       -0.71029300       2.20511633       3.33649307       36       0.04473976      -0.07686586      -0.06316445
O       -0.88715048      -0.65736648       5.53439399       37      -0.08738308       0.04642247      -0.04592282
O       -0.32405424       5.32069362       1.85307630       38       0.07289522      -0.00631463      -0.08090838
O        4.48433913       5.32637273       5.77583421       39       0.03025190      -0.06662140      -0.08090838
40