40
Lattice="9.608755258541148 7.531095747026438e-10 1.8207657603852785e-14 -3.2029184202237513 9.059221335850747 -1.3044276769846804e-09 -3.20291841915871 -4.529610667172266 7.845515816222356" Properties=species:S:1:pos:R:3:spacegroup_kinds:I:1:forces:R:3 spacegroup="P 1" unit_cell=conventional occupancy="_JSON {\"0\": {\"In\": 1}, \"1\": {\"In\": 1}, \"2\": {\"In\": 1}, \"3\": {\"In\": 1}, \"4\": {\"In\": 1}, \"5\": {\"In\": 1}, \"6\": {\"In\": 1}, \"7\": {\"In\": 1}, \"8\": {\"In\": 1}, \"9\": {\"In\": 1}, \"10\": {\"In\": 1}, \"11\": {\"In\": 1}, \"12\": {\"In\": 1}, \"13\": {\"In\": 1}, \"14\": {\"In\": 1}, \"15\": {\"In\": 1}, \"16\": {\"O\": 1}, \"17\": {\"O\": 1}, \"18\": {\"O\": 1}, \"19\": {\"O\": 1}, \"20\": {\"O\": 1}, \"21\": {\"O\": 1}, \"22\": {\"O\": 1}, \"23\": {\"O\": 1}, \"24\": {\"O\": 1}, \"25\": {\"O\": 1}, \"26\": {\"O\": 1}, \"27\": {\"O\": 1}, \"28\": {\"O\": 1}, \"29\": {\"O\": 1}, \"30\": {\"O\": 1}, \"31\": {\"O\": 1}, \"32\": {\"O\": 1}, \"33\": {\"O\": 1}, \"34\": {\"O\": 1}, \"35\": {\"O\": 1}, \"36\": {\"O\": 1}, \"37\": {\"O\": 1}, \"38\": {\"O\": 1}, \"39\": {\"O\": 1}}" n_minim_iter=12 energy=-45141.273411629874 stress="0.10748905619768007 8.092351819762226e-13 4.6844070328714627e-14 8.092351819762226e-13 0.10748905619710677 6.730880364258508e-13 4.6844070328714627e-14 6.730880364258508e-13 0.10748905619837673" free_energy=-45141.273411629874 pbc="T T T"
In      -4.50778578       3.18748589       6.24738621        0       0.00037240      -0.00026332       0.00045609
In       7.71070419       1.34212478       1.59812960        1      -0.00037240       0.00026332      -0.00045609
In       1.30486735      -0.92268055       5.52088750        2      -0.00037240       0.00026332      -0.00045609
In      -1.60145921      -2.26480533       3.92275791        3       0.00000000      -0.00000000      -0.00000000
In      -1.30486736       4.31988856       3.55950855        4       0.00037240      -0.00026332      -0.00045609
In       5.10096948      -2.97776377       5.88413686        5       0.00037240       0.00052665      -0.00000000
In      -1.30486736       1.55184689       5.88413686        6       0.00037240       0.00052665       0.00000000
In      -1.89805107       7.50737445       1.96137895        7      -0.00037240      -0.00052665      -0.00000000
In       4.50778577       0.20972212       4.28600726        8      -0.00037240       0.00026332       0.00045609
In      -1.60145921       4.52961067      -0.00000000        9      -0.00000000      -0.00000000      -0.00000000
In       4.50778577       7.00413812       0.36324935       10      -0.00037240       0.00026332       0.00045609
In      -1.30486736      -2.47452744       7.48226646       11       0.00037240      -0.00026332      -0.00045609
In       4.50778577       2.97776378       1.96137895       12      -0.00037240      -0.00052665       0.00000000
In       1.89805106       5.45229122       2.32462831       13       0.00037240      -0.00026332       0.00045609
In       4.80437763       0.00000000      -0.00000000       14      -0.00000000      -0.00000000       0.00000000
In       1.60145921       2.26480534       3.92275790       15       0.00000000      -0.00000000      -0.00000000
O        1.32086678       4.60714301       4.27292386       16       0.00054010      -0.00178585       0.00122015
O       -1.88205164       3.66169444       5.64190891       17       0.00054010       0.00194960       0.00093651
O       -0.30489215       2.54647427      -0.27198891       18       0.00033442       0.00209504       0.00068461
O       -1.32086678      -0.79038389       2.06931695       19      -0.00054010       0.00016376       0.00215666
O        4.07962917       5.16296169       2.34130586       20       0.00165807       0.00023151       0.00147205
O        2.32620766       2.81865583       1.71915100       21      -0.00165807      -0.00115908       0.00093651
O        2.32620766       6.87391654       0.62215485       22      -0.00165807       0.00139058       0.00053553
O       -2.50246969       6.23304632       3.65076900       23      -0.00186374      -0.00101364       0.00068461
O        3.50781057       1.98313640       8.11750472       24      -0.00033442      -0.00209504      -0.00068461
O        5.70538810      -1.70343565       4.19474681       25       0.00186374       0.00101364      -0.00068461
O        6.71072899       3.30249317       1.58145204       26      -0.00033442       0.00164041      -0.00147205
O        3.90336715       2.30994087       4.54491276       27      -0.00186374       0.00109971       0.00053553
O        0.70044873       5.04584481       7.49534986       28      -0.00186374      -0.00008607      -0.00122015
O        2.50246968      -0.51623414       0.35016595       29       0.00186374       0.00008607       0.00122015
O       -3.50781057       1.22711750       6.26406377       30       0.00033442      -0.00164041       0.00147205
O        5.08497006       0.86791623       2.20360690       31      -0.00054010      -0.00194960      -0.00093651
O        0.87671075       1.71095485       6.12636481       32       0.00165807       0.00115908      -0.00093651
O        3.50781057      -0.75601889       5.99207486       33      -0.00033442       0.00045462       0.00215666
O        1.88205164      -0.07753233       3.57259195       34      -0.00054010       0.00178585      -0.00122015
O        0.87671075      -2.34430586       7.22336096       35       0.00165807      -0.00139058      -0.00053553
O       -0.70044874       2.21966980       3.30060305       36       0.00186374      -0.00109971      -0.00053553
O       -0.87671076      -0.63335102       5.50420995       37      -0.00165807      -0.00023151      -0.00147205
O       -0.30489215       5.28562957       1.85344095       38       0.00033442      -0.00045462      -0.00215666
O        4.52378519       5.31999456       5.77619886       39       0.00054010      -0.00016376      -0.00215666
