40
Lattice="9.608755258541192 7.531081887195845e-10 1.654232643478613e-14 -3.2029184202237686 9.059221335850793 -1.3044250319693845e-09 -3.2029184191587268 -4.5296106671722915 7.845515816222403" Properties=species:S:1:pos:R:3:spacegroup_kinds:I:1:forces:R:3 spacegroup="P 1" unit_cell=conventional occupancy="_JSON {\"0\": {\"In\": 1}, \"1\": {\"In\": 1}, \"2\": {\"In\": 1}, \"3\": {\"In\": 1}, \"4\": {\"In\": 1}, \"5\": {\"In\": 1}, \"6\": {\"In\": 1}, \"7\": {\"In\": 1}, \"8\": {\"In\": 1}, \"9\": {\"In\": 1}, \"10\": {\"In\": 1}, \"11\": {\"In\": 1}, \"12\": {\"In\": 1}, \"13\": {\"In\": 1}, \"14\": {\"In\": 1}, \"15\": {\"In\": 1}, \"16\": {\"O\": 1}, \"17\": {\"O\": 1}, \"18\": {\"O\": 1}, \"19\": {\"O\": 1}, \"20\": {\"O\": 1}, \"21\": {\"O\": 1}, \"22\": {\"O\": 1}, \"23\": {\"O\": 1}, \"24\": {\"O\": 1}, \"25\": {\"O\": 1}, \"26\": {\"O\": 1}, \"27\": {\"O\": 1}, \"28\": {\"O\": 1}, \"29\": {\"O\": 1}, \"30\": {\"O\": 1}, \"31\": {\"O\": 1}, \"32\": {\"O\": 1}, \"33\": {\"O\": 1}, \"34\": {\"O\": 1}, \"35\": {\"O\": 1}, \"36\": {\"O\": 1}, \"37\": {\"O\": 1}, \"38\": {\"O\": 1}, \"39\": {\"O\": 1}}" n_minim_iter=12 energy=-45142.77770714622 stress="0.11663155043430383 -6.221257633211695e-14 4.5391849959177714e-14 -6.221257633211695e-14 0.11663155043411699 4.912437810736624e-13 4.5391849959177714e-14 4.912437810736624e-13 0.11663155043466063" free_energy=-45142.77770714622 pbc="T T T"
In      -4.50749219       3.18727829       6.24774578        0       0.00017877      -0.00012641       0.00021894
In       7.71041060       1.34233238       1.59777003        1      -0.00017877       0.00012641      -0.00021894
In       1.30457376      -0.92247295       5.52052793        2      -0.00017877       0.00012641      -0.00021894
In      -1.60145921      -2.26480533       3.92275791        3       0.00000000      -0.00000000      -0.00000000
In      -1.30457377       4.31968096       3.55914898        4       0.00017877      -0.00012641      -0.00021894
In       5.10126307      -2.97734858       5.88413686        5       0.00017877       0.00025281      -0.00000000
In      -1.30457377       1.55226209       5.88413686        6       0.00017877       0.00025281      -0.00000000
In      -1.89834466       7.50695925       1.96137895        7      -0.00017877      -0.00025281       0.00000000
In       4.50749218       0.20992971       4.28636683        8      -0.00017877       0.00012641       0.00021894
In      -1.60145921       4.52961067      -0.00000000        9      -0.00000000      -0.00000000      -0.00000000
In       4.50749218       7.00434571       0.36360892       10      -0.00017877       0.00012641       0.00021894
In      -1.30457377      -2.47473504       7.48190689       11       0.00017877      -0.00012641      -0.00021894
In       4.50749218       2.97734858       1.96137895       12      -0.00017877      -0.00025281      -0.00000000
In       1.89834465       5.45208363       2.32498787       13       0.00017877      -0.00012641       0.00021894
In       4.80437763       0.00000000      -0.00000000       14      -0.00000000      -0.00000000      -0.00000000
In       1.60145921       2.26480534       3.92275790       15      -0.00000000      -0.00000000      -0.00000000
O        1.20039682       4.57027145       4.25481467       16       0.00009305      -0.00303501      -0.00007364
O       -2.00252160       3.66444720       5.68289521       17       0.00009305       0.00145373       0.00266522
O       -0.37721632       2.51518282      -0.17203630       18      -0.00145983       0.00255178       0.00076333
O       -1.20039683      -0.82450269       2.09219407       19      -0.00009305      -0.00158128       0.00259158
O        4.12238115       5.25478816       2.26423036       20       0.00133957       0.00202199       0.00182824
O        2.28345568       2.93131840       1.76013730       21      -0.00133957      -0.00057231       0.00266522
O        2.28345568       6.85308043       0.50409305       22      -0.00133957       0.00259430      -0.00083697
O       -2.49707587       6.31166468       3.75072161       23      -0.00289245       0.00052574       0.00076333
O        3.58013473       2.01442785       8.01755211       24       0.00145983      -0.00255178      -0.00076333
O        5.69999429      -1.78205401       4.09479420       25       0.00289245      -0.00052574      -0.00076333
O        6.78305315       3.37340894       1.65852754       26       0.00145983       0.00193696      -0.00182824
O        3.90876096       2.35719320       4.42685096       27      -0.00289245       0.00039820      -0.00083697
O        0.70584255       4.91997413       7.51345905       28      -0.00289245      -0.00092394       0.00007364
O        2.49707587      -0.39036346       0.33205676       29       0.00289245       0.00092394      -0.00007364
O       -3.58013474       1.15620173       6.18698827       30      -0.00145983      -0.00193696       0.00182824
O        5.20544001       0.86516347       2.16262060       31      -0.00009305      -0.00145373      -0.00266522
O        0.91946273       1.59829227       6.08537851       32       0.00133957       0.00057231      -0.00266522
O        3.58013473      -0.85822612       6.01495197       33       0.00145983       0.00061482       0.00259158
O        2.00252159      -0.04066078       3.59070114       34      -0.00009305       0.00303501       0.00007364
O        0.91946273      -2.32346975       7.34142276       35       0.00133957      -0.00259430       0.00083697
O       -0.70584255       2.17241748       3.41866485       36       0.00289245      -0.00039820       0.00083697
O       -0.91946274      -0.72517749       5.58128545       37      -0.00133957      -0.00202199      -0.00182824
O       -0.37721632       5.38783679       1.83056384       38      -0.00145983      -0.00061482      -0.00259158
O        4.40331524       5.35411336       5.75332174       39       0.00009305       0.00158128      -0.00259158
