40
Lattice="8.280574262810967 6.490088759769527e-10 1.0549376906111671e-14 -2.7601914215488814 7.807000284253573 -1.124128416394128e-09 -2.760191420631053 -3.9035001414777715 6.761060574265346" Properties=species:S:1:pos:R:3:spacegroup_kinds:I:1:forces:R:3 spacegroup="P 1" unit_cell=conventional occupancy="_JSON {\"0\": {\"In\": 1}, \"1\": {\"In\": 1}, \"2\": {\"In\": 1}, \"3\": {\"In\": 1}, \"4\": {\"In\": 1}, \"5\": {\"In\": 1}, \"6\": {\"In\": 1}, \"7\": {\"In\": 1}, \"8\": {\"In\": 1}, \"9\": {\"In\": 1}, \"10\": {\"In\": 1}, \"11\": {\"In\": 1}, \"12\": {\"In\": 1}, \"13\": {\"In\": 1}, \"14\": {\"In\": 1}, \"15\": {\"In\": 1}, \"16\": {\"O\": 1}, \"17\": {\"O\": 1}, \"18\": {\"O\": 1}, \"19\": {\"O\": 1}, \"20\": {\"O\": 1}, \"21\": {\"O\": 1}, \"22\": {\"O\": 1}, \"23\": {\"O\": 1}, \"24\": {\"O\": 1}, \"25\": {\"O\": 1}, \"26\": {\"O\": 1}, \"27\": {\"O\": 1}, \"28\": {\"O\": 1}, \"29\": {\"O\": 1}, \"30\": {\"O\": 1}, \"31\": {\"O\": 1}, \"32\": {\"O\": 1}, \"33\": {\"O\": 1}, \"34\": {\"O\": 1}, \"35\": {\"O\": 1}, \"36\": {\"O\": 1}, \"37\": {\"O\": 1}, \"38\": {\"O\": 1}, \"39\": {\"O\": 1}}" n_minim_iter=7 energy=-45140.974233612775 stress="-0.26569497752563054 -1.1343221623966945e-12 -1.5448651955831327e-13 -1.1343221623966945e-12 -0.2656949775254399 -5.050814156972121e-13 -1.5448651955831327e-13 -5.050814156972121e-13 -0.2656949775255009" free_energy=-45140.974233612775 pbc="T T T"
In      -3.94692202       2.79089532       5.30761836        0       0.00137638      -0.00097325       0.00168571
In       6.70711343       1.11260482       1.45344220        1      -0.00137638       0.00097325      -0.00168571
In       1.18673059      -0.83914525       4.83397249        2      -0.00137638       0.00097325      -0.00168571
In      -1.38009571      -1.95175007       3.38053028        3       0.00000000       0.00000000       0.00000000
In      -1.18673059       3.76677036       3.14370735        4       0.00137638      -0.00097325      -0.00168571
In       4.33365225      -2.65416553       5.07079543        5       0.00137638       0.00194649      -0.00000000
In      -1.18673059       1.24933461       5.07079543        6       0.00137638       0.00194649       0.00000000
In      -1.57346083       6.55766568       1.69026514        7      -0.00137638      -0.00194649       0.00000000
In       3.94692201       0.13672979       3.61735322        8      -0.00137638       0.00097325       0.00168571
In      -1.38009571       3.90350014      -0.00000000        9      -0.00000000      -0.00000000       0.00000000
In       3.94692201       5.99198000       0.23682293       10      -0.00137638       0.00097325       0.00168571
In      -1.18673059      -2.08847986       6.52423764       11       0.00137638      -0.00097325      -0.00168571
In       3.94692201       2.65416554       1.69026514       12      -0.00137638      -0.00194649      -0.00000000
In       1.57346083       4.74264539       1.92708808       13       0.00137638      -0.00097325       0.00168571
In       4.14028713       0.00000000      -0.00000000       14      -0.00000000       0.00000000      -0.00000000
In       1.38009571       1.95175007       3.38053028       15      -0.00000000       0.00000000       0.00000000
O        0.78517425       3.89338974       3.71579998       16       0.00667467      -0.00199884       0.00364841
O       -1.97501718       3.22303239       4.91191645       17       0.00667467       0.00415903      -0.00009316
O       -0.38935859       2.10180245       0.09288310       18       0.00426154       0.00586537      -0.00304863
O       -0.78517425      -0.69057816       1.86665586       19      -0.00667467       0.00216019       0.00355525
O        3.69704313       4.64770439       1.77377276       20       0.00169628      -0.00392032       0.00660388
O        1.82333971       2.73946999       1.53138616       21      -0.00169628      -0.00767929      -0.00009316
O        1.82333971       5.81173454       0.24238660       22      -0.00169628       0.00375896       0.00669704
O       -2.11138455       5.52174019       3.47341338       23      -0.00410941      -0.00597294      -0.00304863
O        3.14955001       1.80169770       6.66817747       24      -0.00426154      -0.00586537       0.00304863
O        4.87157597      -1.61824005       3.28764719       25       0.00410941       0.00597294       0.00304863
O        5.90974143       3.08309042       1.60675752       26      -0.00426154       0.00029250      -0.00660388
O        3.40899829       2.19894421       3.62291688       27      -0.00410941       0.00034628       0.00669704
O        0.64880687       3.98981603       6.42579087       28      -0.00410941       0.00562666      -0.00364841
O        2.11138455      -0.08631588       0.33526970       29       0.00410941      -0.00562666       0.00364841
O       -3.14955001       0.82040973       5.15430305       30       0.00426154      -0.00029250       0.00660388
O        4.73520859       0.68046776       1.84914412       31      -0.00667467      -0.00415903       0.00009316
O        0.93685171       1.16403015       5.22967441       32       0.00169628       0.00767929       0.00009316
O        3.14955001      -0.98128797       5.24718615       33      -0.00426154       0.00557288       0.00355525
O        1.97501717       0.01011041       3.04526059       34      -0.00667467       0.00199884      -0.00364841
O        0.93685171      -1.90823439       6.51867397       35       0.00169628      -0.00375896      -0.00669704
O       -0.64880688       1.70455594       3.13814368       36       0.00410941      -0.00034628      -0.00669704
O       -0.93685171      -0.74420424       4.98728781       37      -0.00169628       0.00392032      -0.00660388
O       -0.38935859       4.88478811       1.51387442       38       0.00426154      -0.00557288      -0.00355525
O        3.54536567       4.59407831       4.89440471       39       0.00667467      -0.00216019      -0.00355525
