40
Lattice="8.61214428482652 6.749942826900224e-10 6.661338147750939e-15 -2.870714762245232 8.119607498918736 -1.169141228274384e-09 -2.870714761290651 -4.059803748784362 7.031786363601677" Properties=species:S:1:pos:R:3:spacegroup_kinds:I:1:forces:R:3 spacegroup="P 1" unit_cell=conventional occupancy="_JSON {\"0\": {\"In\": 1}, \"1\": {\"In\": 1}, \"2\": {\"In\": 1}, \"3\": {\"In\": 1}, \"4\": {\"In\": 1}, \"5\": {\"In\": 1}, \"6\": {\"In\": 1}, \"7\": {\"In\": 1}, \"8\": {\"In\": 1}, \"9\": {\"In\": 1}, \"10\": {\"In\": 1}, \"11\": {\"In\": 1}, \"12\": {\"In\": 1}, \"13\": {\"In\": 1}, \"14\": {\"In\": 1}, \"15\": {\"In\": 1}, \"16\": {\"O\": 1}, \"17\": {\"O\": 1}, \"18\": {\"O\": 1}, \"19\": {\"O\": 1}, \"20\": {\"O\": 1}, \"21\": {\"O\": 1}, \"22\": {\"O\": 1}, \"23\": {\"O\": 1}, \"24\": {\"O\": 1}, \"25\": {\"O\": 1}, \"26\": {\"O\": 1}, \"27\": {\"O\": 1}, \"28\": {\"O\": 1}, \"29\": {\"O\": 1}, \"30\": {\"O\": 1}, \"31\": {\"O\": 1}, \"32\": {\"O\": 1}, \"33\": {\"O\": 1}, \"34\": {\"O\": 1}, \"35\": {\"O\": 1}, \"36\": {\"O\": 1}, \"37\": {\"O\": 1}, \"38\": {\"O\": 1}, \"39\": {\"O\": 1}}" n_minim_iter=1 energy=-45148.754383141175 stress="-0.12185793030644354 7.280851266299945e-14 1.2281754261562213e-13 7.280851266299945e-14 -0.1218579303067955 -3.456064073032878e-13 1.2281754261562213e-13 -3.456064073032878e-13 -0.1218579303071298" free_energy=-45148.754383141175 pbc="T T T"
In      -4.10951785       2.90586794       5.51456863        0      -0.00256672       0.00181495      -0.00314358
In       6.98023261       1.15393581       1.51721773        1       0.00256672      -0.00181495       0.00314358
In       1.23880309      -0.87596606       5.03311091        2       0.00256672      -0.00181495       0.00314358
In      -1.43535738      -2.02990187       3.51589318        3      -0.00000000      -0.00000000       0.00000000
In      -1.23880309       3.92081888       3.27516432        4      -0.00256672       0.00181495       0.00314358
In       4.50262643      -2.76688306       5.27383977        5      -0.00256672      -0.00362990      -0.00000000
In      -1.23880309       1.29292069       5.27383977        6      -0.00256672      -0.00362990       0.00000000
In      -1.63191168       6.82668682       1.75794659        7       0.00256672       0.00362990      -0.00000000
In       4.10951785       0.13898488       3.75662204        8       0.00256672      -0.00181495      -0.00314358
In      -1.43535738       4.05980375      -0.00000000        9       0.00000000      -0.00000000      -0.00000000
In       4.10951785       6.22869050       0.24072886       10       0.00256672      -0.00181495      -0.00314358
In      -1.23880309      -2.16888675       6.79105750       11      -0.00256672       0.00181495       0.00314358
In       4.10951785       2.76688307       1.75794659       12       0.00256672       0.00362990      -0.00000000
In       1.63191167       4.93576982       1.99867545       13      -0.00256672       0.00181495      -0.00314358
In       4.30607214       0.00000000      -0.00000000       14      -0.00000000       0.00000000       0.00000000
In       1.43535738       2.02990188       3.51589318       15       0.00000000       0.00000000      -0.00000000
O        0.83424284       4.05705240       3.84238959       16      -0.00660589      -0.01211392       0.04570541
O       -2.03647192       3.32898267       5.11297430       17      -0.00660589       0.04563900      -0.01236174
O       -0.41353777       2.18139493       0.06886822       18       0.02940579       0.02017490       0.03174338
O       -0.83424284      -0.73357243       1.92357753       19       0.00660589       0.03352509       0.03334366
O        3.81741893       4.83313727       1.85470931       20       0.04523083      -0.01519804       0.00160029
O        1.92401059       2.84024513       1.59708112       21      -0.04523083      -0.00898491      -0.01236174
O        1.92401059       6.05269589       0.25762819       22      -0.04523083      -0.00621313       0.01396203
O       -2.19448479       5.75246113       3.58476140       23      -0.00921915      -0.03444901       0.03174338
O        3.28425253       1.87840882       6.96291814       24      -0.02940579      -0.02017490      -0.03174338
O        5.06519955      -1.69265738       3.44702496       25       0.00921915       0.03444901      -0.03174338
O        6.15496729       3.18024097       1.66118386       26      -0.02940579       0.03757802      -0.00160029
O        3.54694474       2.25816575       3.77352137       27      -0.00921915       0.04471508       0.01396203
O        0.67622997       4.16878437       6.70528995       28      -0.00921915      -0.01026606      -0.04570541
O        2.19448478      -0.10898062       0.32649640       29       0.00921915       0.01026606       0.04570541
O       -3.28425254       0.87956279       5.37060249       30       0.02940579      -0.03757802       0.00160029
O        4.90718668       0.73082108       1.91881205       31       0.00660589      -0.04563900       0.01236174
O        0.94670417       1.21955863       5.43470524       32       0.04523083       0.00898491       0.01236174
O        3.28425253      -0.99884604       5.43947071       33      -0.02940579      -0.01740312       0.03334366
O        2.03647192       0.00275135       3.18939677       34       0.00660589       0.01211392      -0.04570541
O        0.94670417      -1.99289214       6.77415817       35       0.04523083       0.00621313      -0.01396203
O       -0.67622998       1.80163800       3.25826499       36       0.00921915      -0.04471508      -0.01396203
O       -0.94670417      -0.77333351       5.17707705       37      -0.04523083       0.01519804      -0.00160029
O       -0.41353777       5.05864979       1.59231565       38       0.02940579       0.01740312      -0.03334366
O        3.70495760       4.79337618       5.10820883       39      -0.00660589      -0.03352509      -0.03334366
40
Lattice="8.612144284826515 6.74994282690022e-10 6.661338147750927e-15 -2.87071476224523 8.11960749891873 -1.1691412282743832e-09 -2.870714761290649 -4.0598037487843595 7.031786363601673" Properties=species:S:1:pos:R:3:spacegroup_kinds:I:1:forces:R:3 spacegroup="P 1" unit_cell=conventional occupancy="_JSON {\"0\": {\"In\": 1}, \"1\": {\"In\": 1}, \"2\": {\"In\": 1}, \"3\": {\"In\": 1}, \"4\": {\"In\": 1}, \"5\": {\"In\": 1}, \"6\": {\"In\": 1}, \"7\": {\"In\": 1}, \"8\": {\"In\": 1}, \"9\": {\"In\": 1}, \"10\": {\"In\": 1}, \"11\": {\"In\": 1}, \"12\": {\"In\": 1}, \"13\": {\"In\": 1}, \"14\": {\"In\": 1}, \"15\": {\"In\": 1}, \"16\": {\"O\": 1}, \"17\": {\"O\": 1}, \"18\": {\"O\": 1}, \"19\": {\"O\": 1}, \"20\": {\"O\": 1}, \"21\": {\"O\": 1}, \"22\": {\"O\": 1}, \"23\": {\"O\": 1}, \"24\": {\"O\": 1}, \"25\": {\"O\": 1}, \"26\": {\"O\": 1}, \"27\": {\"O\": 1}, \"28\": {\"O\": 1}, \"29\": {\"O\": 1}, \"30\": {\"O\": 1}, \"31\": {\"O\": 1}, \"32\": {\"O\": 1}, \"33\": {\"O\": 1}, \"34\": {\"O\": 1}, \"35\": {\"O\": 1}, \"36\": {\"O\": 1}, \"37\": {\"O\": 1}, \"38\": {\"O\": 1}, \"39\": {\"O\": 1}}" n_minim_iter=2 energy=-45148.75638232445 stress="-0.12157026628821449 6.375356550008344e-14 -5.217425603501402e-13 6.375356550008344e-14 -0.12157026628861768 5.337279922334706e-14 -5.217425603501402e-13 5.337279922334706e-14 -0.12157026628883186" free_energy=-45148.75638232445 pbc="T T T"
In      -4.10970119       2.90599758       5.51434409        0       0.02224903      -0.01573244       0.02724939
In       6.98041595       1.15380617       1.51744227        1      -0.02224903       0.01573244      -0.02724939
In       1.23898642      -0.87609570       5.03333545        2      -0.02224903       0.01573244      -0.02724939
In      -1.43535738      -2.02990187       3.51589318        3       0.00000000      -0.00000000       0.00000000
In      -1.23898643       3.92094852       3.27538886        4       0.02224903      -0.01573244      -0.02724939
In       4.50244310      -2.76714234       5.27383977        5       0.02224903       0.03146488       0.00000000
In      -1.23898643       1.29266141       5.27383977        6       0.02224903       0.03146488      -0.00000000
In      -1.63172834       6.82694609       1.75794659        7      -0.02224903      -0.03146488      -0.00000000
In       4.10970118       0.13885524       3.75639750        8      -0.02224903       0.01573244       0.02724939
In      -1.43535738       4.05980375      -0.00000000        9       0.00000000      -0.00000000       0.00000000
In       4.10970118       6.22856086       0.24050432       10      -0.02224903       0.01573244       0.02724939
In      -1.23898643      -2.16875711       6.79128204       11       0.02224903      -0.01573244      -0.02724939
In       4.10970118       2.76714234       1.75794659       12      -0.02224903      -0.03146488       0.00000000
In       1.63172833       4.93589945       1.99845091       13       0.02224903      -0.01573244       0.02724939
In       4.30607214       0.00000000      -0.00000000       14       0.00000000       0.00000000      -0.00000000
In       1.43535738       2.02990188       3.51589318       15      -0.00000000       0.00000000      -0.00000000
O        0.83377099       4.05618712       3.84565426       16      -0.01711317      -0.01083465      -0.00245899
O       -2.03694377       3.33224260       5.11209132       17      -0.01711317       0.00328778       0.01061257
O       -0.41143736       2.18283599       0.07113560       18      -0.01281965       0.00025180       0.01587105
O       -0.83377099      -0.73117778       1.92595922       19       0.01711317      -0.00754687       0.00815358
O        3.82064970       4.83205169       1.85482362       20       0.00880414       0.01671002      -0.00771746
O        1.92077981       2.83960335       1.59619814       21      -0.00880414       0.01503853       0.01061257
O        1.92077981       6.05225210       0.25862547       22      -0.00880414       0.00167149      -0.01833004
O       -2.19514330       5.75000049       3.58702878       23      -0.00451061       0.01200255       0.01587105
O        3.28215212       1.87696776       6.96065076       24       0.01281965      -0.00025180      -0.01587105
O        5.06585806      -1.69019674       3.44475758       25       0.00451061      -0.01200255      -0.01587105
O        6.15286688       3.18292511       1.66106956       26       0.01281965       0.01387063       0.00771746
O        3.54628623       2.26135968       3.77451866       27      -0.00451061       0.00774345      -0.01833004
O        0.67557146       4.16805108       6.70202528       28      -0.00451061      -0.01974600       0.00245899
O        2.19514329      -0.10824733       0.32976108       29       0.00451061       0.01974600      -0.00245899
O       -3.28215212       0.87687864       5.37071680       30      -0.01281965      -0.01387063      -0.00771746
O        4.90765853       0.72756115       1.91969504       31       0.01711317      -0.00328778      -0.01061257
O        0.94993494       1.22020041       5.43558822       32       0.00880414      -0.01503853      -0.01061257
O        3.28215212      -1.00008912       5.44185240       33       0.01281965      -0.01361883       0.00815358
O        2.03694377       0.00361663       3.18613210       34       0.01711317       0.01083465       0.00245899
O        0.94993494      -1.99244834       6.77316088       35       0.00880414      -0.00167149       0.01833004
O       -0.67557147       1.79844407       3.25726770       36       0.00451061      -0.00774345       0.01833004
O       -0.94993495      -0.77224794       5.17696274       37      -0.00880414      -0.01671002       0.00771746
O       -0.41143736       5.05989287       1.58993396       38      -0.01281965       0.01361883      -0.00815358
O        3.70448575       4.79098153       5.10582714       39      -0.01711317       0.00754687      -0.00815358
40
Lattice="8.612144284826517 6.749942826900221e-10 6.661338147750943e-15 -2.8707147622452305 8.119607498918732 -1.1691412282743838e-09 -2.8707147612906496 -4.05980374878436 7.0317863636016735" Properties=species:S:1:pos:R:3:spacegroup_kinds:I:1:forces:R:3 spacegroup="P 1" unit_cell=conventional occupancy="_JSON {\"0\": {\"In\": 1}, \"1\": {\"In\": 1}, \"2\": {\"In\": 1}, \"3\": {\"In\": 1}, \"4\": {\"In\": 1}, \"5\": {\"In\": 1}, \"6\": {\"In\": 1}, \"7\": {\"In\": 1}, \"8\": {\"In\": 1}, \"9\": {\"In\": 1}, \"10\": {\"In\": 1}, \"11\": {\"In\": 1}, \"12\": {\"In\": 1}, \"13\": {\"In\": 1}, \"14\": {\"In\": 1}, \"15\": {\"In\": 1}, \"16\": {\"O\": 1}, \"17\": {\"O\": 1}, \"18\": {\"O\": 1}, \"19\": {\"O\": 1}, \"20\": {\"O\": 1}, \"21\": {\"O\": 1}, \"22\": {\"O\": 1}, \"23\": {\"O\": 1}, \"24\": {\"O\": 1}, \"25\": {\"O\": 1}, \"26\": {\"O\": 1}, \"27\": {\"O\": 1}, \"28\": {\"O\": 1}, \"29\": {\"O\": 1}, \"30\": {\"O\": 1}, \"31\": {\"O\": 1}, \"32\": {\"O\": 1}, \"33\": {\"O\": 1}, \"34\": {\"O\": 1}, \"35\": {\"O\": 1}, \"36\": {\"O\": 1}, \"37\": {\"O\": 1}, \"38\": {\"O\": 1}, \"39\": {\"O\": 1}}" n_minim_iter=3 energy=-45148.75721405744 stress="-0.12141452571956113 -2.6131416065731756e-13 -9.131466253119479e-14 -2.6131416065731756e-13 -0.12141452571945656 1.5710753290798523e-13 -9.131466253119479e-14 1.5710753290798523e-13 -0.12141452571897614" free_energy=-45148.75721405744 pbc="T T T"
In      -4.10849062       2.90514158       5.51582673        0       0.00323707      -0.00228896       0.00396459
In       6.97920538       1.15466218       1.51595963        1      -0.00323707       0.00228896      -0.00396459
In       1.23777585      -0.87523970       5.03185281        2      -0.00323707       0.00228896      -0.00396459
In      -1.43535738      -2.02990187       3.51589318        3      -0.00000000      -0.00000000      -0.00000000
In      -1.23777586       3.92009251       3.27390622        4       0.00323707      -0.00228896      -0.00396459
In       4.50365367      -2.76543033       5.27383977        5       0.00323707       0.00457791       0.00000000
In      -1.23777586       1.29437341       5.27383977        6       0.00323707       0.00457791       0.00000000
In      -1.63293891       6.82523409       1.75794659        7      -0.00323707      -0.00457791       0.00000000
In       4.10849061       0.13971124       3.75788014        8      -0.00323707       0.00228896       0.00396459
In      -1.43535738       4.05980375      -0.00000000        9       0.00000000      -0.00000000      -0.00000000
In       4.10849061       6.22941686       0.24198696       10      -0.00323707       0.00228896       0.00396459
In      -1.23777585      -2.16961311       6.78979940       11       0.00323707      -0.00228896      -0.00396459
In       4.10849061       2.76543034       1.75794659       12      -0.00323707      -0.00457791      -0.00000000
In       1.63293891       4.93504345       1.99993355       13       0.00323707      -0.00228896       0.00396459
In       4.30607214       0.00000000      -0.00000000       14       0.00000000       0.00000000       0.00000000
In       1.43535738       2.02990188       3.51589318       15       0.00000000      -0.00000000       0.00000000
O        0.83254052       4.05513138       3.84710511       16      -0.00457632       0.01000483      -0.00067546
O       -2.03817424       3.33402695       5.11228020       17      -0.00457632      -0.00558738      -0.00832670
O       -0.41116058       2.18355456       0.07317047       18       0.00263937      -0.01068964       0.00051067
O       -0.83254053      -0.73044917       1.92759895       19       0.00457632       0.00441745      -0.00900217
O        3.82274216       4.83249792       1.85442848       20      -0.00374239      -0.00412261      -0.00951284
O        1.91868736       2.84016866       1.59638701       21       0.00374239       0.00617705      -0.00832670
O        1.91868736       6.05213301       0.25804146       22       0.00374239      -0.01029966      -0.00118613
O       -2.19572851       5.74950002       3.58906365       23       0.01095808       0.00107479       0.00051067
O        3.28187534       1.87624920       6.95861589       24      -0.00263937       0.01068964      -0.00051067
O        5.06644327      -1.68969626       3.44272271       25      -0.01095808      -0.00107479      -0.00051067
O        6.15259010       3.18504664       1.66146470       26      -0.00263937      -0.00490257       0.00951284
O        3.54570102       2.26337217       3.77393464       27       0.01095808      -0.00009514      -0.00118613
O        0.67498625       4.16653907       6.70057443       28       0.01095808      -0.00097965       0.00067546
O        2.19572850      -0.10673532       0.33121193       29      -0.01095808       0.00097965      -0.00067546
O       -3.28187534       0.87475711       5.37032166       30       0.00263937       0.00490257      -0.00951284
O        4.90888900       0.72577680       1.91950616       31       0.00457632       0.00558738       0.00832670
O        0.95202740       1.21963509       5.43539934       32      -0.00374239      -0.00617705       0.00832670
O        3.28187534      -1.00149208       5.44349213       33      -0.00263937      -0.00578707      -0.00900216
O        2.03817424       0.00467238       3.18468124       34       0.00457632      -0.01000483       0.00067546
O        0.95202740      -1.99232925       6.77374490       35      -0.00374239       0.01029966       0.00118613
O       -0.67498626       1.79643159       3.25785171       36      -0.01095808       0.00009514       0.00118613
O       -0.95202740      -0.77269416       5.17735788       37       0.00374239       0.00412261       0.00951284
O       -0.41116058       5.06129583       1.58829423       38       0.00263937       0.00578707       0.00900217
O        3.70325528       4.79025293       5.10418741       39      -0.00457632      -0.00441745       0.00900216
40
Lattice="8.612144284826519 6.749942826900221e-10 6.661338147750946e-15 -2.8707147622452314 8.119607498918732 -1.1691412282743845e-09 -2.8707147612906505 -4.05980374878436 7.031786363601677" Properties=species:S:1:pos:R:3:spacegroup_kinds:I:1:forces:R:3 spacegroup="P 1" unit_cell=conventional occupancy="_JSON {\"0\": {\"In\": 1}, \"1\": {\"In\": 1}, \"2\": {\"In\": 1}, \"3\": {\"In\": 1}, \"4\": {\"In\": 1}, \"5\": {\"In\": 1}, \"6\": {\"In\": 1}, \"7\": {\"In\": 1}, \"8\": {\"In\": 1}, \"9\": {\"In\": 1}, \"10\": {\"In\": 1}, \"11\": {\"In\": 1}, \"12\": {\"In\": 1}, \"13\": {\"In\": 1}, \"14\": {\"In\": 1}, \"15\": {\"In\": 1}, \"16\": {\"O\": 1}, \"17\": {\"O\": 1}, \"18\": {\"O\": 1}, \"19\": {\"O\": 1}, \"20\": {\"O\": 1}, \"21\": {\"O\": 1}, \"22\": {\"O\": 1}, \"23\": {\"O\": 1}, \"24\": {\"O\": 1}, \"25\": {\"O\": 1}, \"26\": {\"O\": 1}, \"27\": {\"O\": 1}, \"28\": {\"O\": 1}, \"29\": {\"O\": 1}, \"30\": {\"O\": 1}, \"31\": {\"O\": 1}, \"32\": {\"O\": 1}, \"33\": {\"O\": 1}, \"34\": {\"O\": 1}, \"35\": {\"O\": 1}, \"36\": {\"O\": 1}, \"37\": {\"O\": 1}, \"38\": {\"O\": 1}, \"39\": {\"O\": 1}}" n_minim_iter=4 energy=-45148.75728755273 stress="-0.12144384011971371 1.844464558914127e-13 -7.711503144459651e-13 1.844464558914127e-13 -0.12144384011886476 -1.1277568207625715e-13 -7.711503144459651e-13 -1.1277568207625715e-13 -0.12144384012039947" free_energy=-45148.75728755273 pbc="T T T"
In      -4.10829113       2.90500051       5.51607106        0      -0.00184295       0.00130316      -0.00225714
In       6.97900588       1.15480324       1.51571530        1       0.00184295      -0.00130316       0.00225714
In       1.23757636      -0.87509864       5.03160848        2       0.00184295      -0.00130316       0.00225714
In      -1.43535738      -2.02990187       3.51589318        3       0.00000000      -0.00000000      -0.00000000
In      -1.23757636       3.91995145       3.27366189        4      -0.00184295       0.00130316       0.00225714
In       4.50385316      -2.76514821       5.27383977        5      -0.00184295      -0.00260632       0.00000000
In      -1.23757636       1.29465554       5.27383977        6      -0.00184295      -0.00260632      -0.00000000
In      -1.63313840       6.82495196       1.75794659        7       0.00184295       0.00260632       0.00000000
In       4.10829112       0.13985230       3.75812447        8       0.00184295      -0.00130316      -0.00225714
In      -1.43535738       4.05980375      -0.00000000        9      -0.00000000      -0.00000000       0.00000000
In       4.10829112       6.22955793       0.24223129       10       0.00184295      -0.00130316      -0.00225714
In      -1.23757636      -2.16975417       6.78955507       11      -0.00184295       0.00130316       0.00225714
In       4.10829112       2.76514821       1.75794659       12       0.00184295       0.00260632       0.00000000
In       1.63313840       4.93490239       2.00017788       13      -0.00184295       0.00130316      -0.00225714
In       4.30607214       0.00000000      -0.00000000       14      -0.00000000      -0.00000000      -0.00000000
In       1.43535738       2.02990188       3.51589318       15       0.00000000      -0.00000000       0.00000000
O        0.83235788       4.05554349       3.84681261       16      -0.00061060       0.00488647       0.00538255
O       -2.03835688       3.33356758       5.11206955       17      -0.00061060       0.00221819      -0.00692308
O       -0.41126601       2.18304060       0.07305438       18       0.00649480      -0.00280609       0.00177922
O       -0.83235789      -0.73049643       1.92709580       19       0.00061060       0.00710465      -0.00154053
O        3.82236995       4.83247815       1.85404142       20       0.00229486      -0.00607742      -0.00331975
O        1.91905957       2.84049398       1.59617637       21      -0.00229486      -0.00016372      -0.00692308
O        1.91905957       6.05178792       0.25786505       22      -0.00229486      -0.00591370       0.00360332
O       -2.19527908       5.74977074       3.58894756       23       0.00481054      -0.00518799       0.00177922
O        3.28198077       1.87676316       6.95873198       24      -0.00649480       0.00280609      -0.00177922
O        5.06599384      -1.68996699       3.44283880       25      -0.00481054       0.00518799      -0.00177922
O        6.15269553       3.18468912       1.66185176       26      -0.00649480       0.00013781       0.00331975
O        3.54615044       2.26313627       3.77375823       27       0.00481054       0.00413485       0.00360332
O        0.67543568       4.16650425       6.70086692       28       0.00481054       0.00105314      -0.00538255
O        2.19527908      -0.10670049       0.33091943       29      -0.00481054      -0.00105314       0.00538255
O       -3.28198077       0.87511463       5.36993460       30       0.00649480      -0.00013781      -0.00331975
O        4.90907164       0.72623617       1.91971681       31       0.00061060      -0.00221819       0.00692308
O        0.95165519       1.21930978       5.43560999       32       0.00229486       0.00016372       0.00692308
O        3.28198077      -1.00164852       5.44298898       33      -0.00649480      -0.00294390      -0.00154053
O        2.03835688       0.00426026       3.18497374       34       0.00061060      -0.00488647      -0.00538255
O        0.95165519      -1.99198417       6.77392131       35       0.00229486       0.00591370      -0.00360332
O       -0.67543568       1.79666749       3.25802812       36      -0.00481054      -0.00413485      -0.00360332
O       -0.95165519      -0.77267439       5.17774494       37      -0.00229486       0.00607742       0.00331975
O       -0.41126601       5.06145228       1.58879738       38       0.00649480       0.00294390       0.00154053
O        3.70307264       4.79030018       5.10469056       39      -0.00061060      -0.00710465       0.00154053
