40
Lattice="8.449612046651971 6.622568038013523e-10 6.157463995140585e-15 -2.816537349508373 7.966370635223451 -1.147078365843306e-09 -2.8165373485718046 -3.983185316949456 6.899079346830597" Properties=species:S:1:pos:R:3:spacegroup_kinds:I:1:forces:R:3 spacegroup="P 1" unit_cell=conventional occupancy="_JSON {\"0\": {\"In\": 1}, \"1\": {\"In\": 1}, \"2\": {\"In\": 1}, \"3\": {\"In\": 1}, \"4\": {\"In\": 1}, \"5\": {\"In\": 1}, \"6\": {\"In\": 1}, \"7\": {\"In\": 1}, \"8\": {\"In\": 1}, \"9\": {\"In\": 1}, \"10\": {\"In\": 1}, \"11\": {\"In\": 1}, \"12\": {\"In\": 1}, \"13\": {\"In\": 1}, \"14\": {\"In\": 1}, \"15\": {\"In\": 1}, \"16\": {\"O\": 1}, \"17\": {\"O\": 1}, \"18\": {\"O\": 1}, \"19\": {\"O\": 1}, \"20\": {\"O\": 1}, \"21\": {\"O\": 1}, \"22\": {\"O\": 1}, \"23\": {\"O\": 1}, \"24\": {\"O\": 1}, \"25\": {\"O\": 1}, \"26\": {\"O\": 1}, \"27\": {\"O\": 1}, \"28\": {\"O\": 1}, \"29\": {\"O\": 1}, \"30\": {\"O\": 1}, \"31\": {\"O\": 1}, \"32\": {\"O\": 1}, \"33\": {\"O\": 1}, \"34\": {\"O\": 1}, \"35\": {\"O\": 1}, \"36\": {\"O\": 1}, \"37\": {\"O\": 1}, \"38\": {\"O\": 1}, \"39\": {\"O\": 1}}" n_minim_iter=3 energy=-45146.80952754221 stress="-0.1650037075697663 -1.1455550908274449e-12 -1.2229183391951752e-13 -1.1455550908274449e-12 -0.165003707572398 -5.474761790733514e-13 -1.2229183391951752e-13 -5.474761790733514e-13 -0.1650037075703828" free_energy=-45146.80952754221 pbc="T T T"
In      -4.02997381       2.84962181       5.41292927        0       0.00130166      -0.00092041       0.00159420
In       6.84651115       1.13356351       1.48615008        1      -0.00130166       0.00092041      -0.00159420
In       1.21343646      -0.85802915       4.93568975        2      -0.00130166       0.00092041      -0.00159420
In      -1.40826868      -1.99159266       3.44953967        3      -0.00000000       0.00000000      -0.00000000
In      -1.21343646       3.84541814       3.21091991        4       0.00130166      -0.00092041      -0.00159420
In       4.41963824      -2.71185462       5.17430951        5       0.00130166       0.00184083      -0.00000000
In      -1.21343646       1.27133069       5.17430951        6       0.00130166       0.00184083       0.00000000
In      -1.60310089       6.69503994       1.72476983        7      -0.00130166      -0.00184083       0.00000000
In       4.02997381       0.13776718       3.68815943        8      -0.00130166       0.00092041       0.00159420
In      -1.40826868       3.98318532      -0.00000000        9      -0.00000000      -0.00000000       0.00000000
In       4.02997380       6.11254516       0.23861975       10      -0.00130166       0.00092041       0.00159420
In      -1.21343646      -2.12935984       6.66045959       11       0.00130166      -0.00092041      -0.00159420
In       4.02997381       2.71185463       1.72476983       12      -0.00130166      -0.00184083       0.00000000
In       1.60310089       4.84121447       1.96338959       13       0.00130166      -0.00092041       0.00159420
In       4.22480602       0.00000000      -0.00000000       14       0.00000000      -0.00000000      -0.00000000
In       1.40826867       1.99159266       3.44953967       15      -0.00000000      -0.00000000       0.00000000
O        0.81375005       3.97751480       3.77878316       16      -0.00314684       0.00830948       0.00048776
O       -2.00278729       3.27535748       5.01459858       17      -0.00314684      -0.00373233      -0.00744010
O       -0.40144269       2.14303585       0.07675782       18       0.00326643      -0.00826720       0.00041453
O       -0.81375006      -0.71349836       1.89430240       19       0.00314684       0.00457715      -0.00695234
O        3.75563241       4.74099983       1.81754457       20      -0.00246993      -0.00433783      -0.00736687
O        1.87744229       2.78805280       1.56505891       21       0.00246993       0.00421098      -0.00744010
O        1.87744229       5.93613235       0.25248566       22       0.00246993      -0.00854881       0.00007323
O       -2.15428781       5.63891649       3.52629750       23       0.00888320      -0.00032389       0.00041453
O        3.21798004       1.84014947       6.82232152       24      -0.00326643       0.00826720      -0.00041453
O        4.97082515      -1.65573117       3.37278184       25      -0.00888320       0.00032389      -0.00041453
O        6.03451738       3.12958481       1.63199510       26      -0.00326643      -0.00377461       0.00736687
O        3.47878689       2.22599763       3.70202534       27       0.00888320       0.00052094       0.00007323
O        0.66224954       4.08464184       6.56983585       28       0.00888320      -0.00019705      -0.00048776
O        2.15428780      -0.10145651       0.32924349       29      -0.00888320       0.00019705       0.00048776
O       -3.21798004       0.85360051       5.26708425       30       0.00326643       0.00377461      -0.00736687
O        4.81932464       0.70782784       1.88448076       31       0.00314684       0.00373233       0.00744010
O        0.93909506       1.19513252       5.33402044       32      -0.00246993      -0.00421098       0.00744010
O        3.21798004      -0.98654896       5.34384207       33      -0.00326643      -0.00449259      -0.00695234
O        2.00278729       0.00567053       3.12029618       34       0.00314684      -0.00830948      -0.00048776
O        0.93909506      -1.95294703       6.64659368       35      -0.00246993       0.00854881      -0.00007323
O       -0.66224954       1.75718769       3.19705400       36      -0.00888320      -0.00052094      -0.00007323
O       -0.93909506      -0.75781451       5.08153477       37       0.00246993       0.00433783       0.00736687
O       -0.40144269       4.96973428       1.55523727       38       0.00326643       0.00449259       0.00695234
O        3.63028740       4.69668368       5.00477694       39      -0.00314684      -0.00457715       0.00695234
