1
Lattice="3.4920886678293197 -0.12098841352426129 -2.1089757869014954e-10 0.12098841352426089 3.4920886678293193 -6.979312724495201e-10 -1.8065385405106646 -1.6855501266644766 2.470761164568528" Properties=species:S:1:pos:R:3:spacegroup_kinds:I:1:forces:R:3 spacegroup="P 1" unit_cell=conventional occupancy="_JSON {\"0\": {\"In\": 1}}" n_minim_iter=1 energy=-1969.4383101359304 stress="-0.10223973877198536 1.3543052921834994e-13 -8.453358263398905e-14 1.3543052921834994e-13 -0.10223973877200415 -7.888972588183048e-14 -8.453358263398905e-14 -7.888972588183048e-14 -0.10223973877130589" free_energy=-1969.4383101359304 pbc="T T T"
In       0.00000000       0.00000000       0.00000000        0      -0.00000000      -0.00000000      -0.00000000
