1
Lattice="3.8332774283751854 -0.13280938680911683 -2.3150298026299852e-10 0.1328093868091178 3.8332774283751845 -7.66121497354226e-10 -1.9830434074097942 -1.8502340202472967 2.7121628068320973" Properties=species:S:1:pos:R:3:spacegroup_kinds:I:1:forces:R:3 spacegroup="P 1" unit_cell=conventional occupancy="_JSON {\"0\": {\"In\": 1}}" n_minim_iter=1 energy=-1970.1109221542497 stress="0.01348132559900773 -4.54501674941885e-14 -7.735850638297054e-14 -4.54501674941885e-14 0.013481325599226166 -7.217653882744742e-14 -7.735850638297054e-14 -7.217653882744742e-14 0.013481325599169843" free_energy=-1970.1109221542497 pbc="T T T"
In       0.00000000       0.00000000       0.00000000        0       0.00000000      -0.00000000      -0.00000000
