1
Lattice="3.8124032914814068 -0.10338827871325337 -2.359110581200706e-10 0.16071525228331102 3.810417116374145 -7.634821714135243e-10 -1.9865592717024065 -1.8535144183017689 2.6764107596245768" Properties=species:S:1:pos:R:3:spacegroup_kinds:I:1:forces:R:3 spacegroup="P 1" unit_cell=conventional occupancy="_JSON {\"0\": {\"In\": 1}}" n_minim_iter=5 energy=-1970.1174943580806 stress="0.0015388701738155853 0.0020747341835433974 -5.801151634163908e-13 0.0020747341835433974 0.0012509960673009644 -3.328598407054225e-13 -5.801151634163908e-13 -3.328598407054225e-13 -0.0006847879683972383" free_energy=-1970.1174943580806 pbc="T T T"
In       0.00000000       0.00000000       0.00000000        0       0.00000000       0.00000000       0.00000000
