1
Lattice="4.039972822445333 -0.13997064478109006 -2.4398592746104523e-10 0.13997064478108945 4.039972822445334 -8.074317828110144e-10 -2.0899717334210215 -1.9500010882674974 2.8584062161900734" Properties=species:S:1:pos:R:3:spacegroup_kinds:I:1:forces:R:3 spacegroup="P 1" unit_cell=conventional occupancy="_JSON {\"0\": {\"In\": 1}}" n_minim_iter=1 energy=-1969.9393887765345 stress="0.026732093567249156 3.2410031979830125e-14 -1.2926224418075223e-17 3.2410031979830125e-14 0.026732093567174698 -5.4548179165055375e-18 -1.2926224418075223e-17 -5.4548179165055375e-18 0.02673209356721193" free_energy=-1969.9393887765345 pbc="T T T"
In       0.00000000       0.00000000       0.00000000        0      -0.00000000      -0.00000000       0.00000000
