1
Lattice="3.894522192418281 -0.13493129937866546 -2.352017330056326e-10 0.1349312993786658 3.8945221924182807 -7.783619185631056e-10 -2.0147267457132028 -1.8797954459755113 2.755495379090322" Properties=species:S:1:pos:R:3:spacegroup_kinds:I:1:forces:R:3 spacegroup="P 1" unit_cell=conventional occupancy="_JSON {\"0\": {\"In\": 1}}" n_minim_iter=1 energy=-1970.0935627770682 stress="0.021626624389246608 -1.560255997183454e-15 -4.7196096736408765e-15 -1.560255997183454e-15 0.021626624389101318 5.0578406008298375e-15 -4.7196096736408765e-15 5.0578406008298375e-15 0.021626624389111705" free_energy=-1970.0935627770682 pbc="T T T"
In       0.00000000       0.00000000       0.00000000        0      -0.00000000      -0.00000000       0.00000000
