1
Lattice="3.8945221924182802 -0.1349312993786663 -2.3520173300563223e-10 0.1349312993786662 3.89452219241828 -7.783619185631052e-10 -2.0147267457132028 -1.8797954459755106 2.755495379090322" Properties=species:S:1:pos:R:3:spacegroup_kinds:I:1:forces:R:3 spacegroup="P 1" unit_cell=conventional occupancy="_JSON {\"0\": {\"In\": 1}}" n_minim_iter=1 energy=-1970.0700631760692 stress="0.026138700346636113 -2.4580872503322644e-15 5.208158761144738e-18 -2.4580872503322644e-15 0.02613870034656526 -4.429365735274271e-18 5.208158761144738e-18 -4.429365735274271e-18 0.02613870034656513" free_energy=-1970.0700631760692 pbc="T T T"
In       0.00000000       0.00000000       0.00000000        0      -0.00000000       0.00000000       0.00000000
