1
Lattice="4.095321793789885 -0.14188828916820617 -2.4732861581589973e-10 0.14188828916820628 4.095321793789885 -8.184938667837569e-10 -2.118605041284223 -1.9767167517384796 2.897567332045112" Properties=species:S:1:pos:R:3:spacegroup_kinds:I:1:forces:R:3 spacegroup="P 1" unit_cell=conventional occupancy="_JSON {\"0\": {\"In\": 1}}" n_minim_iter=1 energy=-1969.9135458814442 stress="0.026123783307199003 -1.5934808368557166e-17 1.858147333074806e-18 -1.5934808368557166e-17 0.026123783307198997 -1.4650516531757383e-17 1.858147333074806e-18 -1.4650516531757383e-17 0.02612378330719905" free_energy=-1969.9135458814442 pbc="T T T"
In       0.00000000       0.00000000       0.00000000        0       0.00000000      -0.00000000       0.00000000
