1
Lattice="3.5292413357538113 -0.12227562091730207 -2.13141338357347e-10 0.12227562091730235 3.5292413357538117 -7.053566305277139e-10 -1.8257584781676632 -1.7034828569250102 2.4970478307444495" Properties=species:S:1:pos:R:3:spacegroup_kinds:I:1:forces:R:3 spacegroup="P 1" unit_cell=conventional occupancy="_JSON {\"0\": {\"In\": 1}}" n_minim_iter=1 energy=-1969.6589171129795 stress="-0.11825557022014782 7.243539116342577e-14 1.1016114012113468e-13 7.243539116342577e-14 -0.11825557022039226 -1.1806796672504314e-13 1.1016114012113468e-13 -1.1806796672504314e-13 -0.11825557022023371" free_energy=-1969.6589171129795 pbc="T T T"
In       0.00000000       0.00000000       0.00000000        0       0.00000000      -0.00000000      -0.00000000
