1
Lattice="3.454128175804543 -0.11967321790824194 -2.0860503213265094e-10 0.11967321790824198 3.4541281758045423 -6.903444620842122e-10 -1.7869006966920724 -1.667227478465404 2.443902937758087" Properties=species:S:1:pos:R:3:spacegroup_kinds:I:1:forces:R:3 spacegroup="P 1" unit_cell=conventional occupancy="_JSON {\"0\": {\"In\": 1}}" n_minim_iter=1 energy=-1969.3489377105834 stress="-0.08026827172456662 -1.6813385216305162e-13 -2.331310199027164e-13 -1.6813385216305162e-13 -0.08026827172451034 2.03657861131905e-13 -2.331310199027164e-13 2.03657861131905e-13 -0.08026827172441665" free_energy=-1969.3489377105834 pbc="T T T"
In       0.00000000       0.00000000       0.00000000        0      -0.00000000      -0.00000000       0.00000000
