1
Lattice="3.670558905073797 -0.1271717705118532 -2.2167592497037468e-10 0.1271717705118534 3.6705589050737975 -7.336004583215478e-10 -1.8988653376182092 -1.771693566767977 2.597034399059189" Properties=species:S:1:pos:R:3:spacegroup_kinds:I:1:forces:R:3 spacegroup="P 1" unit_cell=conventional occupancy="_JSON {\"0\": {\"In\": 1}}" n_minim_iter=1 energy=-1970.0374705427107 stress="-0.0605582740717294 2.0278051375530898e-14 3.4521783841846965e-14 2.0278051375530898e-14 -0.060558274071826915 3.2211808068053666e-14 3.4521783841846965e-14 3.2211808068053666e-14 -0.06055827407180185" free_energy=-1970.0374705427107 pbc="T T T"
In       0.00000000       0.00000000       0.00000000        0       0.00000000      -0.00000000      -0.00000000
