1
Lattice="4.011720339916667 -0.1389917970585914 -2.4227967634110303e-10 0.13899179705859144 4.011720339916667 -8.017852219702533e-10 -2.0753560682967827 -1.9363642708683617 2.8384167075394036" Properties=species:S:1:pos:R:3:spacegroup_kinds:I:1:forces:R:3 spacegroup="P 1" unit_cell=conventional occupancy="_JSON {\"0\": {\"In\": 1}}" n_minim_iter=1 energy=-1969.9651007367515 stress="0.025889381222097333 1.759910648427987e-17 -3.2238134359236356e-14 1.759910648427987e-17 0.02588938122209735 1.1192377109689283e-15 -3.2238134359236356e-14 1.1192377109689283e-15 0.025889381222120183" free_energy=-1969.9651007367515 pbc="T T T"
In       0.00000000       0.00000000       0.00000000        0       0.00000000       0.00000000      -0.00000000
