1
Lattice="4.011720339916666 -0.13899179705859088 -2.42279676341103e-10 0.13899179705859085 4.011720339916665 -8.017852219702529e-10 -2.075356068296782 -1.9363642708683613 2.8384167075394027" Properties=species:S:1:pos:R:3:spacegroup_kinds:I:1:forces:R:3 spacegroup="P 1" unit_cell=conventional occupancy="_JSON {\"0\": {\"In\": 1}}" n_minim_iter=1 energy=-1969.989972828999 stress="0.02623264697422161 3.112842557789364e-15 -6.365648056041387e-14 3.112842557789364e-15 0.02623264697431143 2.1994743508143394e-15 -6.365648056041387e-14 2.1994743508143394e-15 0.026232646974266513" free_energy=-1969.989972828999 pbc="T T T"
In       0.00000000       0.00000000       0.00000000        0      -0.00000000      -0.00000000       0.00000000
