40
Lattice="8.837986696186604 6.926951143431963e-10 3.729176011525946e-16 -2.9459955660486137 8.332533766315821 -1.1997848287978327e-09 -2.945995565068996 -4.166266882465214 7.216185920320983" Properties=species:S:1:pos:R:3:spacegroup_kinds:I:1:forces:R:3 spacegroup="P 1" unit_cell=conventional occupancy="_JSON {\"0\": {\"In\": 1}, \"1\": {\"In\": 1}, \"2\": {\"In\": 1}, \"3\": {\"In\": 1}, \"4\": {\"In\": 1}, \"5\": {\"In\": 1}, \"6\": {\"In\": 1}, \"7\": {\"In\": 1}, \"8\": {\"In\": 1}, \"9\": {\"In\": 1}, \"10\": {\"In\": 1}, \"11\": {\"In\": 1}, \"12\": {\"In\": 1}, \"13\": {\"In\": 1}, \"14\": {\"In\": 1}, \"15\": {\"In\": 1}, \"16\": {\"O\": 1}, \"17\": {\"O\": 1}, \"18\": {\"O\": 1}, \"19\": {\"O\": 1}, \"20\": {\"O\": 1}, \"21\": {\"O\": 1}, \"22\": {\"O\": 1}, \"23\": {\"O\": 1}, \"24\": {\"O\": 1}, \"25\": {\"O\": 1}, \"26\": {\"O\": 1}, \"27\": {\"O\": 1}, \"28\": {\"O\": 1}, \"29\": {\"O\": 1}, \"30\": {\"O\": 1}, \"31\": {\"O\": 1}, \"32\": {\"O\": 1}, \"33\": {\"O\": 1}, \"34\": {\"O\": 1}, \"35\": {\"O\": 1}, \"36\": {\"O\": 1}, \"37\": {\"O\": 1}, \"38\": {\"O\": 1}, \"39\": {\"O\": 1}}" n_minim_iter=1 energy=-45151.33096502168 stress="-0.029520614249924592 -7.455364235284289e-12 -8.8740430275016e-13 -7.455364235284289e-12 -0.029520614249838706 1.6951846926465479e-12 -8.8740430275016e-13 1.6951846926465479e-12 -0.029520614253220542" free_energy=-45151.33096502168 pbc="T T T"
In      -4.21922856       2.98344513       5.65680034        0      -0.08689268       0.06144240      -0.10642136
In       7.16522412       1.18282176       1.55938557        1       0.08689268      -0.06144240       0.10642136
In       1.27323299      -0.90031168       5.16747853        2       0.08689268      -0.06144240       0.10642136
In      -1.47299778      -2.08313344       3.60809296        3      -0.00000000       0.00000000      -0.00000000
In      -1.27323299       4.02501185       3.36343205        4      -0.08689268       0.06144240       0.10642136
In       4.61875814      -2.84219008       5.41213944        5      -0.08689268      -0.12288480       0.00000000
In      -1.27323299       1.32407680       5.41213944        6      -0.08689268      -0.12288480       0.00000000
In      -1.67276258       7.00845697       1.80404648        7       0.08689268       0.12288480      -0.00000000
In       4.21922856       0.14125504       3.85275386        8       0.08689268      -0.06144240      -0.10642136
In      -1.47299778       4.16626688      -0.00000000        9      -0.00000000      -0.00000000       0.00000000
In       4.21922856       6.39065536       0.24466090       10       0.08689268      -0.06144240      -0.10642136
In      -1.27323299      -2.22438848       6.97152502       11      -0.08689268       0.06144240       0.10642136
In       4.21922856       2.84219009       1.80404648       12       0.08689268       0.12288480       0.00000000
In       1.67276257       5.06657857       2.04870738       13      -0.08689268       0.06144240      -0.10642136
In       4.41899335       0.00000000      -0.00000000       14       0.00000000       0.00000000      -0.00000000
In       1.47299778       2.08313344       3.60809296       15      -0.00000000      -0.00000000      -0.00000000
O        0.87025176       4.16706610       3.92516694       16       0.02706017       0.01609366      -0.05311844
O       -2.07574380       3.39889468       5.25291031       17       0.02706017      -0.05404874       0.01262170
O       -0.43264803       2.23705052       0.04909751       18      -0.02676434      -0.01598906      -0.05329960
O       -0.87025176      -0.76657299       1.96189133       19      -0.02706017      -0.03795509      -0.04049673
O        3.89642323       4.96118634       1.91279381       20      -0.05997770       0.00718255       0.01280286
O        1.99556789       2.90719858       1.64481735       21       0.05997770      -0.00749633       0.01262170
O        1.99556789       6.22025465       0.26797646       22       0.05997770       0.01467888       0.00018116
O       -2.25332746       5.91162130       3.65719047       23       0.00615319       0.03056335      -0.05329960
O        3.37864359       1.92921637       7.16708840       24       0.02676434       0.01598906       0.05329960
O        5.19932303      -1.74535441       3.55899544       25      -0.00615319      -0.03056335       0.05329960
O        6.32463916       3.24417840       1.69529914       26       0.02676434      -0.05415334      -0.01280286
O        3.63866367       2.29454265       3.87606942       27       0.00615319      -0.06144048       0.00018116
O        0.69266810       4.29263671       6.89911194       28       0.00615319       0.03087713       0.05311844
O        2.25332746      -0.12636982       0.31707398       29      -0.00615319      -0.03087713      -0.05311844
O       -3.37864360       0.92208849       5.52088678       30      -0.02676434       0.05415334       0.01280286
O        5.02173937       0.76737221       1.96327560       31      -0.02706017       0.05404874      -0.01262170
O        0.95042767       1.25906831       5.57136856       32      -0.05997770       0.00749633      -0.01262170
O        3.37864359      -1.00712788       5.56998429       33       0.02676434       0.03816427      -0.04049673
O        2.07574380      -0.00079921       3.29101898       34      -0.02706017      -0.01609366       0.05311844
O        0.95042767      -2.05398777       6.94820945       35      -0.05997770      -0.01467888      -0.00018116
O       -0.69266811       1.87172423       3.34011649       36      -0.00615319       0.06144048      -0.00018116
O       -0.95042767      -0.79491946       5.30339210       37       0.05997770      -0.00718255      -0.01280286
O       -0.43264803       5.17339476       1.64620162       38      -0.02676434      -0.03816427       0.04049673
O        3.81624733       4.93283988       5.25429458       39       0.02706017       0.03795509       0.04049673
40
Lattice="8.837986696186602 6.926951143431962e-10 3.729176011525976e-16 -2.9459955660486132 8.33253376631582 -1.1997848287978325e-09 -2.9459955650689955 -4.166266882465213 7.2161859203209815" Properties=species:S:1:pos:R:3:spacegroup_kinds:I:1:forces:R:3 spacegroup="P 1" unit_cell=conventional occupancy="_JSON {\"0\": {\"In\": 1}, \"1\": {\"In\": 1}, \"2\": {\"In\": 1}, \"3\": {\"In\": 1}, \"4\": {\"In\": 1}, \"5\": {\"In\": 1}, \"6\": {\"In\": 1}, \"7\": {\"In\": 1}, \"8\": {\"In\": 1}, \"9\": {\"In\": 1}, \"10\": {\"In\": 1}, \"11\": {\"In\": 1}, \"12\": {\"In\": 1}, \"13\": {\"In\": 1}, \"14\": {\"In\": 1}, \"15\": {\"In\": 1}, \"16\": {\"O\": 1}, \"17\": {\"O\": 1}, \"18\": {\"O\": 1}, \"19\": {\"O\": 1}, \"20\": {\"O\": 1}, \"21\": {\"O\": 1}, \"22\": {\"O\": 1}, \"23\": {\"O\": 1}, \"24\": {\"O\": 1}, \"25\": {\"O\": 1}, \"26\": {\"O\": 1}, \"27\": {\"O\": 1}, \"28\": {\"O\": 1}, \"29\": {\"O\": 1}, \"30\": {\"O\": 1}, \"31\": {\"O\": 1}, \"32\": {\"O\": 1}, \"33\": {\"O\": 1}, \"34\": {\"O\": 1}, \"35\": {\"O\": 1}, \"36\": {\"O\": 1}, \"37\": {\"O\": 1}, \"38\": {\"O\": 1}, \"39\": {\"O\": 1}}" n_minim_iter=2 energy=-45151.343461684635 stress="-0.027390930091782992 2.362264418056169e-13 6.675022583971732e-13 2.362264418056169e-13 -0.027390930084133673 -2.5273037138326684e-12 6.675022583971732e-13 -2.5273037138326684e-12 -0.027390930088450376" free_energy=-45151.343461684635 pbc="T T T"
In      -4.22522582       2.98768583       5.64945522        0       0.01372028      -0.00970170       0.01680384
In       7.17122139       1.17858105       1.56673069        1      -0.01372028       0.00970170      -0.01680384
In       1.27923026      -0.90455239       5.17482365        2      -0.01372028       0.00970170      -0.01680384
In      -1.47299778      -2.08313344       3.60809296        3       0.00000000       0.00000000      -0.00000000
In      -1.27923026       4.02925255       3.37077717        4       0.01372028      -0.00970170      -0.01680384
In       4.61276087      -2.85067150       5.41213944        5       0.01372028       0.01940341       0.00000000
In      -1.27923026       1.31559539       5.41213944        6       0.01372028       0.01940341      -0.00000000
In      -1.66676531       7.01693838       1.80404648        7      -0.01372028      -0.01940341      -0.00000000
In       4.22522582       0.13701433       3.84540874        8      -0.01372028       0.00970170       0.01680384
In      -1.47299778       4.16626688      -0.00000000        9       0.00000000       0.00000000      -0.00000000
In       4.22522582       6.38641466       0.23731578       10      -0.01372028       0.00970170       0.01680384
In      -1.27923026      -2.22014777       6.97887013       11       0.01372028      -0.00970170      -0.01680384
In       4.22522582       2.85067150       1.80404648       12      -0.01372028      -0.01940341       0.00000000
In       1.66676531       5.07081927       2.04136226       13       0.01372028      -0.00970170       0.01680384
In       4.41899335       0.00000000      -0.00000000       14       0.00000000      -0.00000000      -0.00000000
In       1.47299778       2.08313344       3.60809296       15       0.00000000       0.00000000       0.00000000
O        0.87211943       4.16817687       3.92150074       16      -0.01477272      -0.00197346      -0.04024087
O       -2.07387613       3.39516428       5.25378145       17      -0.01477272      -0.03386288       0.02182950
O       -0.43449529       2.23594696       0.04541882       18      -0.03871107      -0.01693591      -0.00748886
O       -0.87211944      -0.76919262       1.95909628       19       0.01477272      -0.03583634      -0.01841136
O        3.89228362       4.96168208       1.91367746       20      -0.02700199       0.03151265      -0.01092250
O        1.99970751       2.90668119       1.64568849       21       0.02700199       0.02521548       0.02182950
O        1.99970751       6.22126778       0.26798896       22       0.02700199       0.00629716      -0.03275200
O       -2.25290278       5.91373076       3.65351178       23       0.00306364       0.04214245      -0.00748886
O        3.38049085       1.93031992       7.17076710       24       0.03871107       0.01693591       0.00748886
O        5.19889834      -1.74746387       3.56267414       25      -0.00306364      -0.04214245       0.00748886
O        6.32648641       3.24044078       1.69441550       26       0.03871107      -0.01495350       0.01092250
O        3.63908836       2.29030208       3.87608192       27       0.00306364      -0.02755677      -0.03275200
O        0.69309279       4.29476782       6.90277813       28       0.00306364      -0.01458568       0.04024087
O        2.25290277      -0.12850093       0.31340778       29      -0.00306364       0.01458568      -0.04024087
O       -3.38049085       0.92582611       5.52177042       30      -0.03871107       0.01495350      -0.01092250
O        5.01987169       0.77110261       1.96240446       31       0.01477272       0.03386288      -0.02182950
O        0.94628805       1.25958570       5.57049742       32      -0.02700199      -0.02521548      -0.02182950
O        3.38049085      -1.00449381       5.56718924       33       0.03871107      -0.00198241      -0.01841136
O        2.07387613      -0.00190998       3.29468517       34       0.01477272       0.00197346       0.04024087
O        0.94628805      -2.05500089       6.94819695       35      -0.02700199      -0.00629716       0.03275200
O       -0.69309279       1.87596481       3.34010399       36      -0.00306364       0.02755677       0.03275200
O       -0.94628806      -0.79541519       5.30250846       37       0.02700199      -0.03151265       0.01092250
O       -0.43449529       5.17076070       1.64899668       38      -0.03871107       0.00198241       0.01841136
O        3.81811500       4.93545951       5.25708964       39      -0.01477272       0.03583634       0.01841136
40
Lattice="8.837986696186602 6.926951143431963e-10 3.7291760115259795e-16 -2.9459955660486137 8.33253376631582 -1.1997848287978327e-09 -2.945995565068996 -4.166266882465213 7.216185920320983" Properties=species:S:1:pos:R:3:spacegroup_kinds:I:1:forces:R:3 spacegroup="P 1" unit_cell=conventional occupancy="_JSON {\"0\": {\"In\": 1}, \"1\": {\"In\": 1}, \"2\": {\"In\": 1}, \"3\": {\"In\": 1}, \"4\": {\"In\": 1}, \"5\": {\"In\": 1}, \"6\": {\"In\": 1}, \"7\": {\"In\": 1}, \"8\": {\"In\": 1}, \"9\": {\"In\": 1}, \"10\": {\"In\": 1}, \"11\": {\"In\": 1}, \"12\": {\"In\": 1}, \"13\": {\"In\": 1}, \"14\": {\"In\": 1}, \"15\": {\"In\": 1}, \"16\": {\"O\": 1}, \"17\": {\"O\": 1}, \"18\": {\"O\": 1}, \"19\": {\"O\": 1}, \"20\": {\"O\": 1}, \"21\": {\"O\": 1}, \"22\": {\"O\": 1}, \"23\": {\"O\": 1}, \"24\": {\"O\": 1}, \"25\": {\"O\": 1}, \"26\": {\"O\": 1}, \"27\": {\"O\": 1}, \"28\": {\"O\": 1}, \"29\": {\"O\": 1}, \"30\": {\"O\": 1}, \"31\": {\"O\": 1}, \"32\": {\"O\": 1}, \"33\": {\"O\": 1}, \"34\": {\"O\": 1}, \"35\": {\"O\": 1}, \"36\": {\"O\": 1}, \"37\": {\"O\": 1}, \"38\": {\"O\": 1}, \"39\": {\"O\": 1}}" n_minim_iter=3 energy=-45151.34484839958 stress="-0.027123276618980847 2.1318741021544095e-12 -3.1274097148660642e-12 2.1318741021544095e-12 -0.027123276623563692 -2.3149229655743183e-13 -3.1274097148660642e-12 -2.3149229655743183e-13 -0.027123276623838993" free_energy=-45151.34484839958 pbc="T T T"
In      -4.22503935       2.98755398       5.64968360        0      -0.00318712       0.00225364      -0.00390341
In       7.17103491       1.17871291       1.56650231        1       0.00318712      -0.00225364       0.00390341
In       1.27904378      -0.90442053       5.17459527        2       0.00318712      -0.00225364       0.00390341
In      -1.47299778      -2.08313344       3.60809296        3      -0.00000000      -0.00000000       0.00000000
In      -1.27904378       4.02912070       3.37054879        4      -0.00318712       0.00225364       0.00390341
In       4.61294735      -2.85040778       5.41213944        5      -0.00318712      -0.00450727      -0.00000000
In      -1.27904378       1.31585910       5.41213944        6      -0.00318712      -0.00450727      -0.00000000
In      -1.66695179       7.01667467       1.80404648        7       0.00318712       0.00450727      -0.00000000
In       4.22503935       0.13714619       3.84563712        8       0.00318712      -0.00225364      -0.00390341
In      -1.47299778       4.16626688      -0.00000000        9      -0.00000000      -0.00000000       0.00000000
In       4.22503935       6.38654652       0.23754416       10       0.00318712      -0.00225364      -0.00390341
In      -1.27904378      -2.22027963       6.97864175       11      -0.00318712       0.00225364       0.00390341
In       4.22503935       2.85040779       1.80404648       12       0.00318712       0.00450727      -0.00000000
In       1.66695178       5.07068742       2.04159064       13      -0.00318712       0.00225364      -0.00390341
In       4.41899335       0.00000000      -0.00000000       14      -0.00000000      -0.00000000       0.00000000
In       1.47299778       2.08313344       3.60809296       15       0.00000000       0.00000000       0.00000000
O        0.87148673       4.16817340       3.91895347       16      -0.00656839       0.00388562       0.00137338
O       -2.07450883       3.39296001       5.25505809       17      -0.00656839      -0.00075343      -0.00405174
O       -0.43678766       2.23491626       0.04466278       18       0.00076360      -0.00593792       0.00492808
O       -0.87148674      -0.77140036       1.95782565       19       0.00656839       0.00313219      -0.00267835
O        3.89041632       4.96345331       1.91316286       20       0.00147913      -0.00028697      -0.00760643
O        2.00157481       2.90801246       1.64696513       21      -0.00147913       0.00644388      -0.00405174
O        2.00157481       6.22170774       0.26619773       22      -0.00147913      -0.00673085      -0.00355470
O       -2.25269515       5.91623559       3.65275574       23       0.00585286       0.00125938       0.00492808
O        3.38278322       1.93135062       7.17152313       24      -0.00076360       0.00593792      -0.00492808
O        5.19869071      -1.74996870       3.56343018       25      -0.00585286      -0.00125938      -0.00492808
O        6.32877879       3.23927068       1.69493009       26      -0.00076360       0.00129888       0.00760643
O        3.63929599       2.28839492       3.87429069       27       0.00585286       0.00363815      -0.00355470
O        0.69330042       4.29417015       6.90532540       28       0.00585286      -0.00489753      -0.00137338
O        2.25269514      -0.12790326       0.31086051       29      -0.00585286       0.00489753       0.00137338
O       -3.38278322       0.92699621       5.52125582       30       0.00076360      -0.00129888      -0.00760643
O        5.02050439       0.77330688       1.96112782       31       0.00656839       0.00075343       0.00405174
O        0.94442075       1.25825443       5.56922078       32       0.00147913      -0.00644388       0.00405174
O        3.38278322      -1.00435441       5.56591861       33      -0.00076360      -0.00723680      -0.00267835
O        2.07450883      -0.00190651       3.29723244       34       0.00656839      -0.00388562      -0.00137338
O        0.94442075      -2.05544086       6.94998818       35       0.00147913       0.00673085       0.00355470
O       -0.69330042       1.87787197       3.34189522       36      -0.00585286      -0.00363815       0.00355470
O       -0.94442075      -0.79718643       5.30302305       37      -0.00147913       0.00028697       0.00760643
O       -0.43678766       5.17062130       1.65026731       38       0.00076360       0.00723680       0.00267835
O        3.81748230       4.93766725       5.25836027       39      -0.00656839      -0.00313219       0.00267835
