40
Lattice="8.684251303249157 6.80645822858676e-10 7.45811466118044e-15 -2.8947504350581035 8.18759064784724 -1.178921129593232e-09 -2.894750434095531 -4.09379532324297 7.090661497609541" Properties=species:S:1:pos:R:3:spacegroup_kinds:I:1:forces:R:3 spacegroup="P 1" unit_cell=conventional occupancy="_JSON {\"0\": {\"In\": 1}, \"1\": {\"In\": 1}, \"2\": {\"In\": 1}, \"3\": {\"In\": 1}, \"4\": {\"In\": 1}, \"5\": {\"In\": 1}, \"6\": {\"In\": 1}, \"7\": {\"In\": 1}, \"8\": {\"In\": 1}, \"9\": {\"In\": 1}, \"10\": {\"In\": 1}, \"11\": {\"In\": 1}, \"12\": {\"In\": 1}, \"13\": {\"In\": 1}, \"14\": {\"In\": 1}, \"15\": {\"In\": 1}, \"16\": {\"O\": 1}, \"17\": {\"O\": 1}, \"18\": {\"O\": 1}, \"19\": {\"O\": 1}, \"20\": {\"O\": 1}, \"21\": {\"O\": 1}, \"22\": {\"O\": 1}, \"23\": {\"O\": 1}, \"24\": {\"O\": 1}, \"25\": {\"O\": 1}, \"26\": {\"O\": 1}, \"27\": {\"O\": 1}, \"28\": {\"O\": 1}, \"29\": {\"O\": 1}, \"30\": {\"O\": 1}, \"31\": {\"O\": 1}, \"32\": {\"O\": 1}, \"33\": {\"O\": 1}, \"34\": {\"O\": 1}, \"35\": {\"O\": 1}, \"36\": {\"O\": 1}, \"37\": {\"O\": 1}, \"38\": {\"O\": 1}, \"39\": {\"O\": 1}}" n_minim_iter=1 energy=-45149.924105241604 stress="-0.07234536374851955 1.2585887491350967e-12 -2.1049621923179527e-12 1.2585887491350967e-12 -0.07234536374293768 -7.167172190120926e-13 -2.1049621923179527e-12 -7.167172190120926e-13 -0.07234536374958654" free_energy=-45149.924105241604 pbc="T T T"
In      -4.15307208       2.93666543       5.54953852        0       0.02500463      -0.01768094       0.03062429
In       7.04782251       1.15712990       1.54112297        1      -0.02500463       0.01768094      -0.03062429
In       1.25832164      -0.88976776       5.08645372        2      -0.02500463       0.01768094      -0.03062429
In      -1.44737522      -2.04689766       3.54533075        3      -0.00000000       0.00000000       0.00000000
In      -1.25832164       3.96011426       3.31378835        4       0.02500463      -0.01768094      -0.03062429
In       4.53117923      -2.80298436       5.31799612        5       0.02500463       0.03536189       0.00000000
In      -1.25832164       1.29081096       5.31799612        6       0.02500463       0.03536189      -0.00000000
In      -1.63642880       6.89677969       1.77266537        7      -0.02500463      -0.03536189       0.00000000
In       4.15307207       0.13368107       3.77687314        8      -0.02500463       0.01768094       0.03062429
In      -1.44737522       4.09379533      -0.00000000        9      -0.00000000       0.00000000       0.00000000
In       4.15307207       6.27437405       0.23154239       10      -0.02500463       0.01768094       0.03062429
In      -1.25832164      -2.18057873       6.85911910       11       0.02500463      -0.01768094      -0.03062429
In       4.15307207       2.80298436       1.77266537       12      -0.02500463      -0.03536189       0.00000000
In       1.63642879       4.98356309       2.00420777       13       0.02500463      -0.01768094       0.03062429
In       4.34212565       0.00000000      -0.00000000       14      -0.00000000       0.00000000       0.00000000
In       1.44737522       2.04689766       3.54533075       15      -0.00000000       0.00000000      -0.00000000
O        0.86204236       4.10015890       3.84721318       16       0.05280688       0.07340939       0.04092967
O       -2.03270807       3.32860257       5.16154388       17       0.05280688      -0.00125856      -0.08403923
O       -0.42808356       2.19396169       0.03613802       18       0.08562675      -0.02446571      -0.04384326
O       -0.86204237      -0.75882918       1.91809557       19      -0.05280688       0.07215083      -0.04310956
O        3.81580595       4.87348881       1.88195754       20      -0.01878887      -0.09746375       0.00073371
O        1.97369492       2.85381902       1.61621313       21       0.01878887      -0.04936728      -0.08403923
O        1.97369492       6.11346511       0.26574441       22       0.01878887      -0.04809647       0.08477293
O       -2.21118144       5.81297347       3.58146877       23       0.05160874      -0.07257443      -0.04384326
O        3.32283399       1.89983364       7.05452347       24      -0.08562675       0.02446571       0.04384326
O        5.10593187      -1.71917815       3.50919272       25      -0.05160874       0.07257443       0.04384326
O        6.21758443       3.17517496       1.66337320       26      -0.08562675      -0.05020223      -0.00073371
O        3.57831943       2.24205387       3.81107516       27       0.05160874      -0.00168216       0.08477293
O        0.68356899       4.22635864       6.78877906       28       0.05160874       0.07425660      -0.04092967
O        2.21118144      -0.13256331       0.30188244       29      -0.05160874      -0.07425660       0.04092967
O       -3.32283399       0.91862037       5.42728829       30       0.08562675       0.05020223       0.00073371
O        4.92745850       0.76519276       1.92911761       31      -0.05280688       0.00125856       0.08403923
O        0.92105551       1.23997631       5.47444836       32      -0.01878887       0.04936728       0.08403923
O        3.32283399      -0.98121326       5.46342632       33      -0.08562675       0.02573653      -0.04310956
O        2.03270807      -0.00636358       3.24344831       34      -0.05280688      -0.07340939      -0.04092967
O        0.92105551      -2.01966978       6.82491708       35      -0.01878887       0.04809647      -0.08477293
O       -0.68356900       1.85174146       3.27958633       36      -0.05160874       0.00168216      -0.08477294
O       -0.92105552      -0.77969348       5.20870395       37       0.01878887       0.09746375      -0.00073371
O       -0.42808356       5.07500859       1.62723517       38       0.08562675      -0.02573653       0.04310956
O        3.75679280       4.85262451       5.17256592       39       0.05280688      -0.07215083       0.04310956
40
Lattice="8.684251303249157 6.806458228586759e-10 7.458114661180444e-15 -2.894750435058103 8.18759064784724 -1.178921129593232e-09 -2.8947504340955303 -4.09379532324297 7.090661497609542" Properties=species:S:1:pos:R:3:spacegroup_kinds:I:1:forces:R:3 spacegroup="P 1" unit_cell=conventional occupancy="_JSON {\"0\": {\"In\": 1}, \"1\": {\"In\": 1}, \"2\": {\"In\": 1}, \"3\": {\"In\": 1}, \"4\": {\"In\": 1}, \"5\": {\"In\": 1}, \"6\": {\"In\": 1}, \"7\": {\"In\": 1}, \"8\": {\"In\": 1}, \"9\": {\"In\": 1}, \"10\": {\"In\": 1}, \"11\": {\"In\": 1}, \"12\": {\"In\": 1}, \"13\": {\"In\": 1}, \"14\": {\"In\": 1}, \"15\": {\"In\": 1}, \"16\": {\"O\": 1}, \"17\": {\"O\": 1}, \"18\": {\"O\": 1}, \"19\": {\"O\": 1}, \"20\": {\"O\": 1}, \"21\": {\"O\": 1}, \"22\": {\"O\": 1}, \"23\": {\"O\": 1}, \"24\": {\"O\": 1}, \"25\": {\"O\": 1}, \"26\": {\"O\": 1}, \"27\": {\"O\": 1}, \"28\": {\"O\": 1}, \"29\": {\"O\": 1}, \"30\": {\"O\": 1}, \"31\": {\"O\": 1}, \"32\": {\"O\": 1}, \"33\": {\"O\": 1}, \"34\": {\"O\": 1}, \"35\": {\"O\": 1}, \"36\": {\"O\": 1}, \"37\": {\"O\": 1}, \"38\": {\"O\": 1}, \"39\": {\"O\": 1}}" n_minim_iter=2 energy=-45149.935835153774 stress="-0.07126443589647408 -1.2935852368649422e-12 -1.1709559354533675e-12 -1.2935852368649422e-12 -0.07126443589902623 -2.6616149731850624e-13 -1.1709559354533675e-12 -2.6616149731850624e-13 -0.07126443589646586" free_energy=-45149.935835153774 pbc="T T T"
In      -4.15128603       2.93540250       5.55172597        0       0.05741881      -0.04060123       0.07032339
In       7.04603646       1.15839282       1.53893552        1      -0.05741881       0.04060123      -0.07032339
In       1.25653559      -0.88850484       5.08426627        2      -0.05741881       0.04060123      -0.07032339
In      -1.44737522      -2.04689766       3.54533075        3       0.00000000      -0.00000000       0.00000000
In      -1.25653560       3.95885134       3.31160090        4       0.05741881      -0.04060123      -0.07032339
In       4.53296527      -2.80045851       5.31799612        5       0.05741881       0.08120246       0.00000000
In      -1.25653560       1.29333681       5.31799612        6       0.05741881       0.08120246      -0.00000000
In      -1.63821484       6.89425384       1.77266537        7      -0.05741881      -0.08120246      -0.00000000
In       4.15128603       0.13494399       3.77906059        8      -0.05741881       0.04060123       0.07032339
In      -1.44737522       4.09379533      -0.00000000        9       0.00000000       0.00000000      -0.00000000
In       4.15128603       6.27563698       0.23372984       10      -0.05741881       0.04060123       0.07032339
In      -1.25653560      -2.18184165       6.85693165       11       0.05741881      -0.04060123      -0.07032339
In       4.15128603       2.80045851       1.77266537       12      -0.05741881      -0.08120246      -0.00000000
In       1.63821484       4.98230017       2.00639522       13       0.05741881      -0.04060123       0.07032339
In       4.34212565       0.00000000      -0.00000000       14       0.00000000       0.00000000      -0.00000000
In       1.44737522       2.04689766       3.54533075       15       0.00000000       0.00000000       0.00000000
O        0.86581428       4.10540243       3.85013673       16       0.03003840      -0.00326806      -0.01159937
O       -2.02893615       3.32851267       5.15554108       17       0.03003840      -0.00841132       0.00862991
O       -0.42196736       2.19221414       0.03300636       18      -0.00099863       0.01353517      -0.02938253
O       -0.86581429      -0.75367555       1.91501632       19      -0.03003840      -0.01167938      -0.00296946
O        3.81446389       4.86652711       1.88200995       20      -0.01794307      -0.00528463       0.02641307
O        1.97503698       2.85029279       1.61021033       21       0.01794307      -0.02551670       0.00862991
O        1.97503698       6.11002965       0.27179962       22       0.01794307       0.02023207       0.01778315
O       -2.20749510       5.80778959       3.57833711       23      -0.01309396      -0.00357021      -0.02938253
O        3.31671780       1.90158119       7.05765513       24       0.00099863      -0.01353517       0.02938253
O        5.10224553      -1.71399426       3.51232438       25       0.01309396       0.00357021       0.02938253
O        6.21146823       3.17158908       1.66332079       26       0.00099863      -0.01867843      -0.02641307
O        3.58200577       2.24193372       3.81713037       27      -0.01309396      -0.02366091       0.01778315
O        0.68725533       4.23166268       6.78585551       28      -0.01309396       0.02723112       0.01159937
O        2.20749510      -0.13786735       0.30480598       29       0.01309396      -0.02723112      -0.01159937
O       -3.31671780       0.92220624       5.42734070       30      -0.00099863       0.01867843       0.02641307
O        4.92368658       0.76528266       1.93512041       31      -0.03003840       0.00841132      -0.00862991
O        0.91971345       1.24350254       5.48045116       32      -0.01794307       0.02551670      -0.00862991
O        3.31671780      -0.97937494       5.46034706       33       0.00099863       0.03221360      -0.00296946
O        2.02893615      -0.01160710       3.24052476       34      -0.03003840       0.00326806       0.01159937
O        0.91971345      -2.01623432       6.81886187       35      -0.01794307      -0.02023207      -0.01778315
O       -0.68725534       1.85186161       3.27353112       36       0.01309396       0.02366091      -0.01778315
O       -0.91971345      -0.77273178       5.20865154       37       0.01794307       0.00528463      -0.02641307
O       -0.42196736       5.07317027       1.63031443       38      -0.00099863      -0.03221360       0.00296946
O        3.76056472       4.84747088       5.17564518       39       0.03003840       0.01167938       0.00296946
40
Lattice="8.684251303249159 6.806458228586762e-10 7.458114661180454e-15 -2.8947504350581044 8.187590647847243 -1.1789211295932329e-09 -2.8947504340955317 -4.093795323242971 7.0906614976095454" Properties=species:S:1:pos:R:3:spacegroup_kinds:I:1:forces:R:3 spacegroup="P 1" unit_cell=conventional occupancy="_JSON {\"0\": {\"In\": 1}, \"1\": {\"In\": 1}, \"2\": {\"In\": 1}, \"3\": {\"In\": 1}, \"4\": {\"In\": 1}, \"5\": {\"In\": 1}, \"6\": {\"In\": 1}, \"7\": {\"In\": 1}, \"8\": {\"In\": 1}, \"9\": {\"In\": 1}, \"10\": {\"In\": 1}, \"11\": {\"In\": 1}, \"12\": {\"In\": 1}, \"13\": {\"In\": 1}, \"14\": {\"In\": 1}, \"15\": {\"In\": 1}, \"16\": {\"O\": 1}, \"17\": {\"O\": 1}, \"18\": {\"O\": 1}, \"19\": {\"O\": 1}, \"20\": {\"O\": 1}, \"21\": {\"O\": 1}, \"22\": {\"O\": 1}, \"23\": {\"O\": 1}, \"24\": {\"O\": 1}, \"25\": {\"O\": 1}, \"26\": {\"O\": 1}, \"27\": {\"O\": 1}, \"28\": {\"O\": 1}, \"29\": {\"O\": 1}, \"30\": {\"O\": 1}, \"31\": {\"O\": 1}, \"32\": {\"O\": 1}, \"33\": {\"O\": 1}, \"34\": {\"O\": 1}, \"35\": {\"O\": 1}, \"36\": {\"O\": 1}, \"37\": {\"O\": 1}, \"38\": {\"O\": 1}, \"39\": {\"O\": 1}}" n_minim_iter=3 energy=-45149.94111109946 stress="-0.06996991402058185 -7.964276302251266e-13 -2.807375133179268e-12 -7.964276302251266e-13 -0.06996991402501346 4.571948564856185e-13 -2.807375133179268e-12 4.571948564856185e-13 -0.06996991402357436" free_energy=-45149.94111109946 pbc="T T T"
In      -4.14728617       2.93257418       5.55662478        0       0.05425700      -0.03836550       0.06645099
In       7.04203660       1.16122115       1.53403671        1      -0.05425700       0.03836550      -0.06645099
In       1.25253573      -0.88567651       5.07936746        2      -0.05425700       0.03836550      -0.06645099
In      -1.44737522      -2.04689766       3.54533075        3      -0.00000000      -0.00000000      -0.00000000
In      -1.25253574       3.95602301       3.30670209        4       0.05425700      -0.03836550      -0.06645099
In       4.53696513      -2.79480185       5.31799612        5       0.05425700       0.07673099      -0.00000000
In      -1.25253574       1.29899347       5.31799612        6       0.05425700       0.07673099       0.00000000
In      -1.64221470       6.88859718       1.77266537        7      -0.05425700      -0.07673099       0.00000000
In       4.14728617       0.13777232       3.78395940        8      -0.05425700       0.03836550       0.06645099
In      -1.44737522       4.09379533      -0.00000000        9      -0.00000000      -0.00000000       0.00000000
In       4.14728617       6.27846531       0.23862865       10      -0.05425700       0.03836550       0.06645099
In      -1.25253574      -2.18466998       6.85203284       11       0.05425700      -0.03836550      -0.06645099
In       4.14728617       2.79480186       1.77266537       12      -0.05425700      -0.07673099       0.00000000
In       1.64221470       4.97947184       2.01129403       13       0.05425700      -0.03836550       0.06645099
In       4.34212565       0.00000000      -0.00000000       14      -0.00000000       0.00000000      -0.00000000
In       1.44737522       2.04689766       3.54533075       15      -0.00000000      -0.00000000       0.00000000
O        0.87068515       4.11040845       3.85254454       16       0.01019883      -0.06644379      -0.02703191
O       -2.02406528       3.32809489       5.15000184       17       0.01019883       0.00981157       0.07105796
O       -0.41601791       2.19103369       0.02878810       18      -0.04999376       0.05237416      -0.00266259
O       -0.87068516      -0.74908732       1.91188489       19      -0.01019883      -0.05663221       0.04402605
O        3.81244637       4.85950347       1.88309678       20       0.00585083       0.05509497       0.04668865
O        1.97705449       2.84583975       1.60467109       21      -0.00585083      -0.01288607       0.07105796
O        1.97705449       6.10745905       0.27842568       22      -0.00585083       0.06798104      -0.02436932
O       -2.20439901       5.80257387       3.57411885       23      -0.06604341       0.02967651      -0.00266259
O        3.31076835       1.90276164       7.06187339       24       0.04999376      -0.05237416       0.00266259
O        5.09914944      -1.70877855       3.51654264       25       0.06604341      -0.02967651       0.00266259
O        6.20551878       3.16734574       1.66223397       26       0.04999376       0.02388120      -0.04668865
O        3.58510186       2.24088845       3.82375643       27      -0.06604341      -0.01714413      -0.02436932
O        0.69035142       4.23792365       6.78344770       28      -0.06604341      -0.01253238       0.02703191
O        2.20439901      -0.14412832       0.30721379       29       0.06604341       0.01253238      -0.02703191
O       -3.31076835       0.92644959       5.42842753       30      -0.04999376      -0.02388120       0.04668865
O        4.91881571       0.76570044       1.94065965       31      -0.01019883      -0.00981157      -0.07105796
O        0.91769594       1.24795558       5.48599040       32       0.00585083       0.01288607      -0.07105796
O        3.31076835      -0.97631205       5.45721563       33       0.04999376       0.02849295       0.04402605
O        2.02406528      -0.01661312       3.23811695       34      -0.01019883       0.06644379       0.02703191
O        0.91769594      -2.01366372       6.81223581       35       0.00585083      -0.06798104       0.02436932
O       -0.69035143       1.85290688       3.26690506       36       0.06604341       0.01714413       0.02436932
O       -0.91769594      -0.76570814       5.20756471       37      -0.00585083      -0.05509497      -0.04668865
O       -0.41601791       5.07010738       1.63344586       38      -0.04999376      -0.02849295      -0.04402605
O        3.76543559       4.84288265       5.17877661       39       0.01019883       0.05663221      -0.04402605
40
Lattice="8.684251303249157 6.80645822858676e-10 7.458114661180454e-15 -2.8947504350581035 8.18759064784724 -1.1789211295932325e-09 -2.894750434095531 -4.09379532324297 7.090661497609546" Properties=species:S:1:pos:R:3:spacegroup_kinds:I:1:forces:R:3 spacegroup="P 1" unit_cell=conventional occupancy="_JSON {\"0\": {\"In\": 1}, \"1\": {\"In\": 1}, \"2\": {\"In\": 1}, \"3\": {\"In\": 1}, \"4\": {\"In\": 1}, \"5\": {\"In\": 1}, \"6\": {\"In\": 1}, \"7\": {\"In\": 1}, \"8\": {\"In\": 1}, \"9\": {\"In\": 1}, \"10\": {\"In\": 1}, \"11\": {\"In\": 1}, \"12\": {\"In\": 1}, \"13\": {\"In\": 1}, \"14\": {\"In\": 1}, \"15\": {\"In\": 1}, \"16\": {\"O\": 1}, \"17\": {\"O\": 1}, \"18\": {\"O\": 1}, \"19\": {\"O\": 1}, \"20\": {\"O\": 1}, \"21\": {\"O\": 1}, \"22\": {\"O\": 1}, \"23\": {\"O\": 1}, \"24\": {\"O\": 1}, \"25\": {\"O\": 1}, \"26\": {\"O\": 1}, \"27\": {\"O\": 1}, \"28\": {\"O\": 1}, \"29\": {\"O\": 1}, \"30\": {\"O\": 1}, \"31\": {\"O\": 1}, \"32\": {\"O\": 1}, \"33\": {\"O\": 1}, \"34\": {\"O\": 1}, \"35\": {\"O\": 1}, \"36\": {\"O\": 1}, \"37\": {\"O\": 1}, \"38\": {\"O\": 1}, \"39\": {\"O\": 1}}" n_minim_iter=4 energy=-45149.94615974246 stress="-0.06985334002556244 2.46089010786888e-12 -3.3450976513566907e-12 2.46089010786888e-12 -0.06985334002457844 3.6947891392393436e-13 -3.3450976513566907e-12 3.6947891392393436e-13 -0.06985334002510997" free_energy=-45149.94615974246 pbc="T T T"
In      -4.14384069       2.93013785       5.56084461        0      -0.00350025       0.00247505      -0.00428692
In       7.03859112       1.16365748       1.52981688        1       0.00350025      -0.00247505       0.00428692
In       1.24909025      -0.88324019       5.07514763        2       0.00350025      -0.00247505       0.00428692
In      -1.44737522      -2.04689766       3.54533075        3      -0.00000000      -0.00000000       0.00000000
In      -1.24909026       3.95358668       3.30248225        4      -0.00350025       0.00247505       0.00428692
In       4.54041061      -2.78992921       5.31799612        5      -0.00350025      -0.00495010      -0.00000000
In      -1.24909026       1.30386612       5.31799612        6      -0.00350025      -0.00495010       0.00000000
In      -1.64566018       6.88372453       1.77266537        7       0.00350025       0.00495010      -0.00000000
In       4.14384069       0.14020864       3.78817924        8       0.00350025      -0.00247505      -0.00428692
In      -1.44737522       4.09379533      -0.00000000        9       0.00000000       0.00000000      -0.00000000
In       4.14384069       6.28090163       0.24284849       10       0.00350025      -0.00247505      -0.00428692
In      -1.24909026      -2.18710630       6.84781300       11      -0.00350025       0.00247505       0.00428692
In       4.14384069       2.78992921       1.77266537       12       0.00350025       0.00495010       0.00000000
In       1.64566018       4.97703551       2.01551386       13      -0.00350025       0.00247505      -0.00428692
In       4.34212565       0.00000000      -0.00000000       14       0.00000000      -0.00000000       0.00000000
In       1.44737522       2.04689766       3.54533075       15      -0.00000000       0.00000000       0.00000000
O        0.87232944       4.10878116       3.85185923       16       0.01244221      -0.01401463       0.03671768
O       -2.02242100       3.32831503       5.15175377       17       0.01244221       0.03880576      -0.00622181
O       -0.41679649       2.19296705       0.02757266       18       0.02752071       0.02814366       0.01224550
O       -0.87232944      -0.75049446       1.91295150       19      -0.01244221       0.02479113       0.03049587
O        3.81210583       4.86020887       1.88537884       20       0.03243902      -0.01772119       0.01825037
O        1.97739503       2.84421612       1.60642302       21      -0.03243902      -0.02466588      -0.00622181
O        1.97739503       6.10978807       0.27895582       22      -0.03243902       0.00694469       0.02447219
O       -2.20648133       5.80266347       3.57290340       23      -0.01736053      -0.03532799       0.01224550
O        3.31154692       1.90082828       7.06308884       24      -0.02752071      -0.02814366      -0.01224550
O        5.10123176      -1.70886814       3.51775809       25       0.01736053       0.03532799      -0.01224550
O        6.20629735       3.16725981       1.65995190       26      -0.02752071       0.02467674      -0.01825037
O        3.58301954       2.23979105       3.82428657       27      -0.01736053       0.02826891       0.02447219
O        0.68826911       4.23893147       6.78413301       28      -0.01736053       0.00705908      -0.03671768
O        2.20648132      -0.14513614       0.30652848       29       0.01736053      -0.00705908       0.03671768
O       -3.31154692       0.92653552       5.43070959       30       0.02752071      -0.02467674       0.01825037
O        4.91717143       0.76548030       1.93890772       31      -0.01244221      -0.03880576       0.00622181
O        0.91735540       1.24957921       5.48423847       32       0.03243902       0.02466588       0.00622181
O        3.31154692      -0.97429276       5.45828225       33      -0.02752070       0.00346692       0.03049587
O        2.02242099      -0.01498583       3.23880226       34      -0.01244221       0.01401463      -0.03671768
O        0.91735540      -2.01599275       6.81170567       35       0.03243902      -0.00694469      -0.02447219
O       -0.68826911       1.85400428       3.26637492       36       0.01736053      -0.02826891      -0.02447219
O       -0.91735540      -0.76641354       5.20528265       37      -0.03243902       0.01772119      -0.01825037
O       -0.41679649       5.06808808       1.63237924       38       0.02752070      -0.00346692      -0.03049587
O        3.76707987       4.84428979       5.17770999       39       0.01244221      -0.02479113      -0.03049587
40
Lattice="8.684251303249159 6.806458228586761e-10 7.458114661180457e-15 -2.894750435058104 8.187590647847243 -1.1789211295932327e-09 -2.8947504340955312 -4.093795323242971 7.09066149760955" Properties=species:S:1:pos:R:3:spacegroup_kinds:I:1:forces:R:3 spacegroup="P 1" unit_cell=conventional occupancy="_JSON {\"0\": {\"In\": 1}, \"1\": {\"In\": 1}, \"2\": {\"In\": 1}, \"3\": {\"In\": 1}, \"4\": {\"In\": 1}, \"5\": {\"In\": 1}, \"6\": {\"In\": 1}, \"7\": {\"In\": 1}, \"8\": {\"In\": 1}, \"9\": {\"In\": 1}, \"10\": {\"In\": 1}, \"11\": {\"In\": 1}, \"12\": {\"In\": 1}, \"13\": {\"In\": 1}, \"14\": {\"In\": 1}, \"15\": {\"In\": 1}, \"16\": {\"O\": 1}, \"17\": {\"O\": 1}, \"18\": {\"O\": 1}, \"19\": {\"O\": 1}, \"20\": {\"O\": 1}, \"21\": {\"O\": 1}, \"22\": {\"O\": 1}, \"23\": {\"O\": 1}, \"24\": {\"O\": 1}, \"25\": {\"O\": 1}, \"26\": {\"O\": 1}, \"27\": {\"O\": 1}, \"28\": {\"O\": 1}, \"29\": {\"O\": 1}, \"30\": {\"O\": 1}, \"31\": {\"O\": 1}, \"32\": {\"O\": 1}, \"33\": {\"O\": 1}, \"34\": {\"O\": 1}, \"35\": {\"O\": 1}, \"36\": {\"O\": 1}, \"37\": {\"O\": 1}, \"38\": {\"O\": 1}, \"39\": {\"O\": 1}}" n_minim_iter=5 energy=-45149.94729867686 stress="-0.06902041012598371 -2.8198171592623238e-12 1.1216741625949882e-12 -2.8198171592623238e-12 -0.06902041012719173 -5.653194345464747e-13 1.1216741625949882e-12 -5.653194345464747e-13 -0.06902041012201508" free_energy=-45149.94729867686 pbc="T T T"
In      -4.14158721       2.92854440       5.56360455        0      -0.00125114       0.00088469      -0.00153233
In       7.03633764       1.16525093       1.52705694        1       0.00125114      -0.00088469       0.00153233
In       1.24683677      -0.88164674       5.07238769        2       0.00125114      -0.00088469       0.00153233
In      -1.44737522      -2.04689766       3.54533075        3      -0.00000000       0.00000000       0.00000000
In      -1.24683678       3.95199323       3.29972232        4      -0.00125114       0.00088469       0.00153233
In       4.54266409      -2.78674230       5.31799612        5      -0.00125114      -0.00176938       0.00000000
In      -1.24683678       1.30705302       5.31799612        6      -0.00125114      -0.00176938      -0.00000000
In      -1.64791366       6.88053763       1.77266537        7       0.00125114       0.00176938      -0.00000000
In       4.14158721       0.14180210       3.79093918        8       0.00125114      -0.00088469      -0.00153233
In      -1.44737522       4.09379533      -0.00000000        9       0.00000000       0.00000000      -0.00000000
In       4.14158721       6.28249508       0.24560843       10       0.00125114      -0.00088469      -0.00153233
In      -1.24683678      -2.18869975       6.84505307       11      -0.00125114       0.00088469       0.00153233
In       4.14158721       2.78674231       1.77266537       12       0.00125114       0.00176938      -0.00000000
In       1.64791366       4.97544206       2.01827380       13      -0.00125114       0.00088469      -0.00153233
In       4.34212565       0.00000000      -0.00000000       14       0.00000000      -0.00000000      -0.00000000
In       1.44737522       2.04689766       3.54533075       15       0.00000000      -0.00000000      -0.00000000
O        0.87512661       4.10959571       3.85415286       16      -0.00534653      -0.01896091       0.01511383
O       -2.01962382       3.32989410       5.14990153       17      -0.00534653       0.02256942       0.00886372
O       -0.41360737       2.19426897       0.02620045       18       0.00161996       0.01764337       0.01739588
O       -0.87512661      -0.74810084       1.91339289       19       0.00534653       0.00360850       0.02397755
O        3.81266220       4.85702300       1.88719244       20       0.02306083       0.00643501       0.00658167
O        1.97683866       2.84105257       1.60457078       21      -0.02306083      -0.00248239       0.00886372
O        1.97683866       6.10976576       0.28262166       22      -0.02306083       0.00891740      -0.00228205
O       -2.20664575       5.79922276       3.57153120       23      -0.01609434      -0.00740843       0.01739588
O        3.30835780       1.89952636       7.06446104       24      -0.00161996      -0.01764337      -0.01739588
O        5.10139618      -1.70542743       3.51913030       25       0.01609434       0.00740843      -0.01739588
O        6.20310823       3.16672240       1.65813830       26      -0.00161996       0.02388696      -0.00658167
O        3.58285512       2.24032303       3.82795241       27      -0.01609434       0.01876949      -0.00228205
O        0.68810469       4.24184018       6.78183938       28      -0.01609434      -0.01136106      -0.01511383
O        2.20664575      -0.14804486       0.30882211       29       0.01609434       0.01136106       0.01511383
O       -3.30835780       0.92707292       5.43252319       30       0.00161996      -0.02388696       0.00658167
O        4.91437426       0.76390123       1.94075997       31       0.00534653      -0.02256942      -0.00886372
O        0.91791177       1.25274276       5.48609071       32       0.02306083       0.00248239      -0.00886372
O        3.30835780      -0.97245343       5.45872364       33      -0.00161996      -0.00624359       0.02397755
O        2.01962382      -0.01580038       3.23650863       34       0.00534653       0.01896091      -0.01511383
O        0.91791177      -2.01597044       6.80803983       35       0.02306083      -0.00891740       0.00228205
O       -0.68810469       1.85347230       3.26270908       36       0.01609434      -0.01876949       0.00228205
O       -0.91791177      -0.76322768       5.20346905       37      -0.02306083      -0.00643501      -0.00658167
O       -0.41360737       5.06624876       1.63193785       38       0.00161996       0.00624359      -0.02397755
O        3.76987704       4.84189617       5.17726860       39      -0.00534653      -0.00360850      -0.02397755
40