40
Lattice="8.605299194074709 6.744577987280767e-10 1.2022772299260441e-14 -2.8684330653274546 8.11315388546766 -1.1682065290449456e-09 -2.868433064373637 -4.056576942059365 7.026197370406214" Properties=species:S:1:pos:R:3:spacegroup_kinds:I:1:forces:R:3 spacegroup="P 1" unit_cell=conventional occupancy="_JSON {\"0\": {\"In\": 1}, \"1\": {\"In\": 1}, \"2\": {\"In\": 1}, \"3\": {\"In\": 1}, \"4\": {\"In\": 1}, \"5\": {\"In\": 1}, \"6\": {\"In\": 1}, \"7\": {\"In\": 1}, \"8\": {\"In\": 1}, \"9\": {\"In\": 1}, \"10\": {\"In\": 1}, \"11\": {\"In\": 1}, \"12\": {\"In\": 1}, \"13\": {\"In\": 1}, \"14\": {\"In\": 1}, \"15\": {\"In\": 1}, \"16\": {\"O\": 1}, \"17\": {\"O\": 1}, \"18\": {\"O\": 1}, \"19\": {\"O\": 1}, \"20\": {\"O\": 1}, \"21\": {\"O\": 1}, \"22\": {\"O\": 1}, \"23\": {\"O\": 1}, \"24\": {\"O\": 1}, \"25\": {\"O\": 1}, \"26\": {\"O\": 1}, \"27\": {\"O\": 1}, \"28\": {\"O\": 1}, \"29\": {\"O\": 1}, \"30\": {\"O\": 1}, \"31\": {\"O\": 1}, \"32\": {\"O\": 1}, \"33\": {\"O\": 1}, \"34\": {\"O\": 1}, \"35\": {\"O\": 1}, \"36\": {\"O\": 1}, \"37\": {\"O\": 1}, \"38\": {\"O\": 1}, \"39\": {\"O\": 1}}" n_minim_iter=1 energy=-45148.81418463759 stress="-0.1003528401886884 -1.3610071045770682e-12 -3.3783829931793515e-12 -1.3610071045770682e-12 -0.10035284019190219 -5.362222197435421e-12 -3.3783829931793515e-12 -5.362222197435421e-12 -0.10035284019284009" free_energy=-45148.81418463759 pbc="T T T"
In      -4.10421476       2.90211809       5.51268008        0       0.04214982      -0.02980443       0.05162278
In       6.97264782       1.15445886       1.51351729        1      -0.04214982       0.02980443      -0.05162278
In       1.23578169      -0.87382961       5.02661597        2      -0.04214982       0.02980443      -0.05162278
In      -1.43421653      -2.02828847       3.51309868        3      -0.00000000       0.00000000      -0.00000000
In      -1.23578169       3.91626232       3.27006663        4       0.04214982      -0.02980443      -0.05162278
In       4.50108444      -2.76180346       5.26964803        5       0.04214982       0.05960885      -0.00000000
In      -1.23578169       1.29477348       5.26964802        6       0.04214982       0.05960885       0.00000000
In      -1.63265137       6.81838041       1.75654934        7      -0.04214982      -0.05960885      -0.00000000
In       4.10421476       0.14031462       3.75613074        8      -0.04214982       0.02980443       0.05162278
In      -1.43421653       4.05657694      -0.00000000        9       0.00000000      -0.00000000      -0.00000000
In       4.10421476       6.22518004       0.24303205       10      -0.04214982       0.02980443       0.05162278
In      -1.23578169      -2.16860309       6.78316532       11       0.04214982      -0.02980443      -0.05162278
In       4.10421476       2.76180347       1.75654934       12      -0.04214982      -0.05960885       0.00000000
In       1.63265137       4.93040656       1.99958139       13       0.04214982      -0.02980443       0.05162278
In       4.30264960       0.00000000      -0.00000000       14      -0.00000000       0.00000000       0.00000000
In       1.43421653       2.02828847       3.51309868       15       0.00000000       0.00000000       0.00000000
O        0.86668865       4.07083379       3.81983149       16      -0.02041958       0.05971376       0.08597556
O       -2.00174441       3.30094269       5.10393483       17      -0.02041958       0.04460014      -0.09470141
O       -0.41008111       2.17546678       0.02711893       18       0.09154156      -0.03456834       0.04242242
O       -0.86668866      -0.74137741       1.89756896       19       0.02041958       0.10431389      -0.00872585
O        3.77940675       4.81361148       1.87045002       20       0.04885594      -0.07982130      -0.05114827
O        1.95745938       2.81523697       1.59083615       21      -0.04885594       0.00438505      -0.09470141
O        1.95745938       6.05495145       0.27961387       22      -0.04885594      -0.08420635       0.04355314
O       -2.18774345       5.74633800       3.54021761       23       0.06310519      -0.07478343       0.04242242
O        3.27851417       1.88111017       6.99907844       24      -0.09154156       0.03456834      -0.04242242
O        5.05617651      -1.68976105       3.48597975       25      -0.06310519       0.07478343      -0.04242242
O        6.14694723       3.13950755       1.64264866       26      -0.09154156       0.01945472       0.05114827
O        3.54912268       2.22103787       3.79271256       27       0.06310519       0.07413060       0.04355314
O        0.68068962       4.20235497       6.71946456       28       0.06310519       0.00065282      -0.08597556
O        2.18774345      -0.14577802       0.30673281       29      -0.06310519      -0.00065282       0.08597556
O       -3.27851417       0.91706940       5.38354871       30       0.09154156      -0.01945472      -0.05114827
O        4.87017747       0.75563425       1.92226253       31       0.02041958      -0.04460014       0.09470141
O        0.91097368       1.24133998       5.43536122       32       0.04885594      -0.00438505       0.09470141
O        3.27851417      -0.96404077       5.41066764       33      -0.09154156      -0.05402306      -0.00872585
O        2.00174441      -0.01425684       3.20636587       34       0.02041958      -0.05971376      -0.08597556
O        0.91097368      -1.99837450       6.74658349       35       0.04885594       0.08420635      -0.04355314
O       -0.68068962       1.83553908       3.23348481       36      -0.06310519      -0.07413060      -0.04355314
O       -0.91097369      -0.75703453       5.15574734       37      -0.04885594       0.07982130       0.05114827
O       -0.41008111       5.02061771       1.61552972       38       0.09154156       0.05402306       0.00872585
O        3.73512172       4.79795435       5.12862841       39      -0.02041958      -0.10431389       0.00872585
40
Lattice="8.605299194074707 6.744577987280764e-10 1.2022772299260441e-14 -2.868433065327454 8.113153885467655 -1.1682065290449452e-09 -2.8684330643736367 -4.056576942059363 7.026197370406213" Properties=species:S:1:pos:R:3:spacegroup_kinds:I:1:forces:R:3 spacegroup="P 1" unit_cell=conventional occupancy="_JSON {\"0\": {\"In\": 1}, \"1\": {\"In\": 1}, \"2\": {\"In\": 1}, \"3\": {\"In\": 1}, \"4\": {\"In\": 1}, \"5\": {\"In\": 1}, \"6\": {\"In\": 1}, \"7\": {\"In\": 1}, \"8\": {\"In\": 1}, \"9\": {\"In\": 1}, \"10\": {\"In\": 1}, \"11\": {\"In\": 1}, \"12\": {\"In\": 1}, \"13\": {\"In\": 1}, \"14\": {\"In\": 1}, \"15\": {\"In\": 1}, \"16\": {\"O\": 1}, \"17\": {\"O\": 1}, \"18\": {\"O\": 1}, \"19\": {\"O\": 1}, \"20\": {\"O\": 1}, \"21\": {\"O\": 1}, \"22\": {\"O\": 1}, \"23\": {\"O\": 1}, \"24\": {\"O\": 1}, \"25\": {\"O\": 1}, \"26\": {\"O\": 1}, \"27\": {\"O\": 1}, \"28\": {\"O\": 1}, \"29\": {\"O\": 1}, \"30\": {\"O\": 1}, \"31\": {\"O\": 1}, \"32\": {\"O\": 1}, \"33\": {\"O\": 1}, \"34\": {\"O\": 1}, \"35\": {\"O\": 1}, \"36\": {\"O\": 1}, \"37\": {\"O\": 1}, \"38\": {\"O\": 1}, \"39\": {\"O\": 1}}" n_minim_iter=2 energy=-45148.82914118969 stress="-0.09841257111943962 -5.166117678391409e-13 2.0278729955647832e-12 -5.166117678391409e-13 -0.09841257111984397 5.296878580777526e-13 2.0278729955647832e-12 5.296878580777526e-13 -0.09841257112015077" free_energy=-45148.82914118969 pbc="T T T"
In      -4.10120406       2.89998920       5.51636742        0       0.08696380      -0.06149269       0.10650847
In       6.96963712       1.15658775       1.50982995        1      -0.08696380       0.06149269      -0.10650847
In       1.23277099      -0.87170073       5.02292863        2      -0.08696380       0.06149269      -0.10650847
In      -1.43421653      -2.02828847       3.51309868        3       0.00000000      -0.00000000       0.00000000
In      -1.23277099       3.91413344       3.26637929        4       0.08696380      -0.06149269      -0.10650847
In       4.50409514      -2.75754569       5.26964803        5       0.08696380       0.12298538      -0.00000000
In      -1.23277099       1.29903125       5.26964802        6       0.08696380       0.12298538      -0.00000000
In      -1.63566208       6.81412263       1.75654934        7      -0.08696380      -0.12298538       0.00000000
In       4.10120405       0.14244351       3.75981808        8      -0.08696380       0.06149269       0.10650847
In      -1.43421653       4.05657694      -0.00000000        9      -0.00000000      -0.00000000      -0.00000000
In       4.10120405       6.22730892       0.24671939       10      -0.08696380       0.06149269       0.10650847
In      -1.23277099      -2.17073198       6.77947797       11       0.08696380      -0.06149269      -0.10650847
In       4.10120405       2.75754569       1.75654934       12      -0.08696380      -0.12298538       0.00000000
In       1.63566207       4.92827767       2.00326873       13       0.08696380      -0.06149269       0.10650847
In       4.30264960       0.00000000      -0.00000000       14      -0.00000000      -0.00000000       0.00000000
In       1.43421653       2.02828847       3.51309868       15      -0.00000000      -0.00000000       0.00000000
O        0.86523011       4.07509906       3.82597260       16       0.01569762      -0.01481626      -0.00748612
O       -2.00320295       3.30412842       5.09717045       17       0.01569762       0.00092496       0.01657432
O       -0.40354243       2.17299761       0.03014910       18      -0.00786430       0.01758576      -0.01228303
O       -0.86523012      -0.73392642       1.89694568       19      -0.01569762      -0.01389130       0.00908820
O        3.78289646       4.80790996       1.86679658       20      -0.00436048       0.00679969       0.02137123
O        1.95396967       2.81555019       1.58407176       21       0.00436048      -0.01510818       0.01657432
O        1.95396967       6.04893671       0.28272481       22       0.00436048       0.02190787       0.00479691
O       -2.18323594       5.74099633       3.54324779       23      -0.01920145       0.00155262      -0.01228303
O        3.27197549       1.88357934       6.99604826       24       0.00786430      -0.01758576       0.01228303
O        5.05166900      -1.68441938       3.48294958       25       0.01920145      -0.00155262       0.01228303
O        6.14040855       3.14089717       1.64630210       26       0.00786430      -0.00184454      -0.02137123
O        3.55363019       2.22633291       3.79582350       27      -0.01920145      -0.01141373       0.00479691
O        0.68519713       4.20240160       6.71332345       28      -0.01920145       0.00986111       0.00748612
O        2.18323593      -0.14582465       0.31287392       29       0.01920145      -0.00986111      -0.00748612
O       -3.27197549       0.91567978       5.37989526       30      -0.00786430       0.00184454       0.02137123
O        4.87163601       0.75244853       1.92902692       31      -0.01569762      -0.00092496      -0.01657432
O        0.91446339       1.24102676       5.44212560       32      -0.00436048       0.01510818      -0.01657432
O        3.27197549      -0.96789956       5.41004437       33       0.00786430       0.01943030       0.00908820
O        2.00320295      -0.01852211       3.20022476       34      -0.01569763       0.01481626       0.00748612
O        0.91446339      -1.99235976       6.74347255       35      -0.00436048      -0.02190787      -0.00479691
O       -0.68519713       1.83024404       3.23037387       36       0.01920145       0.01141373      -0.00479691
O       -0.91446340      -0.75133301       5.15940079       37       0.00436048      -0.00679969      -0.02137123
O       -0.40354243       5.02447650       1.61615300       38      -0.00786430      -0.01943030      -0.00908820
O        3.73366318       4.79050336       5.12925168       39       0.01569762       0.01389130      -0.00908820
40
Lattice="8.605299194074702 6.744577987280761e-10 1.2022772299260365e-14 -2.8684330653274537 8.113153885467646 -1.1682065290449463e-09 -2.868433064373636 -4.056576942059358 7.026197370406218" Properties=species:S:1:pos:R:3:spacegroup_kinds:I:1:forces:R:3 spacegroup="P 1" unit_cell=conventional occupancy="_JSON {\"0\": {\"In\": 1}, \"1\": {\"In\": 1}, \"2\": {\"In\": 1}, \"3\": {\"In\": 1}, \"4\": {\"In\": 1}, \"5\": {\"In\": 1}, \"6\": {\"In\": 1}, \"7\": {\"In\": 1}, \"8\": {\"In\": 1}, \"9\": {\"In\": 1}, \"10\": {\"In\": 1}, \"11\": {\"In\": 1}, \"12\": {\"In\": 1}, \"13\": {\"In\": 1}, \"14\": {\"In\": 1}, \"15\": {\"In\": 1}, \"16\": {\"O\": 1}, \"17\": {\"O\": 1}, \"18\": {\"O\": 1}, \"19\": {\"O\": 1}, \"20\": {\"O\": 1}, \"21\": {\"O\": 1}, \"22\": {\"O\": 1}, \"23\": {\"O\": 1}, \"24\": {\"O\": 1}, \"25\": {\"O\": 1}, \"26\": {\"O\": 1}, \"27\": {\"O\": 1}, \"28\": {\"O\": 1}, \"29\": {\"O\": 1}, \"30\": {\"O\": 1}, \"31\": {\"O\": 1}, \"32\": {\"O\": 1}, \"33\": {\"O\": 1}, \"34\": {\"O\": 1}, \"35\": {\"O\": 1}, \"36\": {\"O\": 1}, \"37\": {\"O\": 1}, \"38\": {\"O\": 1}, \"39\": {\"O\": 1}}" n_minim_iter=3 energy=-45152.20351768064 stress="0.13442318811826068 1.1440514661386704e-12 -2.0109497050436844e-12 1.1440514661386704e-12 0.13442318812298829 3.1838233179349873e-12 -2.0109497050436844e-12 3.1838233179349873e-12 0.13442318812064777" free_energy=-45152.20351768064 pbc="T T T"
In      -3.93222374       2.78050207       5.72332520        0       1.31975053      -0.93320455       1.61635769
In       6.80065680       1.27607488       1.30287217        1      -1.31975053       0.93320455      -1.61635769
In       1.06379067      -0.75221360       4.81597085        2      -1.31975053       0.93320455      -1.61635769
In      -1.43421653      -2.02828847       3.51309868        3       0.00000000      -0.00000000      -0.00000000
In      -1.06379067       3.79464631       3.05942151        4       1.31975053      -0.93320455      -1.61635769
In       4.67307546      -2.51857143       5.26964803        5       1.31975053       1.86640909      -0.00000000
In      -1.06379067       1.53800551       5.26964802        6       1.31975053       1.86640909      -0.00000000
In      -1.80464240       6.57514837       1.75654934        7      -1.31975053      -1.86640909      -0.00000000
In       3.93222373       0.26193064       3.96677586        8      -1.31975053       0.93320455       1.61635769
In      -1.43421653       4.05657694      -0.00000000        9       0.00000000       0.00000000      -0.00000000
In       3.93222373       6.34679605       0.45367717       10      -1.31975053       0.93320455       1.61635769
In      -1.06379067      -2.29021911       6.57252019       11       1.31975053      -0.93320455      -1.61635769
In       3.93222373       2.51857143       1.75654934       12      -1.31975053      -1.86640909       0.00000000
In       1.80464239       4.80879054       2.21022651       13       1.31975053      -0.93320455       1.61635769
In       4.30264960       0.00000000      -0.00000000       14       0.00000000       0.00000000      -0.00000000
In       1.43421653       2.02828847       3.51309868       15       0.00000000       0.00000000      -0.00000000
O        0.83918049       4.18128305       3.99221974       16       0.20964458      -4.21535643       1.39993424
O       -2.02925258       3.39501067       4.92208884       17       0.20964458       3.32005683       2.95063864
O       -0.22642980       2.12022246       0.10388943       18      -0.77421504       4.01575063       1.74566163
O       -0.83918049      -0.53686017       1.88811122       19      -0.20964458      -0.89529960       4.35057288
O        3.87726428       4.65341771       1.78422179       20       3.06029807       1.90315781       2.60491125
O        1.85960185       2.80981593       1.40899016       21      -3.06029807      -1.30434041       2.95063864
O        1.85960185       5.90017873       0.37523163       22      -3.06029807       3.20749822      -0.34572739
O       -2.07444150       5.59160466       3.61698811       23      -4.04415768      -0.60864661       1.74566163
O        3.09486286       1.93635449       6.92230794       24       0.77421504      -4.01575063      -1.74566163
O        4.94287456      -1.53502771       3.40920925       25       4.04415768       0.60864661      -1.74566163
O        5.96329593       3.17837058       1.72887689       26       0.77421504       3.51966263      -2.60491125
O        3.66242463       2.36488974       3.88833031       27      -4.04415768       1.81611062      -0.34572739
O        0.79399156       4.21323644       6.54707631       28      -4.04415768      -1.20746401      -1.39993424
O        2.07444150      -0.15665949       0.47912106       29       4.04415768       1.20746401       1.39993424
O       -3.09486286       0.87820636       5.29732048       30      -0.77421504      -3.51966263       2.60491125
O        4.89768564       0.66156628       2.10410852       31      -0.20964458      -3.32005683      -2.95063864
O        1.00883121       1.24676102       5.61720721       32       3.06029807       1.30434041      -2.95063864
O        3.09486286      -1.05814813       5.40120990       33       0.77421504       0.49608800       4.35057288
O        2.02925258      -0.12470610       3.03397762       34      -0.20964458       4.21535643      -1.39993424
O        1.00883121      -1.84360178       6.65096574       35       3.06029807      -3.20749822       0.34572739
O       -0.79399157       1.69168721       3.13786705       36       4.04415768      -1.81611062       0.34572739
O       -1.00883121      -0.59684076       5.24197557       37      -3.06029807      -1.90315781      -2.60491125
O       -0.22642980       5.11472507       1.62498746       38      -0.77421504      -0.49608800      -4.35057288
O        3.70761355       4.59343712       5.13808615       39       0.20964458       0.89529960      -4.35057288
