40
Lattice="8.684251303249152 6.806444593264814e-10 1.6352209431394743e-15 -2.8947504350581026 8.187590647847234 -1.1789154243680672e-09 -2.8947504340955277 -4.0937953232429685 7.0906614976095454" Properties=species:S:1:pos:R:3:spacegroup_kinds:I:1:forces:R:3 spacegroup="P 1" unit_cell=conventional occupancy="_JSON {\"0\": {\"In\": 1}, \"1\": {\"In\": 1}, \"2\": {\"In\": 1}, \"3\": {\"In\": 1}, \"4\": {\"In\": 1}, \"5\": {\"In\": 1}, \"6\": {\"In\": 1}, \"7\": {\"In\": 1}, \"8\": {\"In\": 1}, \"9\": {\"In\": 1}, \"10\": {\"In\": 1}, \"11\": {\"In\": 1}, \"12\": {\"In\": 1}, \"13\": {\"In\": 1}, \"14\": {\"In\": 1}, \"15\": {\"In\": 1}, \"16\": {\"O\": 1}, \"17\": {\"O\": 1}, \"18\": {\"O\": 1}, \"19\": {\"O\": 1}, \"20\": {\"O\": 1}, \"21\": {\"O\": 1}, \"22\": {\"O\": 1}, \"23\": {\"O\": 1}, \"24\": {\"O\": 1}, \"25\": {\"O\": 1}, \"26\": {\"O\": 1}, \"27\": {\"O\": 1}, \"28\": {\"O\": 1}, \"29\": {\"O\": 1}, \"30\": {\"O\": 1}, \"31\": {\"O\": 1}, \"32\": {\"O\": 1}, \"33\": {\"O\": 1}, \"34\": {\"O\": 1}, \"35\": {\"O\": 1}, \"36\": {\"O\": 1}, \"37\": {\"O\": 1}, \"38\": {\"O\": 1}, \"39\": {\"O\": 1}}" n_minim_iter=4 energy=-45150.78668326888 stress="-0.052561296089038624 -7.416408073778243e-13 9.357300583477415e-13 -7.416408073778243e-13 -0.05256129609275902 -2.5006294806683546e-12 9.357300583477415e-13 -2.5006294806683546e-12 -0.05256129608497975" free_energy=-45150.78668326888 pbc="T T T"
In      -4.15307208       2.93666543       5.54953852        0       0.00217244      -0.00153615       0.00266068
In       7.04782251       1.15712990       1.54112297        1      -0.00217244       0.00153615      -0.00266068
In       1.25832164      -0.88976776       5.08645372        2      -0.00217244       0.00153615      -0.00266068
In      -1.44737522      -2.04689766       3.54533075        3      -0.00000000       0.00000000      -0.00000000
In      -1.25832164       3.96011426       3.31378835        4       0.00217244      -0.00153615      -0.00266068
In       4.53117923      -2.80298436       5.31799612        5       0.00217244       0.00307229      -0.00000000
In      -1.25832164       1.29081096       5.31799612        6       0.00217244       0.00307229       0.00000000
In      -1.63642880       6.89677969       1.77266537        7      -0.00217244      -0.00307229       0.00000000
In       4.15307207       0.13368107       3.77687314        8      -0.00217244       0.00153615       0.00266068
In      -1.44737522       4.09379533      -0.00000000        9       0.00000000      -0.00000000       0.00000000
In       4.15307207       6.27437405       0.23154239       10      -0.00217244       0.00153615       0.00266068
In      -1.25832164      -2.18057873       6.85911910       11       0.00217244      -0.00153615      -0.00266068
In       4.15307207       2.80298436       1.77266537       12      -0.00217244      -0.00307229       0.00000000
In       1.63642879       4.98356309       2.00420777       13       0.00217244      -0.00153615       0.00266068
In       4.34212565       0.00000000      -0.00000000       14       0.00000000       0.00000000       0.00000000
In       1.44737522       2.04689766       3.54533075       15      -0.00000000      -0.00000000       0.00000000
O        0.86204236       4.10015890       3.84721318       16       0.00152193       0.00166110       0.00048748
O       -2.03270807       3.32860257       5.16154388       17       0.00152193      -0.00040839      -0.00168230
O       -0.42808356       2.19396169       0.03613802       18       0.00168839      -0.00052608      -0.00147844
O       -0.86204237      -0.75882918       1.91809557       19      -0.00152193       0.00125272      -0.00119482
O        3.81580595       4.87348881       1.88195754       20      -0.00089234      -0.00210629       0.00028361
O        1.97369492       2.85381902       1.61621313       21       0.00089234      -0.00129876      -0.00168230
O        1.97369492       6.11346511       0.26574441       22       0.00089234      -0.00080753       0.00196591
O       -2.21118144       5.81297347       3.58146877       23       0.00105879      -0.00141646      -0.00147844
O        3.32283399       1.89983364       7.05452347       24      -0.00168839       0.00052608       0.00147844
O        5.10593187      -1.71917815       3.50919272       25      -0.00105879       0.00141646       0.00147844
O        6.21758443       3.17517496       1.66337320       26      -0.00168839      -0.00154341      -0.00028361
O        3.57831943       2.24205387       3.81107516       27       0.00105879      -0.00057213       0.00196591
O        0.68356899       4.22635864       6.78877906       28       0.00105879       0.00198860      -0.00048748
O        2.21118144      -0.13256331       0.30188244       29      -0.00105879      -0.00198860       0.00048748
O       -3.32283399       0.91862037       5.42728829       30       0.00168839       0.00154341       0.00028361
O        4.92745850       0.76519276       1.92911761       31      -0.00152193       0.00040839       0.00168230
O        0.92105551       1.23997631       5.47444836       32      -0.00089234       0.00129876       0.00168230
O        3.32283399      -0.98121326       5.46342632       33      -0.00168839       0.00101732      -0.00119482
O        2.03270807      -0.00636358       3.24344831       34      -0.00152193      -0.00166110      -0.00048748
O        0.92105551      -2.01966978       6.82491708       35      -0.00089234       0.00080753      -0.00196591
O       -0.68356900       1.85174146       3.27958633       36      -0.00105879       0.00057213      -0.00196591
O       -0.92105552      -0.77969348       5.20870395       37       0.00089234       0.00210629      -0.00028361
O       -0.42808356       5.07500859       1.62723517       38       0.00168839      -0.00101732       0.00119482
O        3.75679280       4.85262451       5.17256592       39       0.00152193      -0.00125272       0.00119482
