40
Lattice="8.761793364257546 6.867233075746299e-10 3.6970263426663654e-16 -2.9205977887332977 8.260698004066832 -1.189441341435096e-09 -2.920597787762125 -4.130349001346691 7.153974325306245" Properties=species:S:1:pos:R:3:spacegroup_kinds:I:1:forces:R:3 spacegroup="P 1" unit_cell=conventional occupancy="_JSON {\"0\": {\"In\": 1}, \"1\": {\"In\": 1}, \"2\": {\"In\": 1}, \"3\": {\"In\": 1}, \"4\": {\"In\": 1}, \"5\": {\"In\": 1}, \"6\": {\"In\": 1}, \"7\": {\"In\": 1}, \"8\": {\"In\": 1}, \"9\": {\"In\": 1}, \"10\": {\"In\": 1}, \"11\": {\"In\": 1}, \"12\": {\"In\": 1}, \"13\": {\"In\": 1}, \"14\": {\"In\": 1}, \"15\": {\"In\": 1}, \"16\": {\"O\": 1}, \"17\": {\"O\": 1}, \"18\": {\"O\": 1}, \"19\": {\"O\": 1}, \"20\": {\"O\": 1}, \"21\": {\"O\": 1}, \"22\": {\"O\": 1}, \"23\": {\"O\": 1}, \"24\": {\"O\": 1}, \"25\": {\"O\": 1}, \"26\": {\"O\": 1}, \"27\": {\"O\": 1}, \"28\": {\"O\": 1}, \"29\": {\"O\": 1}, \"30\": {\"O\": 1}, \"31\": {\"O\": 1}, \"32\": {\"O\": 1}, \"33\": {\"O\": 1}, \"34\": {\"O\": 1}, \"35\": {\"O\": 1}, \"36\": {\"O\": 1}, \"37\": {\"O\": 1}, \"38\": {\"O\": 1}, \"39\": {\"O\": 1}}" n_minim_iter=3 energy=-45151.34484839958 stress="-0.027123276618980847 2.1318741021544095e-12 -3.1274097148660642e-12 2.1318741021544095e-12 -0.027123276623563692 -2.3149229655743183e-13 -3.1274097148660642e-12 -2.3149229655743183e-13 -0.027123276623838993" free_energy=-45151.34484839958 pbc="T T T"
In      -4.18861478       2.96179792       5.60097701        0      -0.00318712       0.00225364      -0.00390341
In       7.10921257       1.16855109       1.55299731        1       0.00318712      -0.00225364       0.00390341
In       1.26801699      -0.89662341       5.12998447        2       0.00318712      -0.00225364       0.00390341
In      -1.46029890      -2.06517450       3.57698716        3      -0.00000000      -0.00000000       0.00000000
In      -1.26801700       3.99438517       3.34149089        4      -0.00318712       0.00225364       0.00390341
In       4.57317858      -2.82583408       5.36548074        5      -0.00318712      -0.00450727      -0.00000000
In      -1.26801700       1.30451492       5.36548074        6      -0.00318712      -0.00450727      -0.00000000
In      -1.65258080       6.95618308       1.78849358        7       0.00318712       0.00450727      -0.00000000
In       4.18861478       0.13596384       3.81248343        8       0.00318712      -0.00225364      -0.00390341
In      -1.46029890       4.13034900      -0.00000000        9      -0.00000000      -0.00000000       0.00000000
In       4.18861478       6.33148734       0.23549627       10       0.00318712      -0.00225364      -0.00390341
In      -1.26801700      -2.20113833       6.91847805       11      -0.00318712       0.00225364       0.00390341
In       4.18861478       2.82583408       1.78849358       12       0.00318712       0.00450727      -0.00000000
In       1.65258079       5.02697242       2.02398985       13      -0.00318712       0.00225364      -0.00390341
In       4.38089668       0.00000000      -0.00000000       14      -0.00000000      -0.00000000       0.00000000
In       1.46029889       2.06517450       3.57698716       15       0.00000000       0.00000000       0.00000000
O        0.86397354       4.13223908       3.88516771       16      -0.00656839       0.00388562       0.00137338
O       -2.05662425       3.36370890       5.20975361       17      -0.00656839      -0.00075343      -0.00405174
O       -0.43302206       2.21564878       0.04427774       18       0.00076360      -0.00593792       0.00492808
O       -0.86397355      -0.76475002       1.94094700       19       0.00656839       0.00313219      -0.00267835
O        3.85687658       4.92066280       1.89666926       20       0.00147913      -0.00028697      -0.00760643
O        1.98431900       2.88294214       1.63276645       21      -0.00147913       0.00644388      -0.00405174
O        1.98431900       6.16806966       0.26390281       22      -0.00147913      -0.00673085      -0.00355470
O       -2.23327439       5.86523102       3.62126490       23       0.00585286       0.00125938       0.00492808
O        3.35361984       1.91470022       7.10969658       24      -0.00076360       0.00593792      -0.00492808
O        5.15387218      -1.73488202       3.53270942       25      -0.00585286      -0.00125938      -0.00492808
O        6.27421763       3.21134454       1.68031790       26      -0.00076360       0.00129888       0.00760643
O        3.60792118       2.26866639       3.84088997       27       0.00585286       0.00363815      -0.00355470
O        0.68732339       4.25714960       6.84579377       28       0.00585286      -0.00489753      -0.00137338
O        2.23327439      -0.12680059       0.30818055       29      -0.00585286       0.00489753       0.00137338
O       -3.35361985       0.91900446       5.47365642       30       0.00076360      -0.00129888      -0.00760643
O        4.97722203       0.76664011       1.94422071       31       0.00656839       0.00075343       0.00405174
O        0.93627879       1.24740687       5.52120787       32       0.00147913      -0.00644388       0.00405174
O        3.35361984      -0.99569575       5.51793416       33      -0.00076360      -0.00723680      -0.00267835
O        2.05662424      -0.00189007       3.26880661       34       0.00656839      -0.00388562      -0.00137338
O        0.93627879      -2.03772066       6.89007151       35       0.00147913       0.00673085       0.00355470
O       -0.68732340       1.86168261       3.31308435       36      -0.00585286      -0.00363815       0.00355470
O       -0.93627879      -0.79031379       5.25730506       37      -0.00147913       0.00028697       0.00760643
O       -0.43302206       5.12604476       1.63604016       38       0.00076360       0.00723680       0.00267835
O        3.78457133       4.89509903       5.21302732       39      -0.00656839      -0.00313219       0.00267835
