40
Lattice="8.837986696186604 6.926962232521208e-10 3.5664798311986406e-15 -2.9459955660486146 8.332533766315821 -1.1997879995567295e-09 -2.9459955650689964 -4.166266882465214 7.216185920320984" Properties=species:S:1:pos:R:3:spacegroup_kinds:I:1:forces:R:3 spacegroup="P 1" unit_cell=conventional occupancy="_JSON {\"0\": {\"In\": 1}, \"1\": {\"In\": 1}, \"2\": {\"In\": 1}, \"3\": {\"In\": 1}, \"4\": {\"In\": 1}, \"5\": {\"In\": 1}, \"6\": {\"In\": 1}, \"7\": {\"In\": 1}, \"8\": {\"In\": 1}, \"9\": {\"In\": 1}, \"10\": {\"In\": 1}, \"11\": {\"In\": 1}, \"12\": {\"In\": 1}, \"13\": {\"In\": 1}, \"14\": {\"In\": 1}, \"15\": {\"In\": 1}, \"16\": {\"O\": 1}, \"17\": {\"O\": 1}, \"18\": {\"O\": 1}, \"19\": {\"O\": 1}, \"20\": {\"O\": 1}, \"21\": {\"O\": 1}, \"22\": {\"O\": 1}, \"23\": {\"O\": 1}, \"24\": {\"O\": 1}, \"25\": {\"O\": 1}, \"26\": {\"O\": 1}, \"27\": {\"O\": 1}, \"28\": {\"O\": 1}, \"29\": {\"O\": 1}, \"30\": {\"O\": 1}, \"31\": {\"O\": 1}, \"32\": {\"O\": 1}, \"33\": {\"O\": 1}, \"34\": {\"O\": 1}, \"35\": {\"O\": 1}, \"36\": {\"O\": 1}, \"37\": {\"O\": 1}, \"38\": {\"O\": 1}, \"39\": {\"O\": 1}}" n_minim_iter=1 energy=-45151.52365473366 stress="0.0001927268622868776 -1.1060099124838215e-12 -1.4797732338284142e-12 -1.1060099124838215e-12 0.000192726868832604 3.052448936648625e-12 -1.4797732338284142e-12 3.052448936648625e-12 0.0001927268655978558" free_energy=-45151.52365473366 pbc="T T T"
In      -4.21922856       2.98344513       5.65680034        0      -0.00041796       0.00029554      -0.00051189
In       7.16522412       1.18282176       1.55938557        1       0.00041796      -0.00029554       0.00051189
In       1.27323299      -0.90031168       5.16747853        2       0.00041796      -0.00029554       0.00051189
In      -1.47299778      -2.08313344       3.60809296        3      -0.00000000      -0.00000000      -0.00000000
In      -1.27323299       4.02501185       3.36343205        4      -0.00041796       0.00029554       0.00051189
In       4.61875814      -2.84219008       5.41213944        5      -0.00041796      -0.00059108       0.00000000
In      -1.27323299       1.32407680       5.41213944        6      -0.00041796      -0.00059108       0.00000000
In      -1.67276258       7.00845697       1.80404648        7       0.00041796       0.00059108      -0.00000000
In       4.21922856       0.14125504       3.85275386        8       0.00041796      -0.00029554      -0.00051189
In      -1.47299778       4.16626688      -0.00000000        9      -0.00000000      -0.00000000       0.00000000
In       4.21922856       6.39065536       0.24466090       10       0.00041796      -0.00029554      -0.00051189
In      -1.27323299      -2.22438848       6.97152502       11      -0.00041796       0.00029554       0.00051189
In       4.21922856       2.84219009       1.80404648       12       0.00041796       0.00059108      -0.00000000
In       1.67276257       5.06657857       2.04870738       13      -0.00041796       0.00029554      -0.00051189
In       4.41899335       0.00000000      -0.00000000       14      -0.00000000       0.00000000       0.00000000
In       1.47299778       2.08313344       3.60809296       15      -0.00000000      -0.00000000      -0.00000000
O        0.87025176       4.16706610       3.92516694       16       0.00238289       0.00235216       0.00846013
O       -2.07574380       3.39889468       5.25291031       17       0.00238289       0.00615061      -0.00626709
O       -0.43264803       2.23705052       0.04909751       18       0.00881078       0.00160540       0.00160544
O       -0.87025176      -0.76657299       1.96189133       19      -0.00238289       0.00850277       0.00219304
O        3.89642323       4.96118634       1.91279381       20       0.00500455      -0.00757587       0.00058760
O        1.99556789       2.90719858       1.64481735       21      -0.00500455      -0.00429681      -0.00626709
O        1.99556789       6.22025465       0.26797646       22      -0.00500455      -0.00327906       0.00685469
O       -2.25332746       5.91162130       3.65719047       23       0.00142334      -0.00884202       0.00160544
O        3.37864359       1.92921637       7.16708840       24      -0.00881078      -0.00160540      -0.00160544
O        5.19932303      -1.74535441       3.55899544       25      -0.00142334       0.00884202      -0.00160544
O        6.32463916       3.24417840       1.69529914       26      -0.00881078       0.00219305      -0.00058760
O        3.63866367       2.29454265       3.87606942       27       0.00142334       0.00581136       0.00685469
O        0.69266810       4.29263671       6.89911194       28       0.00142334       0.00303066      -0.00846013
O        2.25332746      -0.12636982       0.31707398       29      -0.00142334      -0.00303066       0.00846013
O       -3.37864360       0.92208849       5.52088678       30       0.00881078      -0.00219305       0.00058760
O        5.02173937       0.76737221       1.96327560       31      -0.00238289      -0.00615061       0.00626709
O        0.95042767       1.25906831       5.57136856       32       0.00500455       0.00429681       0.00626709
O        3.37864359      -1.00712788       5.56998429       33      -0.00881078      -0.00058765       0.00219304
O        2.07574380      -0.00079921       3.29101898       34      -0.00238289      -0.00235216      -0.00846013
O        0.95042767      -2.05398777       6.94820945       35       0.00500455       0.00327906      -0.00685469
O       -0.69266811       1.87172423       3.34011649       36      -0.00142334      -0.00581136      -0.00685469
O       -0.95042767      -0.79491946       5.30339210       37      -0.00500455       0.00757587      -0.00058760
O       -0.43264803       5.17339476       1.64620162       38       0.00881078       0.00058765      -0.00219304
O        3.81624733       4.93283988       5.25429458       39       0.00238289      -0.00850277      -0.00219304
