10
Lattice="6.035537292686359 -0.03323714496588165 -0.02294978155150838 3.2840447448917875 5.063977214873888 -0.022949781551507936 3.2840447448917884 1.7727378140866974 4.743605439720116" Properties=species:S:1:pos:R:3:spacegroup_kinds:I:1:forces:R:3 spacegroup="P 1" unit_cell=conventional occupancy="_JSON {\"0\": {\"In\": 1}, \"1\": {\"In\": 1}, \"2\": {\"In\": 1}, \"3\": {\"In\": 1}, \"4\": {\"O\": 1}, \"5\": {\"O\": 1}, \"6\": {\"O\": 1}, \"7\": {\"O\": 1}, \"8\": {\"O\": 1}, \"9\": {\"O\": 1}}" n_minim_iter=4 energy=-11287.377506702775 stress="0.04704900844599321 2.3986658131288505e-05 1.6562448037552786e-05 2.3986658131288505e-05 0.04701752058645454 8.940461182842956e-06 1.6562448037552786e-05 8.940461182842956e-06 0.04701074577663203" free_energy=-11287.377506702775 pbc="T T T"
In      10.77916570       5.81862799       4.01768086        0       0.00072066       0.00038902       0.00026861
In       8.12627448       4.38658885       3.02887796        1      -0.00072066      -0.00038902      -0.00026861
In       4.47735231       2.41688904       1.66882792        2       0.00072066       0.00038902       0.00026861
In       1.82446109       0.98484991       0.68002502        3      -0.00072066      -0.00038902      -0.00026861
O        6.16867535       2.34555189       0.20521885        4      -0.00000000       0.00202446      -0.00293194
O        7.25784679       5.24041080       1.15147669        5      -0.00169246       0.00313533       0.00000000
O        8.36354864       2.20774951       2.57702157        6       0.00169246      -0.00111087      -0.00293194
O        4.24007815       4.59572838       2.12068431        7      -0.00169246       0.00111087       0.00293194
O        6.43495145       4.45792600       4.49248703        8       0.00000000      -0.00202446       0.00293194
O        5.34578000       1.56306709       3.54622919        9       0.00169246      -0.00313533       0.00000000
