10
Lattice="6.255366264236522 0.05417116504589 0.03740442825248699 3.4777434868775954 5.199792481854558 0.03740442825248174 3.4777434868775954 1.877297012006696 4.849226420194754" Properties=species:S:1:pos:R:3:spacegroup_kinds:I:1:forces:R:3 spacegroup="P 1" unit_cell=conventional occupancy="_JSON {\"0\": {\"In\": 1}, \"1\": {\"In\": 1}, \"2\": {\"In\": 1}, \"3\": {\"In\": 1}, \"4\": {\"O\": 1}, \"5\": {\"O\": 1}, \"6\": {\"O\": 1}, \"7\": {\"O\": 1}, \"8\": {\"O\": 1}, \"9\": {\"O\": 1}}" n_minim_iter=5 energy=-11286.768948764819 stress="0.0755738179031294 4.207705165269401e-05 2.905361355920675e-05 4.207705165269401e-05 0.07551858235673595 1.5683234559509672e-05 2.905361355920675e-05 1.5683234559509672e-05 0.07550669808464631" free_energy=-11286.768948764819 pbc="T T T"
In      11.24548959       6.07035110       4.19149213        0      -0.00774702      -0.00418187      -0.00288752
In       8.57079028       4.62653990       3.19456079        1       0.00774702       0.00418187       0.00288752
In       4.64006297       2.50472077       1.72947450        2      -0.00774702      -0.00418187      -0.00288752
In       1.96536366       1.06090957       0.73254315        3       0.00774702       0.00418187       0.00288752
O        6.43039645       2.48554321       0.27120820        4      -0.00000000      -0.00093143       0.00134894
O        7.60442773       5.45617923       1.26841325        5       0.00077868      -0.00144252      -0.00000000
O        8.73410865       2.37780948       2.69582141        6      -0.00077868       0.00051109       0.00134894
O        4.47674460       4.75345119       2.22821387        7       0.00077868      -0.00051109      -0.00134894
O        6.78045680       4.64571746       4.65282708        8      -0.00000000       0.00093143      -0.00134894
O        5.60642552       1.67508144       3.65562203        9      -0.00077868       0.00144252       0.00000000
