10
Lattice="6.031159834228944 -0.037796445270381174 -0.026097914344604733 3.277831140021697 5.062819425458077 -0.02609791434460429 3.2778311400216973 1.7693836903853866 4.743638159907117" Properties=species:S:1:pos:R:3:spacegroup_kinds:I:1:forces:R:3 spacegroup="P 1" unit_cell=conventional occupancy="_JSON {\"0\": {\"In\": 1}, \"1\": {\"In\": 1}, \"2\": {\"In\": 1}, \"3\": {\"In\": 1}, \"4\": {\"O\": 1}, \"5\": {\"O\": 1}, \"6\": {\"O\": 1}, \"7\": {\"O\": 1}, \"8\": {\"O\": 1}, \"9\": {\"O\": 1}}" n_minim_iter=1 energy=-11287.373520329935 stress="0.0502478999875198 0.0007519527287032199 0.0005192127943208298 0.0007519527287032199 0.04926079369982376 0.00028027272010950894 0.0005192127943208298 0.00028027272010950894 0.04904841159551091" free_energy=-11287.373520329935 pbc="T T T"
In      10.78014589       5.81915709       4.01804620        0      -0.09220319      -0.04977158      -0.03436657
In       8.10008729       4.37245292       3.01911730        1       0.09220319       0.04977158       0.03436657
In       4.48673484       2.42195376       1.67232504        2      -0.09220319      -0.04977158      -0.03436657
In       1.80667623       0.97524959       0.67339613        3       0.09220319       0.04977158       0.03436657
O        6.16228545       2.34286603       0.19938284        4       0.00000000      -0.00743001       0.01076055
O        7.24679380       5.23816754       1.14676267        5       0.00621152      -0.01150702      -0.00000000
O        8.35560824       2.20050350       2.57120192        6      -0.00621152       0.00407701       0.01076055
O        4.23121388       4.59390318       2.12024041        7       0.00621152      -0.00407701      -0.01076055
O        6.42453667       4.45154065       4.49205949        8       0.00000000       0.00743001      -0.01076055
O        5.34002833       1.55623914       3.54467967        9      -0.00621152       0.01150702       0.00000000
10
Lattice="6.022096840878275 -0.04725387486850772 -0.0326281365865745 3.264951619286812 5.0604322160584845 -0.03262813658657406 3.2649516192868124 1.7624312840670626 4.743719508735886" Properties=species:S:1:pos:R:3:spacegroup_kinds:I:1:forces:R:3 spacegroup="P 1" unit_cell=conventional occupancy="_JSON {\"0\": {\"In\": 1}, \"1\": {\"In\": 1}, \"2\": {\"In\": 1}, \"3\": {\"In\": 1}, \"4\": {\"O\": 1}, \"5\": {\"O\": 1}, \"6\": {\"O\": 1}, \"7\": {\"O\": 1}, \"8\": {\"O\": 1}, \"9\": {\"O\": 1}}" n_minim_iter=2 energy=-11287.374219879832 stress="0.049240570580542875 -0.0006036869964830286 -0.0004168373884289192 -0.0006036869964830286 0.05003304490654899 -0.00022501015028861322 -0.0004168373884289192 -0.00022501015028861322 0.05020355071964066" free_energy=-11287.374219879832 pbc="T T T"
In      10.74900857       5.80234907       4.00644050        0      -0.06821844      -0.03682453      -0.02542682
In       8.07899156       4.36106538       3.01125436        1       0.06821844       0.03682453       0.02542682
In       4.47300853       2.41454426       1.66720888        2      -0.06821844      -0.03682453      -0.02542682
In       1.80299152       0.97326057       0.67202274        3       0.06821844       0.03682453       0.02542682
O        6.14904845       2.33425101       0.19169559        4       0.00000000      -0.00737813       0.01068541
O        7.22643740       5.22880500       1.13698767        5       0.00616815      -0.01142667       0.00000000
O        8.33661111       2.18715324       2.56355535        6      -0.00616815       0.00404854       0.01068541
O        4.21538898       4.58845640       2.11490789        7       0.00616815      -0.00404854      -0.01068541
O        6.40295164       4.44135863       4.48676765        8      -0.00000000       0.00737813      -0.01068541
O        5.32556269       1.54680464       3.54147557        9      -0.00616815       0.01142667       0.00000000
10
Lattice="6.032630873489321 -0.03626367062725501 -0.025039554992032607 3.279919738643353 5.063208154682326 -0.02503955499203216 3.279919738643355 1.7705111225742514 4.743626688705241" Properties=species:S:1:pos:R:3:spacegroup_kinds:I:1:forces:R:3 spacegroup="P 1" unit_cell=conventional occupancy="_JSON {\"0\": {\"In\": 1}, \"1\": {\"In\": 1}, \"2\": {\"In\": 1}, \"3\": {\"In\": 1}, \"4\": {\"O\": 1}, \"5\": {\"O\": 1}, \"6\": {\"O\": 1}, \"7\": {\"O\": 1}, \"8\": {\"O\": 1}, \"9\": {\"O\": 1}}" n_minim_iter=3 energy=-11287.376905953386 stress="0.048202901843221 0.0001709208489656163 0.00011801844530593498 0.0001709208489656163 0.04797852996245242 6.370673279812127e-05 0.00011801844530593498 6.370673279812127e-05 0.04793025494781237" free_energy=-11287.376905953386 pbc="T T T"
In      10.77578896       5.81680521       4.01642226        0      -0.03622475      -0.01955423      -0.01350192
In       8.11291657       4.37937821       3.02389911        1       0.03622475       0.01955423       0.01350192
In       4.47955379       2.41807741       1.66964847        2      -0.03622475      -0.01955423      -0.01350192
In       1.81668140       0.98065041       0.67712533        3       0.03622475       0.01955423       0.01350192
O        6.16443303       2.34337933       0.20190879        4       0.00000000      -0.00173837       0.00251761
O        7.25083449       5.23831807       1.14834734        5       0.00145329      -0.00269226      -0.00000000
O        8.35795130       2.20315297       2.57372213        6      -0.00145329       0.00095388       0.00251761
O        4.23451906       4.59430265       2.11982545        7       0.00145329      -0.00095388      -0.00251761
O        6.42803733       4.45407629       4.49163880        8      -0.00000000       0.00173837      -0.00251761
O        5.34163587       1.55913755       3.54520024        9      -0.00145329       0.00269226      -0.00000000
10
Lattice="6.035537292686359 -0.03323714496588165 -0.02294978155150838 3.2840447448917875 5.063977214873888 -0.022949781551507936 3.2840447448917884 1.7727378140866974 4.743605439720116" Properties=species:S:1:pos:R:3:spacegroup_kinds:I:1:forces:R:3 spacegroup="P 1" unit_cell=conventional occupancy="_JSON {\"0\": {\"In\": 1}, \"1\": {\"In\": 1}, \"2\": {\"In\": 1}, \"3\": {\"In\": 1}, \"4\": {\"O\": 1}, \"5\": {\"O\": 1}, \"6\": {\"O\": 1}, \"7\": {\"O\": 1}, \"8\": {\"O\": 1}, \"9\": {\"O\": 1}}" n_minim_iter=4 energy=-11287.377506702775 stress="0.04704900844599321 2.3986658131288505e-05 1.6562448037552786e-05 2.3986658131288505e-05 0.04701752058645454 8.940461182842956e-06 1.6562448037552786e-05 8.940461182842956e-06 0.04701074577663203" free_energy=-11287.377506702775 pbc="T T T"
In      10.77916570       5.81862799       4.01768086        0       0.00072066       0.00038902       0.00026861
In       8.12627448       4.38658885       3.02887796        1      -0.00072066      -0.00038902      -0.00026861
In       4.47735231       2.41688904       1.66882792        2       0.00072066       0.00038902       0.00026861
In       1.82446109       0.98484991       0.68002502        3      -0.00072066      -0.00038902      -0.00026861
O        6.16867535       2.34555189       0.20521885        4      -0.00000000       0.00202446      -0.00293194
O        7.25784679       5.24041080       1.15147669        5      -0.00169246       0.00313533       0.00000000
O        8.36354864       2.20774951       2.57702157        6       0.00169246      -0.00111087      -0.00293194
O        4.24007815       4.59572838       2.12068431        7      -0.00169246       0.00111087       0.00293194
O        6.43495145       4.45792600       4.49248703        8       0.00000000      -0.00202446       0.00293194
O        5.34578000       1.56306709       3.54622919        9       0.00169246      -0.00313533       0.00000000
