10
Lattice="5.961226645757192 -0.013459007946003076 -0.009293255861108962 3.2598034906984523 4.991000447706913 -0.009293255861109406 3.2598034906984514 1.7596523078565325 4.670524123593658" Properties=species:S:1:pos:R:3:spacegroup_kinds:I:1:forces:R:3 spacegroup="P 1" unit_cell=conventional occupancy="_JSON {\"0\": {\"In\": 1}, \"1\": {\"In\": 1}, \"2\": {\"In\": 1}, \"3\": {\"In\": 1}, \"4\": {\"O\": 1}, \"5\": {\"O\": 1}, \"6\": {\"O\": 1}, \"7\": {\"O\": 1}, \"8\": {\"O\": 1}, \"9\": {\"O\": 1}}" n_minim_iter=1 energy=-11287.609265278967 stress="0.025533137240854244 0.0020983879414082224 0.0014489073886098439 0.0020983879414082224 0.022778533320367805 0.0007821248233208765 0.0014489073886098439 0.0007821248233208765 0.022185863023593568" free_energy=-11287.609265278967 pbc="T T T"
In      10.69949402       5.77562096       3.98798511        0      -0.05210718      -0.02812762      -0.01942173
In       8.02175643       4.33016968       2.98992131        1       0.05210718       0.02812762       0.01942173
In       4.45907720       2.40702408       1.66201630        2      -0.05210718      -0.02812762      -0.01942173
In       1.78133962       0.96157280       0.66395251        3       0.05210718       0.02812762       0.01942173
O        6.10082173       2.33362836       0.20819619        4       0.00000000      -0.02771803       0.04014279
O        7.18225454       5.18912272       1.15369115        5       0.02317241      -0.04292752      -0.00000000
O        8.27919242       2.19740096       2.54345825        6      -0.02317241       0.01520949       0.04014279
O        4.20164121       4.53979280       2.10847937        7       0.02317241      -0.01520949      -0.04014279
O        6.38001190       4.40356540       4.44374143        8       0.00000000       0.02771803      -0.04014279
O        5.29857910       1.54807104       3.49824647        9      -0.02317241       0.04292752      -0.00000000
10
Lattice="5.948113945396433 -0.02706155389712903 -0.01868562269776556 3.241236469321026 4.987502178953128 -0.018685622697765955 3.2412364693210254 1.749629770574749 4.6705805638567455" Properties=species:S:1:pos:R:3:spacegroup_kinds:I:1:forces:R:3 spacegroup="P 1" unit_cell=conventional occupancy="_JSON {\"0\": {\"In\": 1}, \"1\": {\"In\": 1}, \"2\": {\"In\": 1}, \"3\": {\"In\": 1}, \"4\": {\"O\": 1}, \"5\": {\"O\": 1}, \"6\": {\"O\": 1}, \"7\": {\"O\": 1}, \"8\": {\"O\": 1}, \"9\": {\"O\": 1}}" n_minim_iter=2 energy=-11287.610932772524 stress="0.022313075041310484 -9.824121784983131e-05 -6.783418107947273e-05 -9.824121784983131e-05 0.022442038632561227 -3.661710869083883e-05 -6.783418107947273e-05 -3.661710869083883e-05 0.022469785955153317" free_energy=-11287.610932772524 pbc="T T T"
In      10.65601351       5.75215004       3.97177877        0      -0.01836090      -0.00991127      -0.00684359
In       7.98986683       4.31295557       2.97803521        1       0.01836090       0.00991127       0.00684359
In       4.44072007       2.39711484       1.65517411        2      -0.01836090      -0.00991127      -0.00684359
In       1.77457338       0.95792037       0.66143055        3       0.01836090       0.00991127       0.00684359
O        6.08170370       2.32115397       0.19721366        4       0.00000000      -0.02638848       0.03821726
O        7.15292693       5.17550703       1.13961671        5       0.02206090      -0.04086842       0.00000000
O        8.25171694       2.17819975       2.53250394        6      -0.02206090       0.01447994       0.03821726
O        4.17886995       4.53187066       2.10070538        7       0.02206090      -0.01447994      -0.03821726
O        6.34888320       4.38891644       4.43599566        8       0.00000000       0.02638848      -0.03821726
O        5.27765997       1.53456338       3.49359261        9      -0.02206090       0.04086842       0.00000000
10
Lattice="5.949363791533935 -0.02576283919848204 -0.01778887844785247 3.2430080191635073 4.987834423428643 -0.01778887844785284 3.243008019163506 1.7505860588227058 4.670573533345964" Properties=species:S:1:pos:R:3:spacegroup_kinds:I:1:forces:R:3 spacegroup="P 1" unit_cell=conventional occupancy="_JSON {\"0\": {\"In\": 1}, \"1\": {\"In\": 1}, \"2\": {\"In\": 1}, \"3\": {\"In\": 1}, \"4\": {\"O\": 1}, \"5\": {\"O\": 1}, \"6\": {\"O\": 1}, \"7\": {\"O\": 1}, \"8\": {\"O\": 1}, \"9\": {\"O\": 1}}" n_minim_iter=3 energy=-11287.611637351738 stress="0.02203043742268414 -4.112034921292067e-05 -2.8393022470383082e-05 -4.112034921292067e-05 0.02208441708527699 -1.5326644325773307e-05 -2.8393022470383082e-05 -1.5326644325773307e-05 0.022096031147584988" free_energy=-11287.611637351738 pbc="T T T"
In      10.65868475       5.75359198       3.97277441        0      -0.01754295      -0.00946974      -0.00653872
In       7.99438500       4.31539449       2.97971926        1       0.01754295       0.00946974       0.00653872
In       4.44099483       2.39726316       1.65527652        2      -0.01754295      -0.00946974      -0.00653872
In       1.77669509       0.95906567       0.66222137        3       0.01754295       0.00946974       0.00653872
O        6.08352686       2.32035766       0.20113909        4       0.00000000      -0.00321812       0.00466066
O        7.15738518       5.17372865       1.14096007        5       0.00269037      -0.00498397       0.00000000
O        8.25267655       2.18112225       2.53642586        6      -0.00269037       0.00176585       0.00466066
O        4.18270329       4.53153541       2.09856992        7       0.00269037      -0.00176585      -0.00466066
O        6.35185298       4.39230000       4.43385669        8       0.00000000       0.00321812      -0.00466066
O        5.27799466       1.53892901       3.49403571        9      -0.00269037       0.00498397      -0.00000000
10
Lattice="5.950012791151881 -0.025088645774472933 -0.017323357362321358 3.2439277684955243 4.988007045684822 -0.017323357362321712 3.2439277684955226 1.751082542441841 4.670570020465081" Properties=species:S:1:pos:R:3:spacegroup_kinds:I:1:forces:R:3 spacegroup="P 1" unit_cell=conventional occupancy="_JSON {\"0\": {\"In\": 1}, \"1\": {\"In\": 1}, \"2\": {\"In\": 1}, \"3\": {\"In\": 1}, \"4\": {\"O\": 1}, \"5\": {\"O\": 1}, \"6\": {\"O\": 1}, \"7\": {\"O\": 1}, \"8\": {\"O\": 1}, \"9\": {\"O\": 1}}" n_minim_iter=4 energy=-11287.611704696092 stress="0.02199943746718078 -7.1005994300452266e-06 -4.902862539515753e-06 -7.1005994300452266e-06 0.022008758593292217 -2.646580867993175e-06 -4.902862539515753e-06 -2.646580867993175e-06 0.022010764090665054" free_energy=-11287.611704696092 pbc="T T T"
In      10.66008829       5.75434962       3.97329755        0      -0.01522269      -0.00821726      -0.00567390
In       7.99671421       4.31665181       2.98058741        1       0.01522269       0.00821726       0.00567390
In       4.44115413       2.39734915       1.65533590        2      -0.01522269      -0.00821726      -0.00567390
In       1.77778005       0.95965134       0.66262576        3       0.01522269       0.00821726       0.00567390
O        6.08447348       2.32036122       0.20257314        4       0.00000000       0.00371285      -0.00537716
O        7.15935127       5.17345123       1.14165747        5      -0.00310396       0.00575018       0.00000000
O        8.25352346       2.18241070       2.53785815        6       0.00310396      -0.00203732      -0.00537716
O        4.18434487       4.53159025       2.09806517        7      -0.00310396       0.00203732       0.00537716
O        6.35339486       4.39363973       4.43335018        8      -0.00000000      -0.00371285       0.00537716
O        5.27851707       1.54054972       3.49426584        9       0.00310396      -0.00575018       0.00000000
10
Lattice="5.95122549692926 -0.023829196202098297 -0.016453725130346892 3.245646112769723 4.98832978626668 -0.01645372513034723 3.2456461127697223 1.7520101101545618 4.670563708541215" Properties=species:S:1:pos:R:3:spacegroup_kinds:I:1:forces:R:3 spacegroup="P 1" unit_cell=conventional occupancy="_JSON {\"0\": {\"In\": 1}, \"1\": {\"In\": 1}, \"2\": {\"In\": 1}, \"3\": {\"In\": 1}, \"4\": {\"O\": 1}, \"5\": {\"O\": 1}, \"6\": {\"O\": 1}, \"7\": {\"O\": 1}, \"8\": {\"O\": 1}, \"9\": {\"O\": 1}}" n_minim_iter=5 energy=-11287.611764852696 stress="0.021940422041776587 -2.3409299263006876e-06 -1.6163793091293975e-06 -2.3409299263006876e-06 0.021943495034933706 -8.725245362459087e-07 -1.6163793091293975e-06 -8.725245362459087e-07 0.02194415621105029" free_energy=-11287.611764852696 pbc="T T T"
In      10.66235616       5.75557382       3.97414284        0      -0.00581423      -0.00313854      -0.00216712
In       8.00142043       4.31919224       2.98234155        1       0.00581423       0.00313854       0.00216712
In       4.44109730       2.39731847       1.65531472        2      -0.00581423      -0.00313854      -0.00216712
In       1.78016157       0.96093689       0.66351342        3       0.00581423       0.00313854       0.00216712
O        6.08624218       2.32107407       0.20422950        4       0.00000000       0.00744781      -0.01078633
O        7.16243420       5.17402677       1.14296034        5      -0.00622641       0.01153458       0.00000000
O        8.25569629       2.18443033       2.53951136        6       0.00622641      -0.00408678      -0.01078633
O        4.18682145       4.53208038       2.09814491        7      -0.00622641       0.00408678       0.01078633
O        6.35627555       4.39543664       4.43342676        8       0.00000000      -0.00744781       0.01078633
O        5.28008354       1.54248394       3.49469592        9       0.00622641      -0.01153458       0.00000000
10
Lattice="5.951799621434683 -0.023233093108081585 -0.016042124320352374 3.2464594925865904 4.988482662425509 -0.016042124320352687 3.2464594925865895 1.7524491751705966 4.6705608347945216" Properties=species:S:1:pos:R:3:spacegroup_kinds:I:1:forces:R:3 spacegroup="P 1" unit_cell=conventional occupancy="_JSON {\"0\": {\"In\": 1}, \"1\": {\"In\": 1}, \"2\": {\"In\": 1}, \"3\": {\"In\": 1}, \"4\": {\"O\": 1}, \"5\": {\"O\": 1}, \"6\": {\"O\": 1}, \"7\": {\"O\": 1}, \"8\": {\"O\": 1}, \"9\": {\"O\": 1}}" n_minim_iter=6 energy=-11287.611814074846 stress="0.022006714874700118 7.500094045885958e-07 5.178722146266794e-07 7.500094045885958e-07 0.022005730316653267 2.795475732062958e-07 5.178722146266794e-07 2.795475732062958e-07 0.022005518483730186" free_energy=-11287.611814074846 pbc="T T T"
In      10.66357664       5.75623264       3.97459775        0      -0.00008195      -0.00004424      -0.00003055
In       8.00350128       4.32031549       2.98311713        1       0.00008195       0.00004424       0.00003055
In       4.44121734       2.39738327       1.65535946        2      -0.00008195      -0.00004424      -0.00003055
In       1.78114197       0.96146611       0.66387884        3       0.00008195       0.00004424       0.00003055
O        6.08707947       2.32216166       0.20392707        4      -0.00000000      -0.00003384       0.00004901
O        7.16326641       5.17546106       1.14357702        5       0.00002829      -0.00005241      -0.00000000
O        8.25735202       2.18497466       2.53920749        6      -0.00002829       0.00001857       0.00004901
O        4.18736660       4.53272409       2.09926910        7       0.00002829      -0.00001857      -0.00004901
O        6.35763915       4.39553709       4.43454952        8      -0.00000000       0.00003384      -0.00004901
O        5.28145221       1.54223769       3.49489957        9      -0.00002829       0.00005241      -0.00000000
