10
Lattice="6.108888816918833 -0.004485776480363144 -0.0030973656256858446 3.3483306160588584 5.109522950846732 -0.003097365625685189 3.3483306160588593 1.807439532114941 4.779162763147068" Properties=species:S:1:pos:R:3:spacegroup_kinds:I:1:forces:R:3 spacegroup="P 1" unit_cell=conventional occupancy="_JSON {\"0\": {\"In\": 1}, \"1\": {\"In\": 1}, \"2\": {\"In\": 1}, \"3\": {\"In\": 1}, \"4\": {\"O\": 1}, \"5\": {\"O\": 1}, \"6\": {\"O\": 1}, \"7\": {\"O\": 1}, \"8\": {\"O\": 1}, \"9\": {\"O\": 1}}" n_minim_iter=7 energy=-11287.202693630355 stress="0.057080517600785245 1.5093666375991673e-06 1.0421951054880183e-06 1.5093666375991673e-06 0.0570785362221653 5.625817304096492e-07 1.0421951054880183e-06 5.625817304096492e-07 0.057078109914432726" free_energy=-11287.202693630355 pbc="T T T"
In      10.93164967       5.90093931       4.07451567        0      -0.00016061      -0.00008670      -0.00005986
In       8.27667542       4.46777576       3.08493638        1       0.00016061       0.00008670       0.00005986
In       4.52887464       2.44470096       1.68803166        2      -0.00016061      -0.00008670      -0.00005986
In       1.87390039       1.01153740       0.69845236        3       0.00016061       0.00008670       0.00005986
O        6.25583193       2.39109117       0.22829230        4       0.00000000       0.00003516      -0.00005092
O        7.37387428       5.31087058       1.19014464        5      -0.00002939       0.00005445      -0.00000000
O        8.48612018       2.26457813       2.61787368        6       0.00002939      -0.00001929      -0.00005092
O        4.31942987       4.64789859       2.15509436        7      -0.00002939       0.00001929       0.00005092
O        6.54971813       4.52138555       4.54467574        8       0.00000000      -0.00003516       0.00005092
O        5.43167578       1.60160614       3.58282339        9       0.00002939      -0.00005445      -0.00000000
