10
Lattice="6.03115983422895 -0.03779644527038572 -0.026097914344606166 3.2778311400217013 5.0628194254580725 -0.026097914344602614 3.2778311400217013 1.7693836903853806 4.743638159907119" Properties=species:S:1:pos:R:3:spacegroup_kinds:I:1:forces:R:3 spacegroup="P 1" unit_cell=conventional occupancy="_JSON {\"0\": {\"In\": 1}, \"1\": {\"In\": 1}, \"2\": {\"In\": 1}, \"3\": {\"In\": 1}, \"4\": {\"O\": 1}, \"5\": {\"O\": 1}, \"6\": {\"O\": 1}, \"7\": {\"O\": 1}, \"8\": {\"O\": 1}, \"9\": {\"O\": 1}}" n_minim_iter=5 energy=-11287.515702140496 stress="0.035713918967323656 -9.915552231157577e-06 -6.846549994888811e-06 -9.915552231157577e-06 0.03572693534923361 -3.6957883023883044e-06 -6.846549994888811e-06 -3.6957883023883044e-06 0.03572973590344237" free_energy=-11287.515702140496 pbc="T T T"
In      10.78014589       5.81915709       4.01804620        0      -0.00234937      -0.00126820      -0.00087567
In       8.10008729       4.37245292       3.01911730        1       0.00234937       0.00126820       0.00087567
In       4.48673484       2.42195376       1.67232504        2      -0.00234937      -0.00126820      -0.00087567
In       1.80667623       0.97524959       0.67339613        3       0.00234937       0.00126820       0.00087567
O        6.16228545       2.34286603       0.19938284        4      -0.00000000       0.00563985      -0.00816795
O        7.24679380       5.23816754       1.14676267        5      -0.00471495       0.00873457       0.00000000
O        8.35560824       2.20050350       2.57120192        6       0.00471495      -0.00309471      -0.00816795
O        4.23121388       4.59390318       2.12024041        7      -0.00471495       0.00309471       0.00816795
O        6.42453667       4.45154065       4.49205949        8      -0.00000000      -0.00563985       0.00816795
O        5.34002833       1.55623914       3.54467967        9       0.00471495      -0.00873457      -0.00000000
