10
Lattice="6.319717994312768 0.0751529536880425 0.051892058474385244 3.5305955668982936 5.242077683236551 0.051892058474375904 3.530595566898296 1.9058267331536405 4.883635498889783" Properties=species:S:1:pos:R:3:spacegroup_kinds:I:1:forces:R:3 spacegroup="P 1" unit_cell=conventional occupancy="_JSON {\"0\": {\"In\": 1}, \"1\": {\"In\": 1}, \"2\": {\"In\": 1}, \"3\": {\"In\": 1}, \"4\": {\"O\": 1}, \"5\": {\"O\": 1}, \"6\": {\"O\": 1}, \"7\": {\"O\": 1}, \"8\": {\"O\": 1}, \"9\": {\"O\": 1}}" n_minim_iter=5 energy=-11286.498446014368 stress="0.08815830718159855 3.90425849295049e-05 2.6958359986176907e-05 3.90425849295049e-05 0.0881070550508155 1.4552205936805077e-05 2.6958359986176907e-05 1.4552205936805077e-05 0.08809602782952325" free_energy=-11286.498446014368 pbc="T T T"
In      11.37708282       6.14138555       4.24054042        0      -0.00698543      -0.00377076      -0.00260365
In       8.69428089       4.69320052       3.24058901        1       0.00698543       0.00377076       0.00260365
In       4.68662825       2.52985686       1.74683061        2      -0.00698543      -0.00377076      -0.00260365
In       2.00382632       1.08167183       0.74687920        3       0.00698543       0.00377076       0.00260365
O        6.50508628       2.52648104       0.28343943        4       0.00000000       0.00019267      -0.00027903
O        7.69927544       5.52237384       1.29874696        5      -0.00016107       0.00029839      -0.00000000
O        8.84149269       2.42140023       2.72525718        6       0.00016107      -0.00010572      -0.00027903
O        4.53941644       4.80165715       2.26216244        7      -0.00016107       0.00010572       0.00027903
O        6.87582285       4.69657634       4.70398019        8       0.00000000      -0.00019267       0.00027903
O        5.68163370       1.70068354       3.68867266        9       0.00016107      -0.00029839       0.00000000
