10
Lattice="5.123203438972725 -0.23242835597165748 -0.16048851372165793 2.616902383188725 4.410562133631353 -0.1604885137216645 2.6169023831887226 1.41261224216515 4.1813085931254275" Properties=species:S:1:pos:R:3:spacegroup_kinds:I:1:forces:R:3 spacegroup="P 1" unit_cell=conventional occupancy="_JSON {\"0\": {\"In\": 1}, \"1\": {\"In\": 1}, \"2\": {\"In\": 1}, \"3\": {\"In\": 1}, \"4\": {\"O\": 1}, \"5\": {\"O\": 1}, \"6\": {\"O\": 1}, \"7\": {\"O\": 1}, \"8\": {\"O\": 1}, \"9\": {\"O\": 1}}" n_minim_iter=7 energy=-11284.808709933977 stress="-0.3768414314210198 -1.0131648124056723e-05 -6.99576231798815e-06 -1.0131648124056723e-05 -0.37682813136026455 -3.776332214230102e-06 -6.99576231798815e-06 -3.776332214230102e-06 -0.3768252697683196" free_energy=-11284.808709933977 pbc="T T T"
In       8.98525017       4.85026667       3.34904098        0      -0.00004174      -0.00002253      -0.00001556
In       6.55026212       3.53585236       2.44145637        1       0.00004174       0.00002253       0.00001556
In       3.80674607       2.05489366       1.41887519        2      -0.00004174      -0.00002253      -0.00001556
In       1.37175802       0.74047935       0.51129059        3       0.00004174       0.00002253       0.00001556
O        5.15085376       1.92079382      -0.04106218        4      -0.00000000       0.00000156      -0.00000227
O        5.92482900       4.47688456       0.80459438        5      -0.00000131       0.00000242       0.00000000
O        6.99378091       1.63696878       2.04959212        6       0.00000131      -0.00000086      -0.00000227
O        3.36322728       3.95377724       1.81073944        7      -0.00000131       0.00000086       0.00000227
O        5.20615443       3.66995220       3.90139374        8      -0.00000000      -0.00000156       0.00000227
O        4.43217920       1.11386146       3.05573719        9       0.00000131      -0.00000242      -0.00000000
