10
Lattice="5.850275221543727 0.022419673057136394 0.01548046920533577 3.228916776601757 4.878557087841469 0.015480469205330648 3.2289167766017552 1.7429795612024992 4.55659754131144" Properties=species:S:1:pos:R:3:spacegroup_kinds:I:1:forces:R:3 spacegroup="P 1" unit_cell=conventional occupancy="_JSON {\"0\": {\"In\": 1}, \"1\": {\"In\": 1}, \"2\": {\"In\": 1}, \"3\": {\"In\": 1}, \"4\": {\"O\": 1}, \"5\": {\"O\": 1}, \"6\": {\"O\": 1}, \"7\": {\"O\": 1}, \"8\": {\"O\": 1}, \"9\": {\"O\": 1}}" n_minim_iter=5 energy=-11287.66537750264 stress="-0.011813740045790744 -0.00019810502431684133 -0.00013678873727811987 -0.00019810502431684133 -0.011553682853607054 -7.383899618755342e-05 -0.00013678873727811987 -7.383899618755342e-05 -0.011497729918781441" free_energy=-11287.66537750264 pbc="T T T"
In      10.54641646       5.69298920       3.93092904        0      -0.00667183      -0.00360148      -0.00248677
In       7.91574671       4.27294529       2.95040868        1       0.00667183       0.00360148       0.00248677
In       4.39236207       2.37101104       1.63714980        2      -0.00667183      -0.00360148      -0.00248677
In       1.76169232       0.95096713       0.65662944        3       0.00667183       0.00360148       0.00248677
O        6.00216481       2.31288078       0.22675889        4       0.00000000      -0.00273946       0.00396743
O        7.08100997       5.10371546       1.16237009        5       0.00229020      -0.00424265       0.00000000
O        8.15223643       2.19213257       2.50505766        6      -0.00229020       0.00150320       0.00396743
O        4.15587236       4.45182376       2.08250082        7       0.00229020      -0.00150320      -0.00396743
O        6.30594398       4.33107555       4.36079959        8       0.00000000       0.00273946      -0.00396743
O        5.22709882       1.54024087       3.42518839        9      -0.00229020       0.00424265      -0.00000000
