10
Lattice="5.799839304727547 0.02222639039563157 0.015347010243569227 3.201079901961852 4.836498468349644 0.015347010243564151 3.20107990196185 1.7279531276020104 4.517314573270536" Properties=species:S:1:pos:R:3:spacegroup_kinds:I:1:forces:R:3 spacegroup="P 1" unit_cell=conventional occupancy="_JSON {\"0\": {\"In\": 1}, \"1\": {\"In\": 1}, \"2\": {\"In\": 1}, \"3\": {\"In\": 1}, \"4\": {\"O\": 1}, \"5\": {\"O\": 1}, \"6\": {\"O\": 1}, \"7\": {\"O\": 1}, \"8\": {\"O\": 1}, \"9\": {\"O\": 1}}" n_minim_iter=5 energy=-11287.66537750264 stress="-0.011813740045790744 -0.00019810502431684133 -0.00013678873727811987 -0.00019810502431684133 -0.011553682853607054 -7.383899618755342e-05 -0.00013678873727811987 -7.383899618755342e-05 -0.011497729918781441" free_energy=-11287.66537750264 pbc="T T T"
In      10.45549455       5.64390927       3.89704004        0      -0.00667183      -0.00360148      -0.00248677
In       7.84750412       4.23610772       2.92497286        1       0.00667183       0.00360148       0.00248677
In       4.35449500       2.35057027       1.62303574        2      -0.00667183      -0.00360148      -0.00248677
In       1.74650457       0.94276873       0.65096856        3       0.00667183       0.00360148       0.00248677
O        5.95041943       2.29294116       0.22480398        4       0.00000000      -0.00273946       0.00396743
O        7.01996374       5.05971573       1.15234916        5       0.00229020      -0.00424265       0.00000000
O        8.08195503       2.17323393       2.48346127        6      -0.00229020       0.00150320       0.00396743
O        4.12004409       4.41344406       2.06454733        7       0.00229020      -0.00150320      -0.00396743
O        6.25157968       4.29373683       4.32320462        8       0.00000000       0.00273946      -0.00396743
O        5.18203538       1.52696227       3.39565944        9      -0.00229020       0.00424265      -0.00000000
