1
Lattice="3.43062895015736 -1.6865377294056514e-10 -2.306651575896046e-10 0.2374330981691311 3.4224027404079136 -6.91995464878281e-10 -1.8340310240058861 -1.7112013696573338 2.3403707119011234" Properties=species:S:1:pos:R:3:spacegroup_kinds:I:1:forces:R:3 spacegroup="P 1" unit_cell=conventional occupancy="_JSON {\"0\": {\"In\": 1}}" n_minim_iter=1 energy=-1969.4979326504802 stress="-0.027746643318846714 -0.03503449071172579 9.48043682935944e-12 -0.03503449071172579 -0.022885527717125285 8.411601190634259e-12 9.48043682935944e-12 8.411601190634259e-12 0.009802615350617211" free_energy=-1969.4979326504802 pbc="T T T"
In       0.00000000       0.00000000       0.00000000        0      -0.00000000      -0.00000000       0.00000000
1
Lattice="3.8673330151204164 0.5297114202853483 -3.6466178998874173e-10 0.796098533582587 3.8213984303457167 -8.083724050466474e-10 -2.33171577420015 -2.1755549248708923 2.2509822646651965" Properties=species:S:1:pos:R:3:spacegroup_kinds:I:1:forces:R:3 spacegroup="P 1" unit_cell=conventional occupancy="_JSON {\"0\": {\"In\": 1}}" n_minim_iter=2 energy=-1970.0687680289857 stress="0.03278945255796618 -0.031008808390076525 8.450707621519605e-12 -0.031008808390076525 0.037091995543190016 7.72567833382944e-12 8.450707621519605e-12 7.72567833382944e-12 0.06602406632255671" free_energy=-1970.0687680289857 pbc="T T T"
In       0.00000000       0.00000000       0.00000000        0      -0.00000000       0.00000000      -0.00000000
1
Lattice="3.9653860663314235 0.6749972983627948 -3.999532388442206e-10 0.9478222654655449 3.909161158220545 -8.359094088691203e-10 -2.456604165749779 -2.2920792278547997 2.211645720704339" Properties=species:S:1:pos:R:3:spacegroup_kinds:I:1:forces:R:3 spacegroup="P 1" unit_cell=conventional occupancy="_JSON {\"0\": {\"In\": 1}}" n_minim_iter=3 energy=-1970.1215185283068 stress="0.034369105425402384 -0.014572656712178467 3.785772028090298e-12 -0.014572656712178467 0.0363910948268334 3.7866516970300395e-12 3.785772028090298e-12 3.7866516970300395e-12 0.04998778419877956" free_energy=-1970.1215185283068 pbc="T T T"
In       0.00000000       0.00000000       0.00000000        0       0.00000000      -0.00000000       0.00000000
1
Lattice="3.934647645410274 0.712684264021429 -4.053330985096855e-10 0.9832914630377398 3.875888137244601 -8.317235953371357e-10 -2.458969554078563 -2.2942862002057307 2.1631205508192486" Properties=species:S:1:pos:R:3:spacegroup_kinds:I:1:forces:R:3 spacegroup="P 1" unit_cell=conventional occupancy="_JSON {\"0\": {\"In\": 1}}" n_minim_iter=4 energy=-1970.150073492662 stress="-0.004158279195143575 0.009249551359064101 -2.414835371121186e-12 0.009249551359064101 -0.005441675571332324 -2.425288074790166e-12 -2.414835371121186e-12 -2.425288074790166e-12 -0.01407176129372358" free_energy=-1970.150073492662 pbc="T T T"
In       0.00000000       0.00000000       0.00000000        0      -0.00000000      -0.00000000      -0.00000000
1
Lattice="3.902368626489687 0.6617343009860146 -3.930981676964807e-10 0.930229647483264 3.8472127553666113 -8.224913937576781e-10 -2.416299136840007 -2.254473527746019 2.1783527666819875" Properties=species:S:1:pos:R:3:spacegroup_kinds:I:1:forces:R:3 spacegroup="P 1" unit_cell=conventional occupancy="_JSON {\"0\": {\"In\": 1}}" n_minim_iter=5 energy=-1970.1531651289088 stress="-0.0002385438823122447 -0.00223970595223542 5.350375743884805e-13 -0.00223970595223542 7.222043385124608e-05 3.506989616586033e-13 5.350375743884805e-13 3.506989616586033e-13 0.002161927665223203" free_energy=-1970.1531651289088 pbc="T T T"
In       0.00000000       0.00000000       0.00000000        0       0.00000000      -0.00000000      -0.00000000
