1
Lattice="4.112880326656713 0.7374766076675867 -4.2221914052455194e-10 1.0203598036879042 4.0519775664821625 -8.690061923244537e-10 -2.5666200650199076 -2.394727086627151 2.266583320918993" Properties=species:S:1:pos:R:3:spacegroup_kinds:I:1:forces:R:3 spacegroup="P 1" unit_cell=conventional occupancy="_JSON {\"0\": {\"In\": 1}}" n_minim_iter=1 energy=-1969.9359349901315 stress="0.06810998594990873 -0.0025963606497864332 6.352936087901229e-13 -0.0025963606497864332 0.06847023691977032 7.738503465737333e-13 6.352936087901229e-13 7.738503465737333e-13 0.07089271279031557" free_energy=-1969.9359349901315 pbc="T T T"
In       0.00000000       0.00000000       0.00000000        0      -0.00000000       0.00000000       0.00000000
