1
Lattice="4.021452539211054 0.7210827792123843 -4.128336368108126e-10 0.997677587858515 3.961903624558339 -8.496886334324179e-10 -2.5095650633857702 -2.3414932014475904 2.216198023600775" Properties=species:S:1:pos:R:3:spacegroup_kinds:I:1:forces:R:3 spacegroup="P 1" unit_cell=conventional occupancy="_JSON {\"0\": {\"In\": 1}}" n_minim_iter=1 energy=-1970.0905780798696 stress="0.051267704005136874 -0.006718752281386638 1.975540732716162e-12 -0.006718752281386638 0.052199946229175294 1.6609780775393277e-12 1.975540732716162e-12 1.6609780775393277e-12 0.058468726831370006" free_energy=-1970.0905780798696 pbc="T T T"
In       0.00000000       0.00000000       0.00000000        0      -0.00000000       0.00000000      -0.00000000
