1
Lattice="3.566162777044064 0.44361149911002573 -3.2741380235179254e-10 0.6893611410368167 3.526909317199082 -7.430315647799479e-10 -2.127761958898667 -1.9852604077380616 2.1084777149044487" Properties=species:S:1:pos:R:3:spacegroup_kinds:I:1:forces:R:3 spacegroup="P 1" unit_cell=conventional occupancy="_JSON {\"0\": {\"In\": 1}}" n_minim_iter=1 energy=-1969.6227257908206 stress="-0.22474979169423534 0.013195774293775173 -3.795975517197176e-12 0.013195774293775173 -0.22658073551487756 -3.4012900222758284e-12 -3.795975517197176e-12 -3.4012900222758284e-12 -0.23889275573388372" free_energy=-1969.6227257908206 pbc="T T T"
In       0.00000000       0.00000000       0.00000000        0      -0.00000000       0.00000000       0.00000000
1
Lattice="3.5233419588513715 0.3582377948465503 -3.076705011948443e-10 0.6012285323056801 3.490099873728643 -7.298345752419632e-10 -2.0622852454345195 -1.924168833864544 2.14168782550272" Properties=species:S:1:pos:R:3:spacegroup_kinds:I:1:forces:R:3 spacegroup="P 1" unit_cell=conventional occupancy="_JSON {\"0\": {\"In\": 1}}" n_minim_iter=2 energy=-1969.6327348532777 stress="-0.19831824022132188 -3.5514845608600874e-05 -1.4384122197848358e-13 -3.5514845608600874e-05 -0.19831331245581682 1.7334297416977728e-13 -1.4384122197848358e-13 1.7334297416977728e-13 -0.19828017613041948" free_energy=-1969.6327348532777 pbc="T T T"
In       0.00000000       0.00000000       0.00000000        0       0.00000000       0.00000000       0.00000000
