1
Lattice="3.4873869810968725 0.3545820520617293 -3.045328148630791e-10 0.5950931191789144 3.454484124594318 -7.223865664628294e-10 -2.0412400499953565 -1.904533087909288 2.1198323431162964" Properties=species:S:1:pos:R:3:spacegroup_kinds:I:1:forces:R:3 spacegroup="P 1" unit_cell=conventional occupancy="_JSON {\"0\": {\"In\": 1}}" n_minim_iter=1 energy=-1969.459717664531 stress="-0.23695112957228062 0.01676223413010528 -4.589059953946259e-12 0.01676223413010528 -0.23927692784169435 -4.14144271814511e-12 -4.589059953946259e-12 -4.14144271814511e-12 -0.2549165531444472" free_energy=-1969.459717664531 pbc="T T T"
In       0.00000000       0.00000000       0.00000000        0       0.00000000       0.00000000      -0.00000000
1
Lattice="3.436378250045182 0.2481975952465613 -2.800884602921928e-10 0.4854334552918005 3.410960551538705 -7.064155437338039e-10 -1.960905852523063 -1.829579072965407 2.1628190347270384" Properties=species:S:1:pos:R:3:spacegroup_kinds:I:1:forces:R:3 spacegroup="P 1" unit_cell=conventional occupancy="_JSON {\"0\": {\"In\": 1}}" n_minim_iter=2 energy=-1969.478814698694 stress="-0.2023472647246172 0.001531493759446448 -5.68061802202701e-13 0.001531493759446448 -0.20255976298152786 -1.9661093586162844e-13 -5.68061802202701e-13 -1.9661093586162844e-13 -0.20398868876618548" free_energy=-1969.478814698694 pbc="T T T"
In       0.00000000       0.00000000       0.00000000        0      -0.00000000       0.00000000       0.00000000
