1
Lattice="4.142470411125032 0.7427823771967559 -4.2525585889730135e-10 1.0277007740982316 4.081129486531681 -8.752550079520486e-10 -2.5850855924581335 -2.411955931413274 2.282890236412201" Properties=species:S:1:pos:R:3:spacegroup_kinds:I:1:forces:R:3 spacegroup="P 1" unit_cell=conventional occupancy="_JSON {\"0\": {\"In\": 1}}" n_minim_iter=1 energy=-1969.8834617878076 stress="0.06477612536106837 0.001880294020030969 -5.815721285523777e-13 0.001880294020030969 0.06451523027153716 -5.426183956813661e-13 -5.815721285523777e-13 -5.426183956813661e-13 0.06276086425437985" free_energy=-1969.8834617878076 pbc="T T T"
In       0.00000000       0.00000000       0.00000000        0      -0.00000000       0.00000000      -0.00000000
