1
Lattice="3.788500413460187 -0.12249037367078075 -2.3053140181996173e-10 0.14000464861558604 3.787893606319485 -7.576424495117798e-10 -1.9642525308580847 -1.8327016157961318 2.6740710642961227" Properties=species:S:1:pos:R:3:spacegroup_kinds:I:1:forces:R:3 spacegroup="P 1" unit_cell=conventional occupancy="_JSON {\"0\": {\"In\": 1}}" n_minim_iter=2 energy=-1970.0266687220192 stress="0.01688253485149756 0.00020153755910051668 -2.0284714333772262e-14 0.00020153755910051668 0.01685457105508313 2.1621578306168148e-14 -2.0284714333772262e-14 2.1621578306168148e-14 0.016666530971142377" free_energy=-1970.0266687220192 pbc="T T T"
In       0.00000000       0.00000000       0.00000000        0      -0.00000000       0.00000000       0.00000000
