1
Lattice="3.4002031608855154 0.24558479494230495 -2.771414960134052e-10 0.48032324993939723 3.375053036971473 -6.989780616916961e-10 -1.9402632052685587 -1.8103189155341595 2.1400508277008066" Properties=species:S:1:pos:R:3:spacegroup_kinds:I:1:forces:R:3 spacegroup="P 1" unit_cell=conventional occupancy="_JSON {\"0\": {\"In\": 1}}" n_minim_iter=1 energy=-1969.2938059118433 stress="-0.26573675193452917 0.013481449600226939 -3.5129633210911373e-12 0.013481449600226939 -0.2676073338562829 -3.0568170059643137e-12 -3.5129633210911373e-12 -3.0568170059643137e-12 -0.2801858969905542" free_energy=-1969.2938059118433 pbc="T T T"
In       0.00000000       0.00000000       0.00000000        0      -0.00000000      -0.00000000      -0.00000000
1
Lattice="3.3634603386987774 0.16516132015930046 -2.587846599726083e-10 0.39754965747904863 3.3439644109222737 -6.872713029424002e-10 -1.8805049979427473 -1.7545628651113934 2.173787895991902" Properties=species:S:1:pos:R:3:spacegroup_kinds:I:1:forces:R:3 spacegroup="P 1" unit_cell=conventional occupancy="_JSON {\"0\": {\"In\": 1}}" n_minim_iter=2 energy=-1969.3044733182578 stress="-0.25946639194598137 0.0010418964420965116 -4.71499011188197e-13 0.0010418964420965116 -0.25961095745691537 -3.682466026681801e-13 -4.71499011188197e-13 -3.682466026681801e-13 -0.26058307548404247" free_energy=-1969.3044733182578 pbc="T T T"
In       0.00000000       0.00000000       0.00000000        0      -0.00000000       0.00000000      -0.00000000
