1
Lattice="4.142470411125032 0.7427823771967555 -4.2525679273905687e-10 1.0277007740982311 4.081129486531682 -8.752582503937619e-10 -2.585085592458134 -2.4119559314132744 2.282890236412203" Properties=species:S:1:pos:R:3:spacegroup_kinds:I:1:forces:R:3 spacegroup="P 1" unit_cell=conventional occupancy="_JSON {\"0\": {\"In\": 1}}" n_minim_iter=1 energy=-1969.9359349901315 stress="0.06810998594990873 -0.0025963606497864332 6.352936087901229e-13 -0.0025963606497864332 0.06847023691977032 7.738503465737333e-13 6.352936087901229e-13 7.738503465737333e-13 0.07089271279031557" free_energy=-1969.9359349901315 pbc="T T T"
In       0.00000000       0.00000000       0.00000000        0      -0.00000000       0.00000000       0.00000000
