1
Lattice="4.082858232063251 0.7320933748192167 -4.1913879466579636e-10 1.0129116563768485 4.022400033432371 -8.626631104262928e-10 -2.5478849440687608 -2.3772467036813376 2.2500383272746234" Properties=species:S:1:pos:R:3:spacegroup_kinds:I:1:forces:R:3 spacegroup="P 1" unit_cell=conventional occupancy="_JSON {\"0\": {\"In\": 1}}" n_minim_iter=1 energy=-1970.0437555199837 stress="0.061589939657956616 -0.007401369569939683 2.1733895401610845e-12 -0.007401369569939683 0.06261689659031072 2.1422964910385618e-12 2.1733895401610845e-12 2.1422964910385618e-12 0.06952257789103232" free_energy=-1970.0437555199837 pbc="T T T"
In       0.00000000       0.00000000       0.00000000        0      -0.00000000       0.00000000       0.00000000
