10
Lattice="6.384897566653293 0.051607221462118345 0.035634061236354785 3.5466766726130503 5.309488188319531 0.03563406123635945 3.5466766726130525 1.9145073652422315 4.952433357114262" Properties=species:S:1:pos:R:3:spacegroup_kinds:I:1:forces:R:3 spacegroup="P 1" unit_cell=conventional occupancy="_JSON {\"0\": {\"In\": 1}, \"1\": {\"In\": 1}, \"2\": {\"In\": 1}, \"3\": {\"In\": 1}, \"4\": {\"O\": 1}, \"5\": {\"O\": 1}, \"6\": {\"O\": 1}, \"7\": {\"O\": 1}, \"8\": {\"O\": 1}, \"9\": {\"O\": 1}}" n_minim_iter=1 energy=-11286.554562206831 stress="0.05209579293702998 -0.000874401515812572 -0.0006037619619369334 -0.000874401515812572 0.05324364067251034 -0.00032591263422945566 -0.0006037619619369334 -0.00032591263422945566 0.05349060730602089" free_energy=-11286.554562206831 pbc="T T T"
In      11.43490432       6.17259778       4.26209203        0      -0.15907372      -0.08586850      -0.05929099
In       8.78247206       4.74080640       3.27346020        1       0.15907372       0.08586850       0.05929099
In       4.69577886       2.53479639       1.75024129        2      -0.15907372      -0.08586850      -0.05929099
In       2.04334661       1.10300501       0.76160946        3       0.15907372       0.08586850       0.05929099
O        6.56201152       2.55048338       0.25159405        4      -0.00000000       0.09860202      -0.14280090
O        7.74531503       5.59250387       1.29155943        5      -0.08243178       0.15270710      -0.00000000
O        8.92538468       2.41468160       2.72781073        6       0.08243178      -0.05410508      -0.14280090
O        4.55286625       4.86092119       2.29589075        7      -0.08243178       0.05410508       0.14280090
O        6.91623941       4.72511940       4.77210743        8       0.00000000      -0.09860202       0.14280090
O        5.73293589       1.68309891       3.73214205        9       0.08243178      -0.15270710       0.00000000
10
Lattice="6.397931916810005 0.06485994881708655 0.04478488324800567 3.564908251431457 5.313112909017899 0.04478488324801032 3.5649082514314587 1.9243488295621565 4.952580746631288" Properties=species:S:1:pos:R:3:spacegroup_kinds:I:1:forces:R:3 spacegroup="P 1" unit_cell=conventional occupancy="_JSON {\"0\": {\"In\": 1}, \"1\": {\"In\": 1}, \"2\": {\"In\": 1}, \"3\": {\"In\": 1}, \"4\": {\"O\": 1}, \"5\": {\"O\": 1}, \"6\": {\"O\": 1}, \"7\": {\"O\": 1}, \"8\": {\"O\": 1}, \"9\": {\"O\": 1}}" n_minim_iter=2 energy=-11286.557942035352 stress="0.052601202737565245 0.0017666383082924355 0.0012198389281392334 0.0017666383082924355 0.050282094475463786 0.0006584729353466339 0.0012198389281392334 0.0006584729353466339 0.049783123802646226" free_energy=-11286.557942035352 pbc="T T T"
In      11.47461702       6.19403482       4.27689400        0      -0.14041245      -0.07579509      -0.05233544
In       8.81700563       4.75944772       3.28633177        1       0.14041245       0.07579509       0.05233544
In       4.71074281       2.54287397       1.75581875        2      -0.14041245      -0.07579509      -0.05233544
In       2.05313142       1.10828688       0.76525652        3       0.14041245       0.07579509       0.05233544
O        6.58090307       2.56390310       0.26061716        4      -0.00000000       0.06736269      -0.09755839
O        7.77322738       5.60779831       1.30532251        5      -0.05631555       0.10432608       0.00000000
O        8.95348701       2.43284607       2.73690753        6       0.05631555      -0.03696338      -0.09755839
O        4.57426142       4.86947563       2.30524299        7      -0.05631555       0.03696338       0.09755839
O        6.94684536       4.73841860       4.78153336        8       0.00000000      -0.06736269       0.09755839
O        5.75452105       1.69452339       3.73682800        9       0.05631555      -0.10432608      -0.00000000
10
Lattice="6.391630990981282 0.05845885972646575 0.04036502117885715 3.5560994533874153 5.311357721032415 0.0403650211788618 3.5560994533874175 1.919593812318979 4.95250540347127" Properties=species:S:1:pos:R:3:spacegroup_kinds:I:1:forces:R:3 spacegroup="P 1" unit_cell=conventional occupancy="_JSON {\"0\": {\"In\": 1}, \"1\": {\"In\": 1}, \"2\": {\"In\": 1}, \"3\": {\"In\": 1}, \"4\": {\"O\": 1}, \"5\": {\"O\": 1}, \"6\": {\"O\": 1}, \"7\": {\"O\": 1}, \"8\": {\"O\": 1}, \"9\": {\"O\": 1}}" n_minim_iter=3 energy=-11286.56546201454 stress="0.04804621616203108 0.0006868346407660686 0.00047424966956121403 0.0006868346407660686 0.04714459194794449 0.00025600148388867707 0.00047424966956121403 0.00025600148388867707 0.046950601845576256" free_energy=-11286.56546201454 pbc="T T T"
In      11.44788764       6.17960622       4.26693126        0      -0.05730967      -0.03093594      -0.02136083
In       8.80785721       4.75450938       3.28292192        1       0.05730967       0.03093594       0.02136083
In       4.69597269       2.53490102       1.75031353        2      -0.05730967      -0.03093594      -0.02136083
In       2.05594227       1.10980419       0.76630419        3       0.05730967       0.03093594       0.02136083
O        6.57177298       2.56175361       0.24998156        4      -0.00000000       0.01681815      -0.02435698
O        7.75611573       5.60711912       1.29867389        5      -0.01406006       0.02604664       0.00000000
O        8.94352968       2.42169228       2.72623427        6       0.01406006      -0.00922849      -0.02435698
O        4.56030023       4.86771812       2.30700119        7      -0.01406006       0.00922849       0.02435698
O        6.93205693       4.72765680       4.78325389        8      -0.00000000      -0.01681815       0.02435698
O        5.74771418       1.68229128       3.73456157        9       0.01406006      -0.02604664       0.00000000
10
Lattice="6.387817158419164 0.054579493221805095 0.03768637312013874 3.5507635504054758 5.310298031145389 0.037686373120143404 3.5507635504054775 1.9167134748926702 4.952463518035287" Properties=species:S:1:pos:R:3:spacegroup_kinds:I:1:forces:R:3 spacegroup="P 1" unit_cell=conventional occupancy="_JSON {\"0\": {\"In\": 1}, \"1\": {\"In\": 1}, \"2\": {\"In\": 1}, \"3\": {\"In\": 1}, \"4\": {\"O\": 1}, \"5\": {\"O\": 1}, \"6\": {\"O\": 1}, \"7\": {\"O\": 1}, \"8\": {\"O\": 1}, \"9\": {\"O\": 1}}" n_minim_iter=4 energy=-11286.566407739667 stress="0.04550882831211031 -8.463203494379032e-05 -5.8437233158269564e-05 -8.463203494379032e-05 0.045619926808991094 -3.1544604454067245e-05 -5.8437233158269564e-05 -3.1544604454067245e-05 0.04564383034383871" free_energy=-11286.566407739667 pbc="T T T"
In      11.43214061       6.17110592       4.26106192        0      -0.00842505      -0.00454787      -0.00314024
In       8.80187578       4.75128059       3.28069248        1       0.00842505       0.00454787       0.00314024
In       4.68746849       2.53031042       1.74714379        2      -0.00842505      -0.00454787      -0.00314024
In       2.05720365       1.11048509       0.76677435        3       0.00842505       0.00454787       0.00314024
O        6.56624465       2.55997196       0.24423245        4       0.00000000      -0.00801516       0.01160800
O        7.74615307       5.60596702       1.29464544        5       0.00670072      -0.01241326      -0.00000000
O        8.93709978       2.41519820       2.72046421        6      -0.00670072       0.00439809       0.01160800
O        4.55224449       4.86639281       2.30737206        7       0.00670072      -0.00439809      -0.01160800
O        6.92309962       4.72161905       4.78360382        8       0.00000000       0.00801516      -0.01160800
O        5.74319120       1.67562399       3.73319083        9      -0.00670072       0.01241326       0.00000000
10
Lattice="6.388908272183435 0.055689734916795346 0.038452979409444206 3.552290435956419 5.3106009938199685 0.03845297940944887 3.552290435956421 1.9175376925767178 4.952475213944506" Properties=species:S:1:pos:R:3:spacegroup_kinds:I:1:forces:R:3 spacegroup="P 1" unit_cell=conventional occupancy="_JSON {\"0\": {\"In\": 1}, \"1\": {\"In\": 1}, \"2\": {\"In\": 1}, \"3\": {\"In\": 1}, \"4\": {\"O\": 1}, \"5\": {\"O\": 1}, \"6\": {\"O\": 1}, \"7\": {\"O\": 1}, \"8\": {\"O\": 1}, \"9\": {\"O\": 1}}" n_minim_iter=5 energy=-11286.566446729661 stress="0.0458948740501634 8.279431434956685e-05 5.7168306862332364e-05 8.279431434956685e-05 0.04578618798734141 3.0859636040710115e-05 5.7168306862332364e-05 3.0859636040710115e-05 0.045762803498910695" free_energy=-11286.566446729661 pbc="T T T"
In      11.43569170       6.17302281       4.26238550        0      -0.01088399      -0.00587521      -0.00405675
In       8.80454203       4.75271984       3.28168626        1       0.01088399       0.00587521       0.00405675
In       4.68894713       2.53110860       1.74769492        2      -0.01088399      -0.00587521      -0.00405675
In       2.05779746       1.11080563       0.76699567        3       0.01088399       0.00587521       0.00405675
O        6.56782643       2.56051773       0.24582561        4      -0.00000000      -0.00159881       0.00231549
O        7.74897373       5.60635221       1.29579828        5       0.00133661      -0.00247611       0.00000000
O        8.93896956       2.41703685       2.72206322        6      -0.00133661       0.00087730       0.00231549
O        4.55451959       4.86679159       2.30731796        7       0.00133661      -0.00087730      -0.00231549
O        6.92566273       4.72331071       4.78355557        8       0.00000000       0.00159881      -0.00231549
O        5.74451542       1.67747623       3.73358290        9      -0.00133661       0.00247611      -0.00000000
10
Lattice="6.388862674834047 0.05564334430530468 0.03842094734408947 3.5522266329122085 5.3105883297505185 0.03842094734409413 3.55222663291221 1.9175032514902197 4.9524747205615975" Properties=species:S:1:pos:R:3:spacegroup_kinds:I:1:forces:R:3 spacegroup="P 1" unit_cell=conventional occupancy="_JSON {\"0\": {\"In\": 1}, \"1\": {\"In\": 1}, \"2\": {\"In\": 1}, \"3\": {\"In\": 1}, \"4\": {\"O\": 1}, \"5\": {\"O\": 1}, \"6\": {\"O\": 1}, \"7\": {\"O\": 1}, \"8\": {\"O\": 1}, \"9\": {\"O\": 1}}" n_minim_iter=6 energy=-11286.566476225655 stress="0.045633341312337254 8.785747778183085e-07 6.066441119922966e-07 8.785747778183085e-07 0.04563218798288999 3.274676034880909e-07 6.066441119922966e-07 3.274676034880909e-07 0.045631939838616034" free_energy=-11286.566476225655 pbc="T T T"
In      11.43465927       6.17246550       4.26200069        0       0.00001135       0.00000613       0.00000423
In       8.80531465       4.75313690       3.28197424        1      -0.00001135      -0.00000613      -0.00000423
In       4.68800130       2.53059804       1.74734238        2       0.00001135       0.00000613       0.00000423
In       2.05865668       1.11126944       0.76731593        3      -0.00001135      -0.00000613      -0.00000423
O        6.56776033       2.56036203       0.24595151        4      -0.00000000      -0.00002813       0.00004075
O        7.74896696       5.60613029       1.29575010        5       0.00002352      -0.00004357       0.00000000
O        8.93878032       2.41703294       2.72218887        6      -0.00002352       0.00001544       0.00004075
O        4.55453563       4.86670200       2.30712775        7       0.00002352      -0.00001544      -0.00004075
O        6.92555562       4.72337291       4.78336511        8      -0.00000000       0.00002813      -0.00004075
O        5.74434899       1.67760465       3.73356652        9      -0.00002352       0.00004357      -0.00000000
