10
Lattice="5.696884976610694 -0.033940001886954695 -0.023435094378982436 3.097631229031609 4.781247863203591 -0.023435094378981138 3.0976312290316077 1.6721112044352222 4.479388848162163" Properties=species:S:1:pos:R:3:spacegroup_kinds:I:1:forces:R:3 spacegroup="P 1" unit_cell=conventional occupancy="_JSON {\"0\": {\"In\": 1}, \"1\": {\"In\": 1}, \"2\": {\"In\": 1}, \"3\": {\"In\": 1}, \"4\": {\"O\": 1}, \"5\": {\"O\": 1}, \"6\": {\"O\": 1}, \"7\": {\"O\": 1}, \"8\": {\"O\": 1}, \"9\": {\"O\": 1}}" n_minim_iter=4 energy=-11287.695430011066 stress="0.005903500978172037 1.3900480242900896e-05 9.598085324898599e-06 1.3900480242900896e-05 0.005885253490281839 5.1810775250840874e-06 9.598085324898599e-06 5.1810775250840874e-06 0.0058813274205785715" free_energy=-11287.695430011066 pbc="T T T"
In      10.18928316       5.50020751       3.79781599        0       0.00571218       0.00308345       0.00212908
In       7.64893800       4.12892110       2.85096200        1      -0.00571218      -0.00308345      -0.00212908
In       4.24320944       2.29049798       1.58155666        2       0.00571218       0.00308345       0.00212908
In       1.70286428       0.91921157       0.63470267        3      -0.00571218      -0.00308345      -0.00212908
O        5.82147935       2.22700237       0.17080661        4       0.00000000       0.00288528      -0.00417862
O        6.83598947       4.96832409       1.08469457        5      -0.00241211       0.00446849       0.00000000
O        7.90460047       2.07324258       2.41050103        6       0.00241211      -0.00158321      -0.00417862
O        3.98754698       4.34617649       2.02201763        7      -0.00241211       0.00158321       0.00417862
O        6.07066809       4.19241670       4.26171206        8       0.00000000      -0.00288528       0.00417862
O        5.05615798       1.45109498       3.34782409        9       0.00241211      -0.00446849      -0.00000000
