10
Lattice="5.9323982515053215 0.003426871205754632 0.002366206413276847 3.2581014001491475 4.957634115609563 0.0023662064132755145 3.2581014001491466 1.758733513956289 4.635191263591567" Properties=species:S:1:pos:R:3:spacegroup_kinds:I:1:forces:R:3 spacegroup="P 1" unit_cell=conventional occupancy="_JSON {\"0\": {\"In\": 1}, \"1\": {\"In\": 1}, \"2\": {\"In\": 1}, \"3\": {\"In\": 1}, \"4\": {\"O\": 1}, \"5\": {\"O\": 1}, \"6\": {\"O\": 1}, \"7\": {\"O\": 1}, \"8\": {\"O\": 1}, \"9\": {\"O\": 1}}" n_minim_iter=1 energy=-11287.674818364088 stress="0.005053215744689814 -0.003327392046648795 -0.002297517448918262 -0.003327392046648795 0.009421162680542227 -0.00124020723310418 -0.002297517448918262 -0.00124020723310418 0.01036095382997582" free_energy=-11287.674818364088 pbc="T T T"
In      10.67121343       5.76035500       3.97744418        0       0.02330883       0.01258218       0.00868782
In       8.00168816       4.31933676       2.98244134        1      -0.02330883      -0.01258218      -0.00868782
In       4.44691290       2.40045775       1.65748235        2       0.02330883       0.01258218       0.00868782
In       1.77738763       0.95943951       0.66247950        3      -0.02330883      -0.01258218      -0.00868782
O        6.07834939       2.33199311       0.21931859        4       0.00000000      -0.02953899       0.04278000
O        7.16372010       5.16766101       1.16234713        5       0.02469474      -0.04574767      -0.00000000
O        8.25108009       2.20417797       2.53691422        6      -0.02469474       0.01620869       0.04278000
O        4.19752098       4.51561654       2.10300946        7       0.02469474      -0.01620869      -0.04278000
O        6.37025167       4.38780140       4.42060510        8       0.00000000       0.02953899      -0.04278000
O        5.28488096       1.55213350       3.47757655        9      -0.02469474       0.04574767       0.00000000
10
Lattice="5.948110262129195 0.01958620479889244 0.013523999188834072 3.280232207067815 4.9619024554680715 0.013523999188832764 3.280232207067813 1.7706797940250962 4.635229438028432" Properties=species:S:1:pos:R:3:spacegroup_kinds:I:1:forces:R:3 spacegroup="P 1" unit_cell=conventional occupancy="_JSON {\"0\": {\"In\": 1}, \"1\": {\"In\": 1}, \"2\": {\"In\": 1}, \"3\": {\"In\": 1}, \"4\": {\"O\": 1}, \"5\": {\"O\": 1}, \"6\": {\"O\": 1}, \"7\": {\"O\": 1}, \"8\": {\"O\": 1}, \"9\": {\"O\": 1}}" n_minim_iter=2 energy=-11287.677994939415 stress="0.006298438421793388 -0.0002067508024551222 -0.00014275851901391268 -0.0002067508024551222 0.006569845124845027 -7.706150306649035e-05 -0.00014275851901391268 -7.706150306649035e-05 0.006628239978021093" free_energy=-11287.677994939415 pbc="T T T"
In      10.72276472       5.78818255       3.99665872        0      -0.01778007      -0.00959774      -0.00662710
In       8.04009730       4.34007014       2.99675744        1       0.01778007       0.00959774       0.00662710
In       4.46847738       2.41209833       1.66552000        2      -0.01778007      -0.00959774      -0.00662710
In       1.78580997       0.96398591       0.66561872        3       0.01778007       0.00959774       0.00662710
O        6.10119880       2.34642847       0.23300270        4       0.00000000      -0.02386492       0.03456251
O        7.19908772       5.18327698       1.17909336        5       0.01995120      -0.03696013       0.00000000
O        8.28354209       2.22727784       2.55061741        6      -0.01995120       0.01309521       0.03456251
O        4.22503259       4.52489063       2.11166003        7       0.01995120      -0.01309521      -0.03456251
O        6.40737588       4.40574000       4.42927475        8       0.00000000       0.02386492      -0.03456251
O        5.30948696       1.56889149       3.48318408        9      -0.01995120       0.03696013       0.00000000
10
Lattice="5.952857089568253 0.024454388461277402 0.016885411600130053 3.2869067207944616 4.963199548147768 0.01688541160012873 3.2869067207944584 1.7742827177953253 4.635251418120918" Properties=species:S:1:pos:R:3:spacegroup_kinds:I:1:forces:R:3 spacegroup="P 1" unit_cell=conventional occupancy="_JSON {\"0\": {\"In\": 1}, \"1\": {\"In\": 1}, \"2\": {\"In\": 1}, \"3\": {\"In\": 1}, \"4\": {\"O\": 1}, \"5\": {\"O\": 1}, \"6\": {\"O\": 1}, \"7\": {\"O\": 1}, \"8\": {\"O\": 1}, \"9\": {\"O\": 1}}" n_minim_iter=3 energy=-11287.678371583977 stress="0.006826263429020507 0.0008885488275484512 0.0006135304818324865 0.0008885488275484512 0.005659844185470519 0.00033118570981530273 0.0006135304818324865 0.00033118570981530273 0.005408881764171443" free_energy=-11287.678371583977 pbc="T T T"
In      10.73724299       5.79599797       4.00205515        0      -0.02547880      -0.01375354      -0.00949662
In       8.05276282       4.34690702       3.00147822        1       0.02547880       0.01375354       0.00949662
In       4.47390772       2.41502964       1.66754403        2      -0.02547880      -0.01375354      -0.00949662
In       1.78942755       0.96593870       0.66696709        3       0.02547880       0.01375354       0.00949662
O        6.10809618       2.34956963       0.23888229        4       0.00000000      -0.01196857       0.01733354
O        7.21077281       5.18611467       1.18414097        5       0.01000578      -0.01853598      -0.00000000
O        8.29232628       2.23490746       2.55650800        6      -0.01000578       0.00656741       0.01733354
O        4.23434426       4.52702921       2.11251425        7       0.01000578      -0.00656741      -0.01733354
O        6.41857436       4.41236703       4.43013996        8       0.00000000       0.01196857      -0.01733354
O        5.31589774       1.57582200       3.48488127        9      -0.01000578       0.01853598      -0.00000000
10
Lattice="5.949915362911222 0.021438203186171477 0.01480277805102071 3.282770985185881 4.96239529674778 0.014802778051019372 3.2827709851858784 1.7720502345400948 4.635237229062711" Properties=species:S:1:pos:R:3:spacegroup_kinds:I:1:forces:R:3 spacegroup="P 1" unit_cell=conventional occupancy="_JSON {\"0\": {\"In\": 1}, \"1\": {\"In\": 1}, \"2\": {\"In\": 1}, \"3\": {\"In\": 1}, \"4\": {\"O\": 1}, \"5\": {\"O\": 1}, \"6\": {\"O\": 1}, \"7\": {\"O\": 1}, \"8\": {\"O\": 1}, \"9\": {\"O\": 1}}" n_minim_iter=4 energy=-11287.678809257895 stress="0.00569358746932727 -6.762824413071476e-05 -4.66963505061792e-05 -6.762824413071476e-05 0.005782364667553349 -2.52068379301607e-05 -4.66963505061792e-05 -2.52068379301607e-05 0.0058014656417944895" free_energy=-11287.678809257895 pbc="T T T"
In      10.72607139       5.78996751       3.99789120        0      -0.00949820      -0.00512716      -0.00354023
In       8.04711462       4.34385811       2.99937298        1       0.00949820       0.00512716       0.00354023
In       4.46834272       2.41202564       1.66546981        2      -0.00949820      -0.00512716      -0.00354023
In       1.78938595       0.96591624       0.66695159        3       0.00949820       0.00512716       0.00354023
O        6.10382202       2.34520003       0.23874877        4       0.00000000       0.00207414      -0.00300388
O        7.20555795       5.18060310       1.18101348        5      -0.00173399       0.00321226      -0.00000000
O        8.28485708       2.23150973       2.55636738        6       0.00173399      -0.00113812      -0.00300388
O        4.23060027       4.52437402       2.10847541        7      -0.00173399       0.00113812       0.00300388
O        6.41163532       4.41068372       4.42609402        8      -0.00000000      -0.00207414       0.00300388
O        5.30989940       1.57528064       3.48382931        9       0.00173399      -0.00321226       0.00000000
10
Lattice="5.95089282706929 0.02244067860772633 0.01549497324284767 3.2841454155732643 4.962662381493442 0.015494973242846339 3.284145415573263 1.772792156441231 4.635241738781966" Properties=species:S:1:pos:R:3:spacegroup_kinds:I:1:forces:R:3 spacegroup="P 1" unit_cell=conventional occupancy="_JSON {\"0\": {\"In\": 1}, \"1\": {\"In\": 1}, \"2\": {\"In\": 1}, \"3\": {\"In\": 1}, \"4\": {\"O\": 1}, \"5\": {\"O\": 1}, \"6\": {\"O\": 1}, \"7\": {\"O\": 1}, \"8\": {\"O\": 1}, \"9\": {\"O\": 1}}" n_minim_iter=5 energy=-11287.678827510868 stress="0.005733702400786639 9.859292232554583e-05 6.807702589612721e-05 9.859292232554583e-05 0.005604277113122039 3.674819324867257e-05 6.807702589612721e-05 3.674819324867257e-05 0.0055764304553933075" free_energy=-11287.678827510868 pbc="T T T"
In      10.72860650       5.79133596       3.99883610        0      -0.00462252      -0.00249525      -0.00172294
In       8.05016900       4.34550687       3.00051143        1       0.00462252       0.00249525       0.00172294
In       4.46901467       2.41238836       1.66572026        2      -0.00462252      -0.00249525      -0.00172294
In       1.79057717       0.96655926       0.66739559        3       0.00462252       0.00249525       0.00172294
O        6.10524233       2.34594774       0.23981341        4      -0.00000000       0.00238785      -0.00345822
O        7.20787982       5.18134368       1.18205290        5      -0.00199625       0.00369811      -0.00000000
O        8.28675026       2.23302548       2.55743428        6       0.00199625      -0.00131027      -0.00345822
O        4.23243340       4.52486974       2.10879741        7      -0.00199625       0.00131026       0.00345821
O        6.41394133       4.41194748       4.42641828        8      -0.00000000      -0.00238785       0.00345822
O        5.31130385       1.57655155       3.48417879        9       0.00199625      -0.00369811      -0.00000000
