10
Lattice="6.3420446139477615 0.05126085383484072 0.03539489925686833 3.5228727562421613 5.273852965694669 0.03539489925687034 3.522872756242164 1.9016579353616985 4.919194547843752" Properties=species:S:1:pos:R:3:spacegroup_kinds:I:1:forces:R:3 spacegroup="P 1" unit_cell=conventional occupancy="_JSON {\"0\": {\"In\": 1}, \"1\": {\"In\": 1}, \"2\": {\"In\": 1}, \"3\": {\"In\": 1}, \"4\": {\"O\": 1}, \"5\": {\"O\": 1}, \"6\": {\"O\": 1}, \"7\": {\"O\": 1}, \"8\": {\"O\": 1}, \"9\": {\"O\": 1}}" n_minim_iter=4 energy=-11286.710164652173 stress="0.04124354622421682 -4.292886476501875e-06 -2.964178927200341e-06 -4.292886476501875e-06 0.041249181604941856 -1.6000754050347273e-06 -2.964178927200341e-06 -1.6000754050347273e-06 0.04125039409204258" free_energy=-11286.710164652173 pbc="T T T"
In      11.35815768       6.13116970       4.23348652        0      -0.00544106      -0.00293710      -0.00202803
In       8.72352752       4.70898795       3.25149000        1       0.00544105       0.00293710       0.00202803
In       4.66426262       2.51778382       1.73849435        2      -0.00544106      -0.00293710      -0.00202803
In       2.02963246       1.09560207       0.75649783        3       0.00544106       0.00293710       0.00202803
O        6.51796984       2.53336553       0.24990545        4      -0.00000000      -0.00308300       0.00446498
O        7.69333148       5.55496916       1.28289099        5       0.00257741      -0.00477472       0.00000000
O        8.86548096       2.39847519       2.70950272        6      -0.00257741       0.00169171       0.00446498
O        4.52230918       4.82829657       2.28048163        7       0.00257741      -0.00169171      -0.00446498
O        6.86982029       4.69340624       4.74007890        8       0.00000000       0.00308300      -0.00446498
O        5.69445865       1.67180261       3.70709336        9      -0.00257741       0.00477472       0.00000000
