10
Lattice="5.998885970844622 0.022621659637990833 0.015619938101104939 3.3106316030562155 5.002685580718279 0.015619938101103598 3.310631603056214 1.7870894848120003 4.672624334917938" Properties=species:S:1:pos:R:3:spacegroup_kinds:I:1:forces:R:3 spacegroup="P 1" unit_cell=conventional occupancy="_JSON {\"0\": {\"In\": 1}, \"1\": {\"In\": 1}, \"2\": {\"In\": 1}, \"3\": {\"In\": 1}, \"4\": {\"O\": 1}, \"5\": {\"O\": 1}, \"6\": {\"O\": 1}, \"7\": {\"O\": 1}, \"8\": {\"O\": 1}, \"9\": {\"O\": 1}}" n_minim_iter=5 energy=-11287.678827510868 stress="0.005733702400786639 9.859292232554583e-05 6.807702589612721e-05 9.859292232554583e-05 0.005604277113122039 3.674819324867257e-05 6.807702589612721e-05 3.674819324867257e-05 0.0055764304553933075" free_energy=-11287.678827510868 pbc="T T T"
In      10.81513125       5.83804230       4.03108617        0      -0.00462252      -0.00249525      -0.00172294
In       8.11509252       4.38055280       3.02471015        1       0.00462252       0.00249525       0.00172294
In       4.50505666       2.43184394       1.67915407        2      -0.00462252      -0.00249525      -0.00172294
In       1.80501793       0.97435443       0.67277804        3       0.00462252       0.00249525       0.00172294
O        6.15448028       2.36486749       0.24174747        4      -0.00000000       0.00238785      -0.00345822
O        7.26601039       5.22313051       1.19158599        5      -0.00199625       0.00369811      -0.00000000
O        8.35358178       2.25103453       2.57805964        6       0.00199625      -0.00131027      -0.00345822
O        4.26656741       4.56136221       2.12580458        7      -0.00199625       0.00131026       0.00345821
O        6.46566890       4.44752924       4.46211674        8      -0.00000000      -0.00238785       0.00345822
O        5.35413880       1.58926622       3.51227822        9       0.00199625      -0.00369811      -0.00000000
