10
Lattice="5.6423533214752135 -0.03648564728174339 -0.025192826752746294 3.065580346328204 4.737055978878257 -0.0251928267527371 3.065580346328204 1.6548100358590077 4.438686491606084" Properties=species:S:1:pos:R:3:spacegroup_kinds:I:1:forces:R:3 spacegroup="P 1" unit_cell=conventional occupancy="_JSON {\"0\": {\"In\": 1}, \"1\": {\"In\": 1}, \"2\": {\"In\": 1}, \"3\": {\"In\": 1}, \"4\": {\"O\": 1}, \"5\": {\"O\": 1}, \"6\": {\"O\": 1}, \"7\": {\"O\": 1}, \"8\": {\"O\": 1}, \"9\": {\"O\": 1}}" n_minim_iter=3 energy=-11287.729611465062 stress="0.015982466830319713 -6.656346191718471e-06 -4.596111608554759e-06 -6.656346191718471e-06 0.015991204773287675 -2.4809966909106838e-06 -4.596111608554759e-06 -2.4809966909106838e-06 0.015993084802010844" free_energy=-11287.729611465062 pbc="T T T"
In      10.08277864       5.44271603       3.75811894        0       0.00753471       0.00406726       0.00280839
In       7.57749239       4.09035453       2.82433233        1      -0.00753471      -0.00406726      -0.00280839
In       4.19602163       2.26502585       1.56396852        2       0.00753471       0.00406726       0.00280839
In       1.69073538       0.91266435       0.63018191        3      -0.00753471      -0.00406726      -0.00280839
O        5.76455517       2.20632023       0.16379684        4       0.00000000       0.00353188      -0.00511507
O        6.76588196       4.92368055       1.07188238        5      -0.00295267       0.00546990       0.00000000
O        7.82880872       2.04917496       2.38314009        6       0.00295267      -0.00193802      -0.00511507
O        3.94470530       4.30620542       2.00516076        7      -0.00295267       0.00193802       0.00511507
O        6.00895885       4.14906015       4.22450400        8       0.00000000      -0.00353188       0.00511507
O        5.00763206       1.43169983       3.31641846        9       0.00295267      -0.00546990       0.00000000
