10
Lattice="5.59016242215926 -0.03557707586116175 -0.024565470954055462 3.037701629957644 4.6929255738612605 -0.02456547095404377 3.037701629957646 1.6397610159590257 4.39719657448985" Properties=species:S:1:pos:R:3:spacegroup_kinds:I:1:forces:R:3 spacegroup="P 1" unit_cell=conventional occupancy="_JSON {\"0\": {\"In\": 1}, \"1\": {\"In\": 1}, \"2\": {\"In\": 1}, \"3\": {\"In\": 1}, \"4\": {\"O\": 1}, \"5\": {\"O\": 1}, \"6\": {\"O\": 1}, \"7\": {\"O\": 1}, \"8\": {\"O\": 1}, \"9\": {\"O\": 1}}" n_minim_iter=5 energy=-11287.804165318186 stress="0.02893664775898906 2.5856208860635924e-05 1.7853346546483208e-05 2.5856208860635924e-05 0.02890270569132296 9.637292674966605e-06 1.7853346546483208e-05 9.637292674966605e-06 0.028895402843372064" free_energy=-11287.804165318186 pbc="T T T"
In       9.98762139       5.39134985       3.72265131        0       0.00615674       0.00332343       0.00229478
In       7.51072714       4.05431444       2.79944715        1      -0.00615675      -0.00332343      -0.00229478
In       4.15483855       2.24279509       1.54861849        2       0.00615675       0.00332343       0.00229478
In       1.67794430       0.90575968       0.62541433        3      -0.00615675      -0.00332343      -0.00229478
O        5.71147264       2.18952414       0.15793690        4       0.00000000      -0.00081482       0.00118006
O        6.70110279       4.88334721       1.06245094        5       0.00068119      -0.00126192      -0.00000000
O        7.75954411       2.02900906       2.35653519        6      -0.00068119       0.00044711       0.00118006
O        3.90602158       4.26810046       1.99153045        7       0.00068119      -0.00044711      -0.00118006
O        5.95409305       4.10758539       4.19012874        8       0.00000000       0.00081482      -0.00118006
O        4.96446290       1.41376231       3.28561470        9      -0.00068119       0.00126192       0.00000000
