10
Lattice="6.049050250201661 0.025800107839637605 0.017814611920880123 3.3408150375624803 5.04287908439472 0.01781461192087458 3.3408150375624786 1.8033825989029444 4.709432876918162" Properties=species:S:1:pos:R:3:spacegroup_kinds:I:1:forces:R:3 spacegroup="P 1" unit_cell=conventional occupancy="_JSON {\"0\": {\"In\": 1}, \"1\": {\"In\": 1}, \"2\": {\"In\": 1}, \"3\": {\"In\": 1}, \"4\": {\"O\": 1}, \"5\": {\"O\": 1}, \"6\": {\"O\": 1}, \"7\": {\"O\": 1}, \"8\": {\"O\": 1}, \"9\": {\"O\": 1}}" n_minim_iter=4 energy=-11287.54507763017 stress="0.03664726189784118 1.011119778298885e-05 6.981640977265333e-06 1.011119778298885e-05 0.036633988675109024 3.768708787763121e-06 6.981640977265333e-06 3.768708787763121e-06 0.036631132864800804" free_energy=-11287.54507763017 pbc="T T T"
In      10.89654504       5.88198973       4.06143125        0      -0.00144023      -0.00077744      -0.00053681
In       8.19947545       4.42610297       3.05616190        1       0.00144023       0.00077744       0.00053681
In       4.53120488       2.44595883       1.68890020        2      -0.00144023      -0.00077744      -0.00053681
In       1.83413529       0.99007208       0.68363085        3       0.00144023       0.00077744       0.00053681
O        6.20719521       2.38450472       0.24860873        4       0.00000000      -0.00158836       0.00230035
O        7.33119889       5.26458294       1.20408014        5       0.00132788      -0.00245993       0.00000000
O        8.42400657       2.27396813       2.60332517        6      -0.00132788       0.00087157       0.00230035
O        4.30667377       4.59809367       2.14173693        7       0.00132788      -0.00087157      -0.00230035
O        6.52348512       4.48755709       4.49645337        8       0.00000000       0.00158836      -0.00230035
O        5.39948144       1.60747887       3.54098197        9      -0.00132788       0.00245993      -0.00000000
