10
Lattice="5.834324067351717 0.003370218300226868 0.002327088378095209 3.204238590681111 4.875674695387378 0.0023270883780929885 3.20423859068111 1.7296581978341639 4.558562456438015" Properties=species:S:1:pos:R:3:spacegroup_kinds:I:1:forces:R:3 spacegroup="P 1" unit_cell=conventional occupancy="_JSON {\"0\": {\"In\": 1}, \"1\": {\"In\": 1}, \"2\": {\"In\": 1}, \"3\": {\"In\": 1}, \"4\": {\"O\": 1}, \"5\": {\"O\": 1}, \"6\": {\"O\": 1}, \"7\": {\"O\": 1}, \"8\": {\"O\": 1}, \"9\": {\"O\": 1}}" n_minim_iter=1 energy=-11287.677584982122 stress="-0.0001176096594383809 0.004218769720346622 0.0029130012099835394 0.004218769720346622 -0.005655689328117566 0.0015724473332286064 0.0029130012099835394 0.0015724473332286064 -0.0068472418787951" free_energy=-11287.677584982122 pbc="T T T"
In      10.49479733       5.66512503       3.91168923        0      -0.11214434      -0.06053587      -0.04179917
In       7.86940455       4.24792965       2.93313573        1       0.11214434       0.06053587       0.04179917
In       4.37339671       2.36077348       1.63008091        2      -0.11214434      -0.06053587      -0.04179917
In       1.74800393       0.94357809       0.65152741        3       0.11214434       0.06053587       0.04179917
O        5.97786235       2.29344069       0.21569282        4      -0.00000000       0.04827719      -0.06991770
O        7.04528975       5.08222944       1.14313125        5      -0.04035997       0.07476794       0.00000000
O        8.11467354       2.16773859       2.49497405        6       0.04035997      -0.02649075      -0.06991770
O        4.12812772       4.44096454       2.06824259        7      -0.04035997       0.02649075       0.06991770
O        6.26493891       4.31526244       4.34752382        8       0.00000000      -0.04827719       0.06991770
O        5.19751151       1.52647369       3.42008539        9       0.04035997      -0.07476794      -0.00000000
10
Lattice="5.812213616512121 -0.019491585813760173 -0.01345866610917987 3.1729935210657407 4.869735019604384 -0.013458666109182128 3.17299352106574 1.7127920097296643 4.5586010823783365" Properties=species:S:1:pos:R:3:spacegroup_kinds:I:1:forces:R:3 spacegroup="P 1" unit_cell=conventional occupancy="_JSON {\"0\": {\"In\": 1}, \"1\": {\"In\": 1}, \"2\": {\"In\": 1}, \"3\": {\"In\": 1}, \"4\": {\"O\": 1}, \"5\": {\"O\": 1}, \"6\": {\"O\": 1}, \"7\": {\"O\": 1}, \"8\": {\"O\": 1}, \"9\": {\"O\": 1}}" n_minim_iter=2 energy=-11287.683412976367 stress="-0.0006751391446402963 4.5700070448742136e-05 3.1555256951627956e-05 4.5700070448742136e-05 -0.0007351307259610209 1.7033628597404632e-05 3.1555256951627956e-05 1.7033628597404632e-05 -0.0007480382891413725" free_energy=-11287.683412976367 pbc="T T T"
In      10.42147612       5.62554601       3.88436047        0      -0.03875122      -0.02091803      -0.01444361
In       7.81582487       4.21900717       2.91316516        1       0.03875122       0.02091803       0.01444361
In       4.34237580       2.34402829       1.61851859        2      -0.03875122      -0.02091803      -0.01444361
In       1.73672454       0.93748944       0.64732329        3       0.03875122       0.02091803       0.01444361
O        5.94565698       2.27316208       0.19619584        4       0.00000000       0.04894948      -0.07089134
O        6.99531396       5.06039078       1.11946227        5      -0.04092201       0.07580912      -0.00000000
O        8.06899351       2.13504789       2.47549638        6       0.04092201      -0.02685965      -0.07089134
O        4.08920716       4.42798757       2.05618737        7      -0.04092201       0.02685965       0.07089134
O        6.21254369       4.28987337       4.33548792        8       0.00000000      -0.04894948       0.07089134
O        5.16288670       1.50264467       3.41222148        9       0.04092201      -0.07580912      -0.00000000
10
Lattice="5.809285250907954 -0.02253039257090178 -0.01555691947375843 3.168846205286986 4.868954351012586 -0.0155569194737607 3.1688462052869855 1.7105532754616886 4.558614480496804" Properties=species:S:1:pos:R:3:spacegroup_kinds:I:1:forces:R:3 spacegroup="P 1" unit_cell=conventional occupancy="_JSON {\"0\": {\"In\": 1}, \"1\": {\"In\": 1}, \"2\": {\"In\": 1}, \"3\": {\"In\": 1}, \"4\": {\"O\": 1}, \"5\": {\"O\": 1}, \"6\": {\"O\": 1}, \"7\": {\"O\": 1}, \"8\": {\"O\": 1}, \"9\": {\"O\": 1}}" n_minim_iter=3 energy=-11287.68488911253 stress="0.0002577218243605997 -0.0007336407344657096 -0.0005065686207555125 -0.0007336407344657096 0.0012207895218778306 -0.0002734473544393478 -0.0005065686207555125 -0.0002734473544393478 0.0014279995736476874" free_energy=-11287.68488911253 pbc="T T T"
In      10.40971858       5.61919925       3.87997812        0       0.03203815       0.01729429       0.01194147
In       7.81074792       4.21626661       2.91127285        1      -0.03203815      -0.01729429      -0.01194147
In       4.33622975       2.34071064       1.61622780        2       0.03203815       0.01729429       0.01194147
In       1.73725909       0.93777799       0.64752252        3      -0.03203815      -0.01729429      -0.01194147
O        5.94138705       2.27315115       0.18972283        4       0.00000000       0.01174511      -0.01700992
O        6.98644311       5.06164831       1.11631824        5      -0.00981897       0.01818991       0.00000000
O        8.06517718       2.12923577       2.46903007        6       0.00981897      -0.00644480      -0.01700992
O        4.08180049       4.42774148       2.05847058        7      -0.00981897       0.00644480       0.01700992
O        6.20559063       4.28382610       4.33777782        8      -0.00000000      -0.01174511       0.01700992
O        5.16053456       1.49532893       3.41118240        9       0.00981897      -0.01818991       0.00000000
10
Lattice="5.81253880121712 -0.019154296070905862 -0.013225772281324965 3.1734539329239118 4.869821797388722 -0.013225772281327222 3.1734539329239113 1.7130405415172734 4.5585997150981505" Properties=species:S:1:pos:R:3:spacegroup_kinds:I:1:forces:R:3 spacegroup="P 1" unit_cell=conventional occupancy="_JSON {\"0\": {\"In\": 1}, \"1\": {\"In\": 1}, \"2\": {\"In\": 1}, \"3\": {\"In\": 1}, \"4\": {\"O\": 1}, \"5\": {\"O\": 1}, \"6\": {\"O\": 1}, \"7\": {\"O\": 1}, \"8\": {\"O\": 1}, \"9\": {\"O\": 1}}" n_minim_iter=4 energy=-11287.685119465998 stress="0.0005710713244412515 -3.756815026878839e-05 -2.5940282709002756e-05 -3.756815026878839e-05 0.000620387938490861 -1.4002647490169804e-05 -2.5940282709002756e-05 -1.4002647490169804e-05 0.0006309987031421624" free_energy=-11287.685119465998 pbc="T T T"
In      10.42054285       5.62504223       3.88401261        0       0.02460674       0.01328280       0.00917158
In       7.81862716       4.22051985       2.91420965        1      -0.02460674      -0.01328280      -0.00917158
In       4.34081951       2.34318820       1.61793853        2       0.02460674       0.01328280       0.00917158
In       1.73890383       0.93866583       0.64813556        3      -0.02460674      -0.01328280      -0.00917158
O        5.94613107       2.27662681       0.19189834        4       0.00000000       0.00605984      -0.00877620
O        6.99340329       5.06561527       1.11981127        5      -0.00506606       0.00938501       0.00000000
O        8.07231278       2.13379258       2.47119820        6       0.00506606      -0.00332517      -0.00877620
O        4.08713389       4.42991547       2.06094998        7      -0.00506606       0.00332517       0.00877620
O        6.21331560       4.28708124       4.34024983        8       0.00000000      -0.00605984       0.00877620
O        5.16604338       1.49809278       3.41233690        9       0.00506606      -0.00938501       0.00000000
10
Lattice="5.81383232219764 -0.017812937853833536 -0.012299583281164721 3.175285098300879 4.870167154820608 -0.012299583281166985 3.1752850983008787 1.7140290104206424 4.558594514439594" Properties=species:S:1:pos:R:3:spacegroup_kinds:I:1:forces:R:3 spacegroup="P 1" unit_cell=conventional occupancy="_JSON {\"0\": {\"In\": 1}, \"1\": {\"In\": 1}, \"2\": {\"In\": 1}, \"3\": {\"In\": 1}, \"4\": {\"O\": 1}, \"5\": {\"O\": 1}, \"6\": {\"O\": 1}, \"7\": {\"O\": 1}, \"8\": {\"O\": 1}, \"9\": {\"O\": 1}}" n_minim_iter=5 energy=-11287.685233535041 stress="0.0007753046607930623 0.0004032238470989483 0.000278420398782491 0.0004032238470989483 0.0002459830959682235 0.00015029221880683976 0.000278420398782491 0.00015029221880683976 0.00013209624701195495" free_energy=-11287.685233535041 pbc="T T T"
In      10.42581088       5.62788593       3.88597615        0       0.00966002       0.00521451       0.00360055
In       7.82079291       4.22168893       2.91501688        1      -0.00966002      -0.00521451      -0.00360055
In       4.34360962       2.34469431       1.61897847        2       0.00966002       0.00521451       0.00360055
In       1.73859165       0.93849731       0.64801920        3      -0.00966002      -0.00521451      -0.00360055
O        5.94801680       2.27854052       0.19199159        4      -0.00000000      -0.00004632       0.00006708
O        6.99572454       5.06801675       1.12119926        5       0.00003872      -0.00007174      -0.00000000
O        8.07559415       2.13531120       2.47128885        6      -0.00003872       0.00002542       0.00006708
O        4.08880838       4.43107204       2.06270651        7       0.00003872      -0.00002542      -0.00006708
O        6.21638573       4.28784271       4.34200376        8       0.00000000       0.00004632      -0.00006708
O        5.16867799       1.49836648       3.41279610        9      -0.00003872       0.00007174       0.00000000
10
Lattice="5.810881032724272 -0.020874107102412522 -0.014413277631843717 3.1711065085399746 4.869379592547449 -0.014413277631845939 3.171106508539974 1.7117733943574838 4.5586069369117" Properties=species:S:1:pos:R:3:spacegroup_kinds:I:1:forces:R:3 spacegroup="P 1" unit_cell=conventional occupancy="_JSON {\"0\": {\"In\": 1}, \"1\": {\"In\": 1}, \"2\": {\"In\": 1}, \"3\": {\"In\": 1}, \"4\": {\"O\": 1}, \"5\": {\"O\": 1}, \"6\": {\"O\": 1}, \"7\": {\"O\": 1}, \"8\": {\"O\": 1}, \"9\": {\"O\": 1}}" n_minim_iter=6 energy=-11287.685330850412 stress="0.0006231051325623028 -9.17274834362585e-08 -6.33327294214848e-08 -9.17274834362585e-08 0.0006232255422908557 -3.418843877761156e-08 -6.33327294214848e-08 -3.418843877761156e-08 0.0006232514463493932" free_energy=-11287.685330850412 pbc="T T T"
In      10.41731685       5.62330082       3.88281020        0      -0.00021499      -0.00011605      -0.00008013
In       7.81232423       4.21711751       2.91186038        1       0.00021499       0.00011605       0.00008013
In       4.34076982       2.34316138       1.61792001        2      -0.00021499      -0.00011605      -0.00008013
In       1.73577721       0.93697807       0.64697019        3       0.00021499       0.00011605       0.00008013
O        5.94371403       2.27610905       0.18897556        4       0.00000000       0.00019839      -0.00028732
O        6.98880982       5.06553455       1.11803182        5      -0.00016586       0.00030725       0.00000000
O        8.06972476       2.13078366       2.46827903        6       0.00016586      -0.00010886      -0.00028732
O        4.08336930       4.42949523       2.06150135        7      -0.00016586       0.00010886       0.00028732
O        6.20938003       4.28416985       4.34080482        8       0.00000000      -0.00019839       0.00028732
O        5.16428424       1.49474434       3.41174857        9       0.00016586      -0.00030725      -0.00000000
