10
Lattice="6.307482498570116 0.05994094859240098 0.04138838271451712 3.5111643709891474 5.240195907309465 0.04138838271452206 3.511164370989148 1.8953377117069465 4.885597312897171" Properties=species:S:1:pos:R:3:spacegroup_kinds:I:1:forces:R:3 spacegroup="P 1" unit_cell=conventional occupancy="_JSON {\"0\": {\"In\": 1}, \"1\": {\"In\": 1}, \"2\": {\"In\": 1}, \"3\": {\"In\": 1}, \"4\": {\"O\": 1}, \"5\": {\"O\": 1}, \"6\": {\"O\": 1}, \"7\": {\"O\": 1}, \"8\": {\"O\": 1}, \"9\": {\"O\": 1}}" n_minim_iter=1 energy=-11286.834259940048 stress="0.048798116589140524 -0.0004263779993926864 -0.00029440801749452305 -0.0004263779993926864 0.049357833157100336 -0.00015892238293725619 -0.00029440801749452305 -0.00015892238293725619 0.04947825968546729" free_energy=-11286.834259940048 pbc="T T T"
In      11.33907415       6.12086835       4.22637358        0      -0.20035007      -0.10814960      -0.07467578
In       8.65564272       4.67234351       3.22618754        1       0.20035007       0.10814960       0.07467578
In       4.67416853       2.52313107       1.74218654        2      -0.20035007      -0.10814960      -0.07467578
In       1.99073710       1.07460623       0.74200050        3       0.20035007       0.10814960       0.07467578
O        6.48619406       2.51255641       0.27259046        4       0.00000000       0.07324289      -0.10607441
O        7.67018519       5.50782498       1.28348190        5      -0.06123142       0.11343286      -0.00000000
O        8.81336731       2.40133737       2.71538912        6       0.06123142      -0.04018997      -0.10607441
O        4.51644394       4.79413721       2.25298497        7      -0.06123142       0.04018997       0.10607441
O        6.84361719       4.68291817       4.69578362        8      -0.00000000      -0.07324289       0.10607441
O        5.65962606       1.68764960       3.68489218        9       0.06123142      -0.11343286      -0.00000000
10
Lattice="6.321810216231749 0.07447334027623573 0.051422794963442896 3.5311754545709846 5.2441997099175595 0.05142279496344788 3.5311754545709846 1.9061397583664976 4.885786131516175" Properties=species:S:1:pos:R:3:spacegroup_kinds:I:1:forces:R:3 spacegroup="P 1" unit_cell=conventional occupancy="_JSON {\"0\": {\"In\": 1}, \"1\": {\"In\": 1}, \"2\": {\"In\": 1}, \"3\": {\"In\": 1}, \"4\": {\"O\": 1}, \"5\": {\"O\": 1}, \"6\": {\"O\": 1}, \"7\": {\"O\": 1}, \"8\": {\"O\": 1}, \"9\": {\"O\": 1}}" n_minim_iter=2 energy=-11286.840173261478 stress="0.048612744573342456 0.003086360472087714 0.002131088536232864 0.003086360472087714 0.04456120553774221 0.0011503683799999526 0.002131088536232864 0.0011503683799999526 0.04368949152052769" free_energy=-11286.840173261478 pbc="T T T"
In      11.37849256       6.14214653       4.24106587        0      -0.09915708      -0.05352531      -0.03695847
In       8.69774913       4.69507269       3.24188172        1       0.09915708       0.05352531       0.03695847
In       4.68641200       2.52974013       1.74675001        2      -0.09915708      -0.05352531      -0.03695847
In       2.00566857       1.08266629       0.74756586        3       0.09915708       0.05352531       0.03695847
O        6.50694539       2.52824364       0.28109859        4      -0.00000000       0.02816573      -0.04079116
O        7.70003377       5.52611027       1.29858073        5      -0.02354669       0.04362087       0.00000000
O        8.84503248       2.42074298       2.72399166        6       0.02354669      -0.01545515      -0.04079116
O        4.53912866       4.80406985       2.26464007        7      -0.02354669       0.01545515       0.04079116
O        6.87721574       4.69656918       4.70753313        8       0.00000000      -0.02816573       0.04079116
O        5.68412737       1.69870255       3.69005100        9       0.02354669      -0.04362087       0.00000000
10
Lattice="6.298792854148267 0.05110146910685627 0.03528484634186736 3.4990063243425795 5.23778173674932 0.03528484634187237 3.4990063243425795 1.8887747593996354 4.885502272076127" Properties=species:S:1:pos:R:3:spacegroup_kinds:I:1:forces:R:3 spacegroup="P 1" unit_cell=conventional occupancy="_JSON {\"0\": {\"In\": 1}, \"1\": {\"In\": 1}, \"2\": {\"In\": 1}, \"3\": {\"In\": 1}, \"4\": {\"O\": 1}, \"5\": {\"O\": 1}, \"6\": {\"O\": 1}, \"7\": {\"O\": 1}, \"8\": {\"O\": 1}, \"9\": {\"O\": 1}}" n_minim_iter=3 energy=-11286.846616632658 stress="0.03952386785129624 -0.0008010268292632252 -0.0005530977707354924 -0.0008010268292632252 0.04057539488333719 -0.0002985639399472293 -0.0005530977707354924 -0.0002985639399472293 0.040801637516659016" free_energy=-11286.846616632658 pbc="T T T"
In      11.29330305       6.09616096       4.20931348        0       0.01334272       0.00720244       0.00497318
In       8.65190521       4.67032600       3.22479447        1      -0.01334272      -0.00720244      -0.00497318
In       4.64490030       2.50733198       1.73127750        2       0.01334272       0.00720244       0.00497318
In       2.00350246       1.08149701       0.74675849        3      -0.01334272      -0.00720244      -0.00497318
O        6.47359781       2.51090623       0.25600138        4       0.00000000      -0.02076038       0.03006633
O        7.64547085       5.50893152       1.27430284        5       0.01735578      -0.03215205       0.00000000
O        8.80073109       2.38521819       2.69875252        6      -0.01735578       0.01139167       0.03006633
O        4.49607442       4.79243979       2.25731945        7       0.01735578      -0.01139167      -0.03006633
O        6.82320771       4.66675174       4.70007059        8      -0.00000000       0.02076038      -0.03006633
O        5.65133466       1.66872645       3.68176913        9      -0.01735578       0.03215205       0.00000000
10
Lattice="6.3035565856659215 0.05594976002747243 0.03863252309450418 3.5056734832751393 5.239103876904986 0.038632523094509194 3.50567348327514 1.8923737130285887 4.885552541430695" Properties=species:S:1:pos:R:3:spacegroup_kinds:I:1:forces:R:3 spacegroup="P 1" unit_cell=conventional occupancy="_JSON {\"0\": {\"In\": 1}, \"1\": {\"In\": 1}, \"2\": {\"In\": 1}, \"3\": {\"In\": 1}, \"4\": {\"O\": 1}, \"5\": {\"O\": 1}, \"6\": {\"O\": 1}, \"7\": {\"O\": 1}, \"8\": {\"O\": 1}, \"9\": {\"O\": 1}}" n_minim_iter=4 energy=-11286.847097433292 stress="0.041520996970946675 4.9352135720311235e-05 3.407695317675872e-05 4.9352135720311235e-05 0.041456211251219566 1.8394850116735298e-05 3.407695317675872e-05 1.8394850116735298e-05 0.041442272197463374" free_energy=-11286.847097433292 pbc="T T T"
In      11.31087564       6.10564670       4.21586325        0      -0.01142613      -0.00616786      -0.00425882
In       8.66147970       4.67549434       3.22836314        1       0.01142613       0.00616786       0.00425882
In       4.65342386       2.51193303       1.73445446        2      -0.01142613      -0.00616786      -0.00425882
In       2.00402793       1.08178066       0.74695434        3       0.01142613       0.00616786       0.00425882
O        6.48050419       2.51431826       0.26146807        4       0.00000000      -0.00723591       0.01047945
O        7.65692675       5.51220652       1.27933692        5       0.00604926      -0.01120641      -0.00000000
O        8.80975511       2.39268226       2.70424434        6      -0.00604926       0.00397050       0.01047945
O        4.50514845       4.79474511       2.25857326        7       0.00604926      -0.00397050      -0.01047945
O        6.83439938       4.67310910       4.70134953        8      -0.00000000       0.00723591      -0.01047945
O        5.65797682       1.67522084       3.68348067        9      -0.00604926       0.01120641       0.00000000
10
Lattice="6.30278299816829 0.0551628406886032 0.03808916634878354 3.504591130424988 5.238888953732321 0.03808916634878856 3.5045911304249886 1.891789455512416 4.885544075140838" Properties=species:S:1:pos:R:3:spacegroup_kinds:I:1:forces:R:3 spacegroup="P 1" unit_cell=conventional occupancy="_JSON {\"0\": {\"In\": 1}, \"1\": {\"In\": 1}, \"2\": {\"In\": 1}, \"3\": {\"In\": 1}, \"4\": {\"O\": 1}, \"5\": {\"O\": 1}, \"6\": {\"O\": 1}, \"7\": {\"O\": 1}, \"8\": {\"O\": 1}, \"9\": {\"O\": 1}}" n_minim_iter=5 energy=-11286.847155326483 stress="0.041148142017104615 -7.643531395643359e-05 -5.277750769168467e-05 -7.643531395643359e-05 0.041248480476173494 -2.848947005378166e-05 -5.277750769168467e-05 -2.848947005378166e-05 0.04127006892100979" free_energy=-11286.847155326483 pbc="T T T"
In      11.30725814       6.10369397       4.21451491        0       0.00160924       0.00086867       0.00059981
In       8.66068976       4.67506792       3.22806870        1      -0.00160924      -0.00086867      -0.00059981
In       4.65127551       2.51077334       1.73365371        2       0.00160924       0.00086867       0.00059981
In       2.00470713       1.08214730       0.74720750        3      -0.00160924      -0.00086867      -0.00059981
O        6.47938282       2.51332193       0.26122144        4       0.00000000      -0.00328246       0.00475385
O        7.65543671       5.51098950       1.27851977        5       0.00274416      -0.00508362      -0.00000000
O        8.80792006       2.39171337       2.70399347        6      -0.00274416       0.00180116       0.00475385
O        4.50404521       4.79412789       2.25772894        7       0.00274416      -0.00180116      -0.00475385
O        6.83258245       4.67251934       4.70050098        8      -0.00000000       0.00328246      -0.00475385
O        5.65652856       1.67485176       3.68320264        9      -0.00274416       0.00508362       0.00000000
