10
Lattice="6.09558323462274 0.025998578007102983 0.017951652782617754 3.36651462471526 5.081671986448013 0.017951652782612168 3.366514624715258 1.8172553179098987 4.745660707342688" Properties=species:S:1:pos:R:3:spacegroup_kinds:I:1:forces:R:3 spacegroup="P 1" unit_cell=conventional occupancy="_JSON {\"0\": {\"In\": 1}, \"1\": {\"In\": 1}, \"2\": {\"In\": 1}, \"3\": {\"In\": 1}, \"4\": {\"O\": 1}, \"5\": {\"O\": 1}, \"6\": {\"O\": 1}, \"7\": {\"O\": 1}, \"8\": {\"O\": 1}, \"9\": {\"O\": 1}}" n_minim_iter=4 energy=-11287.54507763017 stress="0.03664726189784118 1.011119778298885e-05 6.981640977265333e-06 1.011119778298885e-05 0.036633988675109024 3.768708787763121e-06 6.981640977265333e-06 3.768708787763121e-06 0.036631132864800804" free_energy=-11287.54507763017 pbc="T T T"
In      10.98036792       5.92723758       4.09267426        0      -0.00144023      -0.00077744      -0.00053681
In       8.26255082       4.46015125       3.07967177        1       0.00144023       0.00077744       0.00053681
In       4.56606167       2.46477464       1.70189225        2      -0.00144023      -0.00077744      -0.00053681
In       1.84824458       0.99768831       0.68888976        3       0.00144023       0.00077744       0.00053681
O        6.25494474       2.40284778       0.25052118        4       0.00000000      -0.00158836       0.00230035
O        7.38759495       5.30508132       1.21334266        5       0.00132788      -0.00245993       0.00000000
O        8.48880916       2.29146088       2.62335154        6      -0.00132788       0.00087157       0.00230035
O        4.33980333       4.63346501       2.15821248        7       0.00132788      -0.00087157      -0.00230035
O        6.57366775       4.52207811       4.53104283        8       0.00000000       0.00158836      -0.00230035
O        5.44101755       1.61984457       3.56822136        9      -0.00132788       0.00245993      -0.00000000
