10
Lattice="5.5901624221592625 -0.035577075861165444 -0.024565470954061884 3.0377016299576445 4.692925573861258 -0.024565470954047007 3.0377016299576463 1.6397610159590243 4.397196574489845" Properties=species:S:1:pos:R:3:spacegroup_kinds:I:1:forces:R:3 spacegroup="P 1" unit_cell=conventional occupancy="_JSON {\"0\": {\"In\": 1}, \"1\": {\"In\": 1}, \"2\": {\"In\": 1}, \"3\": {\"In\": 1}, \"4\": {\"O\": 1}, \"5\": {\"O\": 1}, \"6\": {\"O\": 1}, \"7\": {\"O\": 1}, \"8\": {\"O\": 1}, \"9\": {\"O\": 1}}" n_minim_iter=1 energy=-11287.918292024508 stress="0.04064460525479902 -5.747068544660917e-05 -3.968270827979771e-05 -5.747068544660917e-05 0.04072004839792554 -2.1420849218260882e-05 -3.968270827979771e-05 -2.1420849218260882e-05 0.04073628046812353" free_energy=-11287.918292024508 pbc="T T T"
In       9.98762139       5.39134985       3.72265131        0      -0.01587637      -0.00857011      -0.00591754
In       7.51072714       4.05431444       2.79944715        1       0.01587637       0.00857011       0.00591754
In       4.15483855       2.24279509       1.54861849        2      -0.01587637      -0.00857012      -0.00591754
In       1.67794430       0.90575968       0.62541433        3       0.01587637       0.00857011       0.00591754
O        5.71147264       2.18952414       0.15793690        4      -0.00000000       0.00907306      -0.01314010
O        6.70110279       4.88334721       1.06245094        5      -0.00758512       0.01405164      -0.00000000
O        7.75954411       2.02900906       2.35653519        6       0.00758512      -0.00497858      -0.01314010
O        3.90602158       4.26810046       1.99153045        7      -0.00758512       0.00497858       0.01314010
O        5.95409305       4.10758539       4.19012874        8      -0.00000000      -0.00907306       0.01314010
O        4.96446290       1.41376231       3.28561470        9       0.00758512      -0.01405164      -0.00000000
10
Lattice="5.5911962194244405 -0.03449966865746841 -0.02382153641960502 3.039169614894991 4.693198636659505 -0.02382153641959014 3.039169614894995 1.6405534389042333 4.397188342889068" Properties=species:S:1:pos:R:3:spacegroup_kinds:I:1:forces:R:3 spacegroup="P 1" unit_cell=conventional occupancy="_JSON {\"0\": {\"In\": 1}, \"1\": {\"In\": 1}, \"2\": {\"In\": 1}, \"3\": {\"In\": 1}, \"4\": {\"O\": 1}, \"5\": {\"O\": 1}, \"6\": {\"O\": 1}, \"7\": {\"O\": 1}, \"8\": {\"O\": 1}, \"9\": {\"O\": 1}}" n_minim_iter=2 energy=-11287.918337822694 stress="0.0409771726193376 0.00028301898096472975 0.00019542063286580243 0.00028301898096472975 0.040605646852231295 0.00010548868125157234 0.00019542063286580243 0.00010548868125157234 0.040525710747086115" free_energy=-11287.918337822694 pbc="T T T"
In       9.99056244       5.39293743       3.72374751        0      -0.00805131      -0.00434612      -0.00300094
In       7.51374074       4.05594119       2.80057040        1       0.00805131       0.00434612       0.00300094
In       4.15579472       2.24331123       1.54897488        2      -0.00805131      -0.00434612      -0.00300094
In       1.67897302       0.90631499       0.62579776        3       0.00805131       0.00434612       0.00300094
O        5.71298198       2.19075232       0.15845609        4       0.00000000       0.00171496      -0.00248370
O        6.70321758       4.88479631       1.06356478        5      -0.00143371       0.00265599      -0.00000000
O        7.76191599       2.03039533       2.35705026        6       0.00143371      -0.00094103      -0.00248370
O        3.90761947       4.26885709       1.99249501        7      -0.00143371       0.00094103       0.00248370
O        5.95655348       4.10850009       4.19108918        8      -0.00000000      -0.00171496       0.00248370
O        4.96631788       1.41445611       3.28598049        9       0.00143371      -0.00265599       0.00000000
