10
Lattice="6.215128999633208 0.055534624770181194 0.03834587803281569 3.4568042799006293 5.165405767903488 0.038345878032816264 3.45680427990063 1.8659939613820695 4.816736830006222" Properties=species:S:1:pos:R:3:spacegroup_kinds:I:1:forces:R:3 spacegroup="P 1" unit_cell=conventional occupancy="_JSON {\"0\": {\"In\": 1}, \"1\": {\"In\": 1}, \"2\": {\"In\": 1}, \"3\": {\"In\": 1}, \"4\": {\"O\": 1}, \"5\": {\"O\": 1}, \"6\": {\"O\": 1}, \"7\": {\"O\": 1}, \"8\": {\"O\": 1}, \"9\": {\"O\": 1}}" n_minim_iter=5 energy=-11287.123721281863 stress="0.0416616949079909 -0.00012718843063265294 -8.782182592959563e-05 -0.00012718843063265294 0.0418286581937947 -4.74065022438709e-05 -8.782182592959563e-05 -4.74065022438709e-05 0.04186458139162248" free_energy=-11287.123721281863 pbc="T T T"
In      11.18386806       6.03708761       4.16852416        0      -0.00176386      -0.00095214      -0.00065744
In       8.50923829       4.59331393       3.17161872        1       0.00176386       0.00095214       0.00065744
In       4.61949928       2.49362043       1.72180987        2      -0.00176386      -0.00095214      -0.00065744
In       1.94486951       1.04984676       0.72490443        3       0.00176386       0.00095214       0.00065744
O        6.38974889       2.46924449       0.27257033        4      -0.00000000       0.00047632      -0.00068984
O        7.55824206       5.41945031       1.26170303        5      -0.00039821       0.00073769      -0.00000000
O        8.67806001       2.36499495       2.68093874        6       0.00039821      -0.00026137      -0.00068984
O        4.45067756       4.72193941       2.21248985        7      -0.00039821       0.00026137       0.00068984
O        6.73898867       4.61768988       4.62085826        8      -0.00000000      -0.00047632       0.00068984
O        5.57049551       1.66748406       3.63172556        9       0.00039821      -0.00073769      -0.00000000
