10
Lattice="5.642902918226152 -0.03591272847513399 -0.024797234367422132 3.066360885050502 4.737201071437026 -0.02479723436741033 3.066360885050504 1.6552313731475787 4.438682011070895" Properties=species:S:1:pos:R:3:spacegroup_kinds:I:1:forces:R:3 spacegroup="P 1" unit_cell=conventional occupancy="_JSON {\"0\": {\"In\": 1}, \"1\": {\"In\": 1}, \"2\": {\"In\": 1}, \"3\": {\"In\": 1}, \"4\": {\"O\": 1}, \"5\": {\"O\": 1}, \"6\": {\"O\": 1}, \"7\": {\"O\": 1}, \"8\": {\"O\": 1}, \"9\": {\"O\": 1}}" n_minim_iter=5 energy=-11287.804165318186 stress="0.02893664775898906 2.5856208860635924e-05 1.7853346546483208e-05 2.5856208860635924e-05 0.02890270569132296 9.637292674966605e-06 1.7853346546483208e-05 9.637292674966605e-06 0.028895402843372064" free_energy=-11287.804165318186 pbc="T T T"
In      10.08184980       5.44221464       3.75777273        0       0.00615674       0.00332343       0.00229478
In       7.58158724       4.09256495       2.82585858        1      -0.00615675      -0.00332343      -0.00229478
In       4.19403746       2.26395478       1.56322896        2       0.00615675       0.00332343       0.00229478
In       1.69377490       0.91430509       0.63131481        3      -0.00615675      -0.00332343      -0.00229478
O        5.76535764       2.21018124       0.15942696        4       0.00000000      -0.00081482       0.00118006
O        6.76432448       4.92941925       1.07247465        5       0.00068119      -0.00126192      -0.00000000
O        7.83275168       2.04815179       2.37876797        6      -0.00068119       0.00044711       0.00118006
O        3.94287302       4.30836794       2.01031958        7       0.00068119      -0.00044711      -0.00118006
O        6.01026706       4.14633848       4.22966059        8       0.00000000       0.00081482      -0.00118006
O        5.01130022       1.42710048       3.31661289        9      -0.00068119       0.00126192       0.00000000
