80
Lattice="11.758380096941655 0.011752880140841478 0.008115198586108966 6.461905497100801 9.823615321300178 0.008115198586109415 6.461905497100805 3.4881571706912764 9.18347665047866" Properties=species:S:1:pos:R:3:spacegroup_kinds:I:1:forces:R:3 spacegroup="P 1" unit_cell=conventional occupancy="_JSON {\"0\": {\"In\": 1}, \"1\": {\"In\": 1}, \"2\": {\"In\": 1}, \"3\": {\"In\": 1}, \"4\": {\"O\": 1}, \"5\": {\"O\": 1}, \"6\": {\"O\": 1}, \"7\": {\"O\": 1}, \"8\": {\"O\": 1}, \"9\": {\"O\": 1}}" n_minim_iter=4 energy=-90301.46420079394 stress="3.6414197890490684e-05 0.00023405704845077578 3.4240052581788056e-05 0.00023405704845077578 -0.00010836197883425494 0.00020437323576582225 3.4240052581788056e-05 0.00020437323576582225 -3.351685445295453e-05" free_energy=-11287.68422261225 pbc="T T T"
In      10.62063219       5.71024129       3.94284137        0      -0.45723844       0.04660501       0.02279966
In      16.45748809       5.71607542       3.94686975        0       0.01755958       0.00580991      -0.00256777
In      13.80925079      10.62200664       3.94686975        0       0.00680406       0.00663305       0.00473364
In      19.68844084      10.62788308       3.95092735        0      -0.00573508      -0.00328015       0.00048877
In      13.80925079       7.45427757       8.53455048        0       0.01088860       0.00415466       0.00941740
In      19.68844084       7.46015401       8.53860807        0       0.00675328      -0.00183181      -0.01142350
In      17.04020354      12.36608523       8.53860807        0      -0.00252571      -0.00276899       0.00548113
In      22.91939359      12.37196167       8.54266567        0       0.00152935       0.00069223       0.00047409
In       7.93334529       4.28244506       2.95696814        1       0.08514665       0.06331046       0.04424866
In      13.81253534       4.28832150       2.96102574        1       0.03176546      -0.01747209      -0.01799140
In      11.16429804       9.19425272       2.96102574        1      -0.00890121       0.00918891      -0.00021212
In      17.04348809       9.20012916       2.96508334        1      -0.00013526      -0.00275529      -0.00011072
In      11.16429804       6.02652365       7.54870647        1      -0.00904694       0.00324480       0.00205614
In      17.04348809       6.03240009       7.55276406        1      -0.00021188      -0.00027320      -0.00046218
In      14.39525079      10.93833131       7.55276406        1      -0.00007311      -0.00029226      -0.00112382
In      20.27444084      10.94420775       7.55682166        1       0.00221409      -0.00209167      -0.00091354
In       4.40775027       2.37931764       1.64288539        2      -0.00203038      -0.00083198      -0.00356072
In      10.28694032       2.38519408       1.64694299        2      -0.00702280       0.00431043       0.00181808
In       7.63870302       7.29112530       1.64694299        2       0.01766595      -0.01885729       0.03093356
In      13.51789307       7.29700174       1.65100059        2       0.01672658       0.01320614      -0.01846797
In       7.63870302       4.12339623       6.23462372        2       0.01943736       0.01214166      -0.02192952
In      13.51789307       4.12927267       6.23868131        2       0.01814623      -0.01288139       0.02717611
In      10.86965577       9.03520389       6.23868131        2      -0.00696723      -0.00268277       0.00196636
In      16.74884582       9.04108033       6.24273891        2      -0.00211224      -0.00058389      -0.00334656
In       1.76279752       0.95156372       0.65704137        3       0.00189127      -0.00242245      -0.00178486
In       7.64198757       0.95744016       0.66109897        3       0.00431511       0.00188410      -0.00011625
In       4.99375027       5.86337138       0.66109897        3       0.00051151       0.00302379       0.00029261
In      10.87294032       5.86924782       0.66515657        3      -0.01387050      -0.00586657      -0.02005604
In       4.99375027       2.69564231       5.24877970        3       0.00546190      -0.00169414       0.00189630
In      10.87294032       2.70151875       5.25283729        3      -0.02798666      -0.00788233       0.00671505
In       8.22470302       7.60744997       5.25283729        3       0.02165281      -0.04202724      -0.02631075
In      14.10389307       7.61332641       5.25689489        3       0.00870164       0.00819570       0.00564564
O        6.02486892       2.31329375       0.21799077        4      -0.00085983      -0.00064912      -0.00155428
O       11.90405897       2.31917019       0.22204837        4       0.00079911       0.00105011       0.00258088
O        9.25582167       7.22510141       0.22204837        4       0.00137016       0.00159800      -0.00283514
O       15.13501172       7.23097785       0.22610597        4      -0.00272986      -0.00107106       0.00405348
O        9.25582167       4.05737234       4.80972910        4       0.02898376       0.01372497       0.00116242
O       15.13501172       4.06324878       4.81378669        4      -0.01882301       0.00364930      -0.00111536
O       12.48677442       8.96918000       4.81378669        4       0.00073055      -0.00575477      -0.00386692
O       18.36596447       8.97505644       4.81784429        4      -0.00711733       0.00812109       0.00013039
O        7.10119326       5.12307645       1.15402098        5      -0.00673847      -0.00431220      -0.00903377
O       12.98038331       5.12895289       1.15807858        5       0.00004558      -0.00236152       0.00187857
O       10.33214601      10.03488411       1.15807858        5       0.00414828      -0.00263231      -0.00054103
O       16.21133606      10.04076055       1.16213618        5      -0.00154639      -0.00024627       0.00111527
O       10.33214601       6.86715504       5.74575931        5       0.02218564      -0.01228896      -0.02024660
O       16.21133606       6.87303148       5.74981690        5      -0.00447619      -0.00046821      -0.00013672
O       13.56309876      11.77896270       5.74981690        5      -0.00405062      -0.00358753       0.00082695
O       19.44228881      11.78483914       5.75387450        5      -0.00029901       0.01203583      -0.00805910
O        8.17949732       2.18653932       2.51385993        6      -0.00311039      -0.00659596      -0.00249083
O       14.05868737       2.19241576       2.51791753        6      -0.00343761       0.00851719       0.00387796
O       11.41045007       7.09834698       2.51791753        6       0.05152909       0.05999355      -0.05580045
O       17.28964012       7.10422342       2.52197513        6      -0.01084538       0.00106119      -0.00265234
O       11.41045007       3.93061791       7.10559826        6       0.00497231      -0.00383628       0.00140184
O       17.28964012       3.93649435       7.10965585        6      -0.00361417       0.00084744      -0.00172122
O       14.64140282       8.84242557       7.10965585        6      -0.00073576      -0.00229388      -0.00116529
O       20.52059287       8.84830201       7.11371345        6      -0.00169263       0.00446759       0.00556309
O        4.16159823       4.47522338       2.08599360        7      -0.00747484      -0.00027460       0.00248394
O       10.04078828       4.48109982       2.09005120        7       0.02846729       0.00139027       0.00476481
O        7.39255098       9.38703104       2.09005120        7      -0.00097184       0.00600341      -0.00344496
O       13.27174103       9.39290748       2.09410880        7      -0.00469507      -0.00969205       0.00297223
O        7.39255098       6.21930197       6.67773193        7      -0.00417567      -0.00007588       0.00376903
O       13.27174103       6.22517841       6.68178952        7      -0.00087381      -0.00332497      -0.00672364
O       10.62350373      11.13110963       6.68178952        7       0.00239516      -0.00062144      -0.00008702
O       16.50269378      11.13698607       6.68584712        7       0.00464291       0.00058233      -0.00230481
O        6.31622664       4.34846895       4.38186276        8      -0.00662545      -0.00230617       0.00041353
O       12.19541669       4.35434539       4.38592036        8       0.16813214      -0.12170344       0.03643354
O        9.54717939       9.26027661       4.38592036        8       0.00526643       0.01108493       0.00105031
O       15.42636944       9.26615305       4.38997796        8      -0.00230482      -0.00203499       0.00101388
O        9.54717939       6.09254754       8.97360109        8       0.00059534       0.00126259       0.00132372
O       15.42636944       6.09842398       8.97765868        8      -0.00158988      -0.00079709      -0.00152375
O       12.77813214      11.00435520       8.97765868        8      -0.00100129      -0.00092876      -0.00331702
O       18.65732219      11.01023164       8.98171628        8      -0.00242296       0.00072758       0.00716626
O        5.23990230       1.53868625       3.44583255        9      -0.00108875      -0.00271517       0.00016300
O       11.11909235       1.54456269       3.44989015        9       0.00231741       0.00011393       0.00233175
O        8.47085505       6.45049391       3.44989015        9       0.05528231      -0.00410602      -0.00095971
O       14.35004510       6.45637035       3.45394775        9      -0.01021114      -0.00371924       0.00282195
O        8.47085505       3.28276484       8.03757088        9      -0.00041611      -0.00026015       0.00324571
O       14.35004510       3.28864128       8.04162847        9      -0.00199237       0.00307607      -0.00492326
O       11.70180780       8.19457250       8.04162847        9       0.00112709       0.00051500       0.00062761
O       17.58099785       8.20044894       8.04568607        9      -0.00038387       0.00293033       0.00556562
