80
Lattice="11.757125076933796 0.010016164364762901 0.006916020747008249 6.459764937158209 9.823519092202936 0.006916020747008707 6.459764937158209 3.4870016896158544 9.18381154003253" Properties=species:S:1:pos:R:3:spacegroup_kinds:I:1:forces:R:3 spacegroup="P 1" unit_cell=conventional occupancy="_JSON {\"0\": {\"In\": 1}, \"1\": {\"In\": 1}, \"2\": {\"In\": 1}, \"3\": {\"In\": 1}, \"4\": {\"O\": 1}, \"5\": {\"O\": 1}, \"6\": {\"O\": 1}, \"7\": {\"O\": 1}, \"8\": {\"O\": 1}, \"9\": {\"O\": 1}}" n_minim_iter=4 energy=-90301.47896086454 stress="-1.960084225174376e-05 7.964433333291181e-06 -2.3645978839841293e-06 7.964433333291181e-06 -7.437223851140476e-05 8.59771422498206e-06 -2.3645978839841293e-06 8.59771422498206e-06 -4.097308759795528e-05" free_energy=-11287.684920891446 pbc="T T T"
In      10.57631628       5.70912922       3.94207350        0       0.00437432       0.00252568       0.00126531
In      16.45487882       5.71413730       3.94553151        0       0.00574433       0.00276740       0.00161356
In      13.80619875      10.62088877       3.94553151        0       0.00718987       0.00423628       0.00256866
In      19.68476129      10.62589685       3.94898952        0       0.00465164       0.00254038       0.00246853
In      13.80619875       7.45263006       8.53397927        0       0.01804694       0.01921942      -0.00149412
In      19.68476129       7.45763815       8.53743728        0       0.00292912       0.00478394       0.00123893
In      17.03608122      12.36438961       8.53743728        0       0.00326063      -0.00298898       0.00002642
In      22.91464376      12.36939769       8.54089529        0       0.00663509       0.00223148       0.00245233
In       7.93117494       4.28127350       2.95615919        1      -0.00737769      -0.00314509      -0.00705349
In      13.80973748       4.28628158       2.95961720        1      -0.00476642      -0.00176008      -0.00206112
In      11.16105741       9.19303305       2.95961720        1      -0.00485569      -0.00568085       0.00237386
In      17.03961995       9.19804113       2.96307521        1      -0.00546975      -0.00296878      -0.00206281
In      11.16105741       6.02477434       7.54806496        1       0.00250253       0.00604952      -0.00077495
In      17.03961995       6.02978243       7.55152297        1      -0.00895349      -0.00268253       0.00055942
In      14.39093988      10.93653389       7.55152297        1      -0.00646764      -0.00512854      -0.00151254
In      20.26950242      10.94154197       7.55498098        1      -0.00441991      -0.00400688      -0.00247212
In       4.40715254       2.37899498       1.64266260        2       0.02237853       0.00891303      -0.01056188
In      10.28571508       2.38400306       1.64612061        2       0.00185388       0.00373807       0.00005216
In       7.63703501       7.29075453       1.64612061        2       0.00396296      -0.00220438       0.00113554
In      13.51559755       7.29576261       1.64957862        2       0.00659096       0.00103550       0.00200088
In       7.63703501       4.12249582       6.23456837        2       0.00450377       0.00293109       0.00102289
In      13.51559755       4.12750391       6.23802638        2       0.00731059       0.00575787       0.00063029
In      10.86691748       9.03425537       6.23802638        2       0.00708118       0.00133278       0.00579983
In      16.74548002       9.03926345       6.24148439        2       0.00450650       0.00202582       0.00243686
In       1.76201121       0.95113927       0.65674830        3      -0.00938607      -0.00262801      -0.00211197
In       7.64057375       0.95614735       0.66020631        3      -0.00426997       0.00799661      -0.00367740
In       4.99189368       5.86289882       0.66020631        3      -0.00171389      -0.00572571      -0.00345349
In      10.87045622       5.86790690       0.66366432        3      -0.00652036      -0.00429795      -0.00198483
In       4.99189368       2.69464011       5.24865407        3      -0.00478439      -0.00138950      -0.00110876
In      10.87045622       2.69964820       5.25211208        3      -0.00623560      -0.00446065      -0.00492338
In       8.22177615       7.60639966       5.25211208        3      -0.00558851      -0.00323417      -0.00235935
In      14.10033869       7.61140774       5.25557009        3      -0.00576304      -0.00391926       0.00000675
O        6.02967810       2.32155869       0.21710655        4      -0.05641868      -0.05615234       0.02449268
O       11.90242568       2.31772383       0.22055833        4       0.00268635       0.00025964      -0.00098092
O        9.25374561       7.22447530       0.22055833        4       0.00185842       0.00278120      -0.00116903
O       15.13230815       7.22948338       0.22401634        4      -0.00123155       0.00183020      -0.00080143
O        9.25374561       4.05621659       4.80900609        4       0.00099229       0.00051505       0.00029026
O       15.13230815       4.06122468       4.81246410        4      -0.00003411      -0.00003372      -0.00093088
O       12.48362808       8.96797614       4.81246410        4      -0.00015017       0.00163439      -0.00302931
O       18.36219062       8.97298422       4.81592211        4       0.00017745       0.00116776      -0.00084377
O        7.09946028       5.12260046       1.15316346        5       0.00221962       0.01263820       0.00568085
O       12.97802282       5.12760854       1.15662147        5      -0.00014059       0.00067311      -0.00003757
O       10.32934275      10.03436001       1.15662147        5       0.00749388       0.00895569      -0.00287950
O       16.20790529      10.03936809       1.16007948        5      -0.00044871       0.00021890       0.00009148
O       10.32934275       6.86610130       5.74506923        5      -0.00083481       0.00046865      -0.00003547
O       16.20790529       6.87110939       5.74852724        5      -0.00021313       0.00102051      -0.00058832
O       13.55922522      11.77786085       5.74852724        5      -0.00042754       0.00085971      -0.00008428
O       19.43778776      11.78286893       5.75198525        5      -0.00108140       0.00160591       0.00080020
O        8.17814847       2.18531666       2.51305321        6       0.00199971      -0.00283970       0.00251020
O       14.05671101       2.19032474       2.51651122        6       0.00114829      -0.00091152      -0.00152788
O       11.40803094       7.09707621       2.51651122        6       0.00091818       0.00122561      -0.00128915
O       17.28659348       7.10208429       2.51996923        6      -0.00027292       0.00070502      -0.00034654
O       11.40803094       3.92881750       7.10495898        6       0.00197353       0.00401543       0.00675380
O       17.28659348       3.93382559       7.10841699        6       0.00092165      -0.00064907      -0.00094815
O       14.63791341       8.84057705       7.10841699        6       0.00112486       0.00048608      -0.00153964
O       20.51647595       8.84558513       7.11187500        6      -0.00026706      -0.00048962      -0.00101358
O        4.16017901       4.47495183       2.08576859        7      -0.00295190      -0.00111647       0.00197686
O       10.03874155       4.47995991       2.08922660        7       0.00088008       0.00107663       0.00141406
O        7.39006148       9.38671138       2.08922660        7       0.00083592       0.00077794       0.00034355
O       13.26862402       9.39171946       2.09268461        7      -0.00293641       0.00366167      -0.00219229
O        7.39006148       6.21845267       6.67767436        7       0.00035900       0.00008289       0.00176538
O       13.26862402       6.22346076       6.68113237        7      -0.00186284      -0.00244657      -0.00660296
O       10.61994395      11.13021222       6.68113237        7      -0.00145707       0.00112523       0.00027691
O       16.49850649      11.13522030       6.68459038        7       0.00035565       0.00173314       0.00089988
O        6.31446434       4.34755273       4.38172147        8      -0.00003832      -0.00083758       0.00188922
O       12.19302688       4.35256081       4.38517948        8      -0.00035896      -0.00107165       0.00153414
O        9.54434681       9.25931228       4.38517948        8       0.00081643       0.00018479      -0.00042315
O       15.42290935       9.26432036       4.38863749        8      -0.00031975      -0.00040414       0.00059743
O        9.54434681       6.09105357       8.97362724        8       0.00818833      -0.00505002       0.00350001
O       15.42290935       6.09606166       8.97708525        8       0.01337515      -0.00355571      -0.00070505
O       12.77422928      11.00281312       8.97708525        8      -0.00013879       0.00099887       0.00057771
O       18.65279182      11.00782120       8.98054326        8       0.00016816       0.00056022       0.00120099
O        5.23886720       1.53766803       3.44565833        9      -0.00040220      -0.00159646      -0.00427780
O       11.11742974       1.54267611       3.44911634        9       0.00095045      -0.00125493       0.00025018
O        8.46874967       6.44942758       3.44911634        9       0.00160666      -0.00031187       0.00145362
O       14.34731221       6.45443566       3.45257435        9      -0.00024674      -0.00058548      -0.00073890
O        8.46874967       3.28116887       8.03756410        9       0.00200364       0.00023462       0.00080155
O       14.34731221       3.28617696       8.04102211        9      -0.00225308      -0.00038028       0.00128819
O       11.69863214       8.19292842       8.04102211        9      -0.00694420       0.00652214      -0.00716034
O       17.57719468       8.19793650       8.04448012        9       0.00142683      -0.00019558      -0.00028324
