1
Lattice="3.43062895015736 -1.6865508989383216e-10 -2.306647266819062e-10 0.2374330981691306 3.4224027404079136 -6.919959221490024e-10 -1.8340310240058866 -1.7112013696573334 2.3403707119011243" Properties=species:S:1:pos:R:3:spacegroup_kinds:I:1:forces:R:3 spacegroup="P 1" unit_cell=conventional occupancy="_JSON {\"0\": {\"In\": 1}}" n_minim_iter=1 energy=-1966.7621647554665 stress="-0.4272811798878348 -0.003405206232665336 5.86843486329051e-13 -0.003405206232665336 -0.4268086997458828 5.47373134700211e-13 5.86843486329051e-13 5.47373134700211e-13 -0.42363154870872943" free_energy=-1966.7621647554665 pbc="T T T"
In       0.00000000       0.00000000       0.00000000        0       0.00000000      -0.00000000       0.00000000
1
Lattice="3.716347289994019 0.0023692060992130197 -2.50343448159575e-10 0.2595711287770349 3.7072719919219366 -7.497551347801637e-10 -1.9879592092151792 -1.8548205985101192 2.5335551154104676" Properties=species:S:1:pos:R:3:spacegroup_kinds:I:1:forces:R:3 spacegroup="P 1" unit_cell=conventional occupancy="_JSON {\"0\": {\"In\": 1}}" n_minim_iter=2 energy=-1968.180096858 stress="-0.09256938361713614 -0.007203042470192783 1.8435090535078257e-12 -0.007203042470192783 -0.0915699450233278 1.2094379084266833e-12 1.8435090535078257e-12 1.2094379084266833e-12 -0.0848493083616931" free_energy=-1968.180096858 pbc="T T T"
In       0.00000000       0.00000000       0.00000000        0       0.00000000      -0.00000000      -0.00000000
1
Lattice="3.8337064201481357 0.020259975005402057 -2.6176807386594574e-10 0.28554139828663105 3.8231114935791197 -7.743828716286142e-10 -2.059623909042532 -1.9216857337785742 2.6005362286198817" Properties=species:S:1:pos:R:3:spacegroup_kinds:I:1:forces:R:3 spacegroup="P 1" unit_cell=conventional occupancy="_JSON {\"0\": {\"In\": 1}}" n_minim_iter=3 energy=-1968.3649508884357 stress="-0.03613241253554182 -0.005040901953971361 1.3591434969475868e-12 -0.005040901953971361 -0.03543297587392349 1.2681102390102865e-12 1.3591434969475868e-12 1.2681102390102865e-12 -0.03072967575943277" free_energy=-1968.3649508884357 pbc="T T T"
In       0.00000000       0.00000000       0.00000000        0      -0.00000000      -0.00000000      -0.00000000
1
Lattice="5.025717278736237 0.34353748920781413 -4.0577389841733495e-10 0.6905425517507691 4.989890094631413 -1.0320882635739803e-09 -2.858129915029868 -2.6667137912919885 3.1773547356918805" Properties=species:S:1:pos:R:3:spacegroup_kinds:I:1:forces:R:3 spacegroup="P 1" unit_cell=conventional occupancy="_JSON {\"0\": {\"In\": 1}}" n_minim_iter=4 energy=-1970.495985204632 stress="0.004143037133263871 0.0232190803575528 -6.259755419736632e-12 0.0232190803575528 0.0009213367034657012 -5.840521843157442e-12 -6.259755419736632e-12 -5.840521843157442e-12 -0.020742703652061843" free_energy=-1970.495985204632 pbc="T T T"
In       0.00000000       0.00000000       0.00000000        0      -0.00000000      -0.00000000       0.00000000
1
Lattice="5.1357643450569865 0.26886733517361494 -3.9842236094554057e-10 0.6236677812039708 5.104841187595365 -1.0502978727582563e-09 -2.879716062908124 -2.68685426073125 3.3070250423154053" Properties=species:S:1:pos:R:3:spacegroup_kinds:I:1:forces:R:3 spacegroup="P 1" unit_cell=conventional occupancy="_JSON {\"0\": {\"In\": 1}}" n_minim_iter=5 energy=-1970.5624220686652 stress="0.01925629469915147 0.021586148433144027 -5.258133247752561e-12 0.021586148433144027 0.016261167303327394 -6.031411183189905e-12 -5.258133247752561e-12 -6.031411183189905e-12 -0.003879302671140111" free_energy=-1970.5624220686652 pbc="T T T"
In       0.00000000       0.00000000       0.00000000        0       0.00000000       0.00000000       0.00000000
1
Lattice="4.984985509800212 -0.11030530917751508 -3.1338518948128576e-10 0.2349689733459694 4.980666358602585 -9.996350753386806e-10 -2.6099772413390117 -2.4351805240248505 3.4814023624472474" Properties=species:S:1:pos:R:3:spacegroup_kinds:I:1:forces:R:3 spacegroup="P 1" unit_cell=conventional occupancy="_JSON {\"0\": {\"In\": 1}}" n_minim_iter=6 energy=-1970.7467033581731 stress="0.010847995092039391 0.0025194374207474024 -6.393176802848225e-13 0.0025194374207474024 0.010498417395796461 -6.765086887150343e-13 -6.393176802848225e-13 -6.765086887150343e-13 0.008147713013189744" free_energy=-1970.7467033581731 pbc="T T T"
In       0.00000000       0.00000000       0.00000000        0       0.00000000       0.00000000       0.00000000
1
Lattice="4.925257245061724 -0.13218437184316018 -3.0504646379355394e-10 0.20900859340593173 4.922595559872356 -9.864177721987093e-10 -2.5671329190014145 -2.395205593331802 3.4566530604103027" Properties=species:S:1:pos:R:3:spacegroup_kinds:I:1:forces:R:3 spacegroup="P 1" unit_cell=conventional occupancy="_JSON {\"0\": {\"In\": 1}}" n_minim_iter=7 energy=-1970.760705092886 stress="2.1710782775997403e-05 0.0013784836930866228 -4.528579271564397e-13 0.0013784836930866228 -0.00016955697803839573 -2.5968051899859484e-13 -4.528579271564397e-13 -2.5968051899859484e-13 -0.0014557201631197074" free_energy=-1970.760705092886 pbc="T T T"
In       0.00000000       0.00000000       0.00000000        0       0.00000000       0.00000000      -0.00000000
