1
Lattice="4.785010538716788 -0.16578354355935954 -2.889798966071899e-10 0.16578354355936042 4.785010538716788 -9.56334180484024e-10 -2.4753970409104418 -2.309613496909965 3.38554353445484" Properties=species:S:1:pos:R:3:spacegroup_kinds:I:1:forces:R:3 spacegroup="P 1" unit_cell=conventional occupancy="_JSON {\"0\": {\"In\": 1}}" n_minim_iter=1 energy=-1970.683278070574 stress="-0.02495521897973464 -4.436858345359859e-18 -3.576308993740944e-18 -4.436858345359859e-18 -0.02495521897973464 3.352789681632135e-19 -3.576308993740944e-18 3.352789681632135e-19 -0.024955218981544333" free_energy=-1970.683278070574 pbc="T T T"
In       0.00000000       0.00000000       0.00000000        0       0.00000000       0.00000000      -0.00000000
