1
Lattice="4.951711994369285 -0.17155915425257673 -2.990474536666294e-10 0.17155915425257673 4.951711994369285 -9.89651201605884e-10 -2.5616355740753685 -2.3900764193663058 3.5034899905393178" Properties=species:S:1:pos:R:3:spacegroup_kinds:I:1:forces:R:3 spacegroup="P 1" unit_cell=conventional occupancy="_JSON {\"0\": {\"In\": 1}}" n_minim_iter=1 energy=-1970.7547409414246 stress="0.007476930700905983 -1.129498462921796e-18 4.143645789690246e-16 -1.129498462921796e-18 0.007476930700905981 1.1961550079265094e-14 4.143645789690246e-16 1.1961550079265094e-14 0.00747693070089751" free_energy=-1970.7547409414246 pbc="T T T"
In       0.00000000       0.00000000       0.00000000        0      -0.00000000       0.00000000       0.00000000
