1
Lattice="5.145192183128295 -0.17826255250874956 -3.107322523481991e-10 0.17826255250875 5.145192183128296 -1.0283202319351971e-09 -2.6617273675737563 -2.483464814590685 3.6403832317972227" Properties=species:S:1:pos:R:3:spacegroup_kinds:I:1:forces:R:3 spacegroup="P 1" unit_cell=conventional occupancy="_JSON {\"0\": {\"In\": 1}}" n_minim_iter=1 energy=-1970.4622251933151 stress="0.05122563983082322 -2.3012770916246063e-18 6.328512001967667e-18 -2.3012770916246063e-18 0.05122563983082322 -8.629789093592274e-18 6.328512001967667e-18 -8.629789093592274e-18 0.05122563983082321" free_energy=-1970.4622251933151 pbc="T T T"
In       0.00000000       0.00000000       0.00000000        0      -0.00000000       0.00000000       0.00000000
