1
Lattice="4.869718529042244 -0.16871837320922456 -2.94095644229476e-10 0.168718373209225 4.869718529042244 -9.73263954379583e-10 -2.5192184508940723 -2.3505000772359215 3.4454770678593287" Properties=species:S:1:pos:R:3:spacegroup_kinds:I:1:forces:R:3 spacegroup="P 1" unit_cell=conventional occupancy="_JSON {\"0\": {\"In\": 1}}" n_minim_iter=1 energy=-1970.7524931917953 stress="-0.008386883438478843 -8.798897555563744e-14 -1.289781946007735e-13 -8.798897555563744e-14 -0.008386883438466637 -1.203406977041019e-13 -1.289781946007735e-13 -1.203406977041019e-13 -0.008386883438560937" free_energy=-1970.7524931917953 pbc="T T T"
In       0.00000000       0.00000000       0.00000000        0      -0.00000000       0.00000000       0.00000000
