1
Lattice="4.869718529042244 -0.16871837320922517 -2.940956442294759e-10 0.16871837320922384 4.869718529042244 -9.73263954379583e-10 -2.5192184508940727 -2.3505000772359215 3.4454770678593283" Properties=species:S:1:pos:R:3:spacegroup_kinds:I:1:forces:R:3 spacegroup="P 1" unit_cell=conventional occupancy="_JSON {\"0\": {\"In\": 1}}" n_minim_iter=1 energy=-1970.7619033389853 stress="-0.0005609630346901965 -1.6539084635640598e-19 4.961725390692179e-19 -1.6539084635640598e-19 -0.0005609630346901989 2.4808626953460894e-19 4.961725390692179e-19 2.4808626953460894e-19 -0.0005609630348674508" free_energy=-1970.7619033389853 pbc="T T T"
In       0.00000000       0.00000000       0.00000000        0       0.00000000      -0.00000000      -0.00000000
