1
Lattice="4.461929892179436 -0.1545899518201084 -2.694681711727903e-10 0.15458995182010754 4.461929892179436 -8.917631491693443e-10 -2.308259921787509 -2.153669969556068 3.156953945123372" Properties=species:S:1:pos:R:3:spacegroup_kinds:I:1:forces:R:3 spacegroup="P 1" unit_cell=conventional occupancy="_JSON {\"0\": {\"In\": 1}}" n_minim_iter=1 energy=-1969.9866278852537 stress="-0.086953547726706 8.38673173332528e-13 1.079541944850657e-12 8.38673173332528e-13 -0.08695354772386235 1.007253653529272e-12 1.079541944850657e-12 1.007253653529272e-12 -0.08695354772602243" free_energy=-1969.9866278852537 pbc="T T T"
In       0.00000000       0.00000000       0.00000000        0      -0.00000000       0.00000000      -0.00000000
