1
Lattice="4.558958617407801 -0.15795165097735317 -2.7532800173273287e-10 0.15795165097735317 4.558958617407801 -9.11155350225931e-10 -2.358455133975699 -2.2005034825780676 3.2256047810401056" Properties=species:S:1:pos:R:3:spacegroup_kinds:I:1:forces:R:3 spacegroup="P 1" unit_cell=conventional occupancy="_JSON {\"0\": {\"In\": 1}}" n_minim_iter=1 energy=-1970.3090563394455 stress="-0.06597593115747018 -1.8316349906838748e-13 2.6849787841049e-13 -1.8316349906838748e-13 -0.06597593115744477 2.5051833173805683e-13 2.6849787841049e-13 2.5051833173805683e-13 -0.06597593115764107" free_energy=-1970.3090563394455 pbc="T T T"
In       0.00000000       0.00000000       0.00000000        0      -0.00000000       0.00000000      -0.00000000
