1
Lattice="5.218704860557957 -0.18080950450858657 -3.151718843426599e-10 0.18080950450858568 5.218704860557958 -1.0430125059677455e-09 -2.6997571822850084 -2.518947677295324 3.6923957337047306" Properties=species:S:1:pos:R:3:spacegroup_kinds:I:1:forces:R:3 spacegroup="P 1" unit_cell=conventional occupancy="_JSON {\"0\": {\"In\": 1}}" n_minim_iter=1 energy=-1970.3422071299085 stress="0.06333957544232191 -1.8018509993996936e-17 -3.828933373724349e-17 -1.8018509993996936e-17 0.06333957544232194 -3.153239248949464e-17 -3.828933373724349e-17 -3.153239248949464e-17 0.06333957544232187" free_energy=-1970.3422071299085 pbc="T T T"
In       0.00000000       0.00000000       0.00000000        0       0.00000000       0.00000000      -0.00000000
