1
Lattice="5.107634696852252 -0.1769613196041091 -3.0846405285482393e-10 0.17696131960411002 5.107634696852252 -1.0208139772368928e-09 -2.6422980079852008 -2.465336687910232 3.6138101440676533" Properties=species:S:1:pos:R:3:spacegroup_kinds:I:1:forces:R:3 spacegroup="P 1" unit_cell=conventional occupancy="_JSON {\"0\": {\"In\": 1}}" n_minim_iter=1 energy=-1970.632135254298 stress="0.030825203750238367 6.315436563947072e-18 -7.819111936315423e-18 6.315436563947072e-18 0.030825203750238363 7.819111936315423e-18 -7.819111936315423e-18 7.819111936315423e-18 0.030825203750238356" free_energy=-1970.632135254298 pbc="T T T"
In       0.00000000       0.00000000       0.00000000        0      -0.00000000      -0.00000000       0.00000000
