40
Lattice="9.187931630542858 7.201240249744861e-10 1.970084232218833e-15 -3.0626438775265576 8.662465014473595 -1.2473064520059062e-09 -3.0626438765081514 -4.3312325065166615 7.501914762759601" Properties=species:S:1:pos:R:3:spacegroup_kinds:I:1:forces:R:3 spacegroup="P 1" unit_cell=conventional occupancy="_JSON {\"0\": {\"In\": 1}, \"1\": {\"In\": 1}, \"2\": {\"In\": 1}, \"3\": {\"In\": 1}, \"4\": {\"In\": 1}, \"5\": {\"In\": 1}, \"6\": {\"In\": 1}, \"7\": {\"In\": 1}, \"8\": {\"In\": 1}, \"9\": {\"In\": 1}, \"10\": {\"In\": 1}, \"11\": {\"In\": 1}, \"12\": {\"In\": 1}, \"13\": {\"In\": 1}, \"14\": {\"In\": 1}, \"15\": {\"In\": 1}, \"16\": {\"O\": 1}, \"17\": {\"O\": 1}, \"18\": {\"O\": 1}, \"19\": {\"O\": 1}, \"20\": {\"O\": 1}, \"21\": {\"O\": 1}, \"22\": {\"O\": 1}, \"23\": {\"O\": 1}, \"24\": {\"O\": 1}, \"25\": {\"O\": 1}, \"26\": {\"O\": 1}, \"27\": {\"O\": 1}, \"28\": {\"O\": 1}, \"29\": {\"O\": 1}, \"30\": {\"O\": 1}, \"31\": {\"O\": 1}, \"32\": {\"O\": 1}, \"33\": {\"O\": 1}, \"34\": {\"O\": 1}, \"35\": {\"O\": 1}, \"36\": {\"O\": 1}, \"37\": {\"O\": 1}, \"38\": {\"O\": 1}, \"39\": {\"O\": 1}}" n_minim_iter=7 energy=-45149.041754189726 stress="0.06763486103178977 -4.315942416875261e-17 5.898059818321144e-17 -4.315942416875261e-17 0.06763486103178959 -1.5265566588595902e-16 5.898059818321144e-17 -1.5265566588595902e-16 0.06763486103178992" pbc="T T T"
In      -4.37662630       3.09474213       5.89262153        0       0.00227568      -0.00155243       0.00267061
In       7.43927018       1.23649036       1.60929324        1      -0.00227568       0.00155243      -0.00267061
In       1.31398243      -0.92912589       5.36025062        2      -0.00227877       0.00147710      -0.00268295
In      -1.53132193      -2.16561626       3.75095739        3       0.00000000       0.00000000       0.00000000
In      -1.31398242       4.17755025       3.48477193        4       0.00211782      -0.00150461      -0.00268063
In       4.81130533      -2.94105990       5.62643608        5       0.00231091       0.00326659      -0.00005528
In      -1.31398242       1.39017260       5.62643608        6       0.00215150       0.00308198       0.00002494
In      -1.74866145       7.27229239       1.87547870        7      -0.00231091      -0.00326659       0.00005528
In       4.37662631       0.15368223       4.01714284        8      -0.00211782       0.00150461       0.00268063
In      -1.53132193       4.33123250       0.00000001        9       0.00000000       0.00000000       0.00000000
In       4.37662631       6.65053099       0.26618546       10      -0.00217952       0.00145653       0.00285033
In      -1.31398242      -2.31929851       7.23572931       11       0.00217952      -0.00145653      -0.00285033
In       4.37662631       2.94105988       1.87547870       12      -0.00215150      -0.00308198      -0.00002494
In       1.74866146       5.26035838       2.14166415       13       0.00227877      -0.00147710       0.00268295
In       4.59396582      -0.00000001       0.00000001       14       0.00000000       0.00000000       0.00000000
In       1.53132194       2.16561624       3.75095739       15       0.00000000       0.00000000       0.00000000
O        0.94272929       4.33998359       4.06209781       16      -0.00130535       0.00414950       0.00243432
O       -2.11991458       3.51350434       5.46328720       17      -0.00130509       0.00003137      -0.00480308
O       -0.44846779       2.33161298       0.00846832       18       0.00350236      -0.00336686       0.00108012
O       -0.94272928      -0.80897708       2.02347024       19       0.00130021       0.00417650      -0.00237441
O        4.01920186       5.14509875       2.01500193       20       0.00046203      -0.00355198      -0.00345222
O        2.10608590       2.99312277       1.71232982       21      -0.00047205       0.00121742      -0.00480848
O        2.10608590       6.48320848       0.30267212       22      -0.00046203      -0.00476683       0.00134983
O       -2.34775507       6.14246392       3.75942570       23       0.00433514      -0.00218518       0.00108141
O        3.51111168       1.99961951       7.49344646       24      -0.00350236       0.00336686      -0.00108012
O        5.41039895      -1.81123143       3.74248908       25      -0.00433514       0.00218518      -0.00108141
O        6.57375556       3.33875651       1.73595547       26      -0.00350030      -0.00073919       0.00345788
O        3.77753269       2.35014243       4.05362950       27       0.00434696       0.00203374       0.00134777
O        0.71488881       4.50109114       7.19077434       28       0.00434645       0.00014501      -0.00243561
O        2.34775508      -0.16985865       0.31114043       29      -0.00434645      -0.00014501       0.00243561
O       -3.51111167       0.99247598       5.76595931       30       0.00350030       0.00073919      -0.00345788
O        5.18255847       0.81772815       2.03862758       31       0.00130509      -0.00003137       0.00480308
O        0.95655799       1.33810972       5.78958496       32       0.00047205      -0.00121742       0.00480848
O        3.51111168      -1.00714354       5.77442762       33      -0.00350056      -0.00262278      -0.00237493
O        2.11991459      -0.00875110       3.43981696       34       0.00130535      -0.00414950      -0.00243432
O        0.95655799      -2.15197599       7.19924266       35       0.00046203       0.00476683      -0.00134983
O       -0.71488880       1.98109005       3.44828527       36      -0.00434696      -0.00203374      -0.00134777
O       -0.95655798      -0.81386626       5.48691285       37      -0.00046203       0.00355198       0.00345222
O       -0.44846779       5.33837603       1.72748715       38       0.00350056       0.00262278       0.00237493
O        4.00537317       5.14020957       5.47844453       39      -0.00130021      -0.00417650       0.00237441
