40
Lattice="9.117792012565417 7.146254005028421e-10 6.978481206382228e-16 -3.039264004862227 8.596336748473183 -1.2377799103077205e-09 -3.0392640038515943 -4.298168373521956 7.444646004488682" Properties=species:S:1:pos:R:3:spacegroup_kinds:I:1:forces:R:3 spacegroup="P 1" unit_cell=conventional occupancy="_JSON {\"0\": {\"In\": 1}, \"1\": {\"In\": 1}, \"2\": {\"In\": 1}, \"3\": {\"In\": 1}, \"4\": {\"In\": 1}, \"5\": {\"In\": 1}, \"6\": {\"In\": 1}, \"7\": {\"In\": 1}, \"8\": {\"In\": 1}, \"9\": {\"In\": 1}, \"10\": {\"In\": 1}, \"11\": {\"In\": 1}, \"12\": {\"In\": 1}, \"13\": {\"In\": 1}, \"14\": {\"In\": 1}, \"15\": {\"In\": 1}, \"16\": {\"O\": 1}, \"17\": {\"O\": 1}, \"18\": {\"O\": 1}, \"19\": {\"O\": 1}, \"20\": {\"O\": 1}, \"21\": {\"O\": 1}, \"22\": {\"O\": 1}, \"23\": {\"O\": 1}, \"24\": {\"O\": 1}, \"25\": {\"O\": 1}, \"26\": {\"O\": 1}, \"27\": {\"O\": 1}, \"28\": {\"O\": 1}, \"29\": {\"O\": 1}, \"30\": {\"O\": 1}, \"31\": {\"O\": 1}, \"32\": {\"O\": 1}, \"33\": {\"O\": 1}, \"34\": {\"O\": 1}, \"35\": {\"O\": 1}, \"36\": {\"O\": 1}, \"37\": {\"O\": 1}, \"38\": {\"O\": 1}, \"39\": {\"O\": 1}}" n_minim_iter=7 energy=-45150.92483434847 stress="0.05164361483212093 -0.0 -0.0 -0.0 0.05164361483212093 -0.0 -0.0 -0.0 0.05164361483212093" pbc="T T T"
In      -4.34312490       3.07105307       5.84774906        0      -0.01541145       0.01084543      -0.01871275
In       7.38238890       1.22711531       1.59689694        1       0.01541145      -0.01084543       0.01871275
In       1.30386089      -0.92196888       5.31921995        2       0.01540502      -0.01082023       0.01877368
In      -1.51963200      -2.14908418       3.72232300        3       0.00000000       0.00000000       0.00000000
In      -1.30386090       4.14559516       3.45805844        4      -0.01522890       0.01085957       0.01879965
In       4.77466711      -2.91847985       5.58348450        5      -0.01537905      -0.02175719       0.00004474
In      -1.30386090       1.37968852       5.58348450        6      -0.01530706      -0.02169163       0.00003188
In      -1.73540311       7.21664823       1.86116150        7       0.01537905       0.02175719      -0.00004474
In       4.34312490       0.15257322       3.98658756        8       0.01522890      -0.01085957      -0.01879965
In      -1.51963200       4.29816838      -0.00000000        9       0.00000000       0.00000000       0.00000000
In       4.34312490       6.59982578       0.26426456       10       0.01540014      -0.01081895      -0.01884259
In      -1.30386090      -2.30165740       7.18038145       11      -0.01540014       0.01081895       0.01884259
In       4.34312490       2.91847986       1.86116150       12       0.01530706       0.02169163      -0.00003188
In       1.73540311       5.22013726       2.12542606       13      -0.01540502       0.01082023      -0.01877368
In       4.55889600       0.00000000      -0.00000000       14       0.00000000       0.00000000       0.00000000
In       1.51963200       2.14908419       3.72232300       15       0.00000000       0.00000000       0.00000000
O        0.93021284       4.30509836       4.03748698       16      -0.01373818       0.00289403      -0.00183088
O       -2.10905117       3.49310131       5.41990097       17      -0.01373998      -0.00303544      -0.00159588
O       -0.44241992       2.31461505       0.01645304       18      -0.00470435      -0.00942464       0.00946937
O       -0.93021284      -0.79813709       2.01274195       19       0.01374435      -0.00013190      -0.00342600
O        3.99634455       5.10580464       1.99628891       20       0.00171595       0.00560012      -0.01289434
O        2.08218346       2.97314960       1.69757797       21      -0.00171827       0.01396418      -0.00159408
O        2.08218346       6.43082342       0.29871094       22      -0.00172315      -0.00836894      -0.01129897
O       -2.32971330       6.09283172       3.73877604       23       0.00731248       0.00757756       0.00947272
O        3.48168392       1.98355333       7.42819296       24       0.00470435       0.00942464      -0.00946937
O        5.36897730      -1.79466333       3.70586996       25      -0.00731248      -0.00757756      -0.00947272
O        6.52094793       3.32064047       1.72603409       26       0.00470306       0.00348744       0.01289511
O        3.74881471       2.34054337       4.02103394       27       0.00731119       0.00440996      -0.01129820
O        0.70955070       4.46113005       7.12948202       28       0.00731273      -0.01199600       0.00183371
O        2.32971330      -0.16296167       0.31516398       29      -0.00731273       0.01199600      -0.00183371
O       -3.48168393       0.97752791       5.71861191       30      -0.00470306      -0.00348744      -0.01289511
O        5.14831517       0.80506707       2.02474503       31       0.01373998       0.00303544       0.00159588
O        0.95708054       1.32501878       5.74706803       32       0.00171827      -0.01396418       0.00159408
O        3.48168392      -1.00602541       5.73506495       33       0.00470692      -0.01290797      -0.00342754
O        2.10905116      -0.00692998       3.40715902       34       0.01373818      -0.00289403       0.00183088
O        0.95708054      -2.13265504       7.14593507       35       0.00172315       0.00836894       0.01129897
O       -0.70955070       1.95762501       3.42361206       36      -0.00731119      -0.00440996       0.01129820
O       -0.95708054      -0.80763626       5.44835709       37      -0.00171595      -0.00560012       0.01289434
O       -0.44241992       5.30419379       1.70958105       38      -0.00470692       0.01290797       0.00342754
O        3.96947684       5.09630547       5.43190405       39      -0.01374435       0.00013190       0.00342600
40
Lattice="9.117792012565417 7.146254005028421e-10 6.978481206382228e-16 -3.039264004862227 8.596336748473183 -1.2377799103077205e-09 -3.0392640038515943 -4.298168373521956 7.444646004488682" Properties=species:S:1:pos:R:3:spacegroup_kinds:I:1:forces:R:3 spacegroup="P 1" unit_cell=conventional occupancy="_JSON {\"0\": {\"In\": 1}, \"1\": {\"In\": 1}, \"2\": {\"In\": 1}, \"3\": {\"In\": 1}, \"4\": {\"In\": 1}, \"5\": {\"In\": 1}, \"6\": {\"In\": 1}, \"7\": {\"In\": 1}, \"8\": {\"In\": 1}, \"9\": {\"In\": 1}, \"10\": {\"In\": 1}, \"11\": {\"In\": 1}, \"12\": {\"In\": 1}, \"13\": {\"In\": 1}, \"14\": {\"In\": 1}, \"15\": {\"In\": 1}, \"16\": {\"O\": 1}, \"17\": {\"O\": 1}, \"18\": {\"O\": 1}, \"19\": {\"O\": 1}, \"20\": {\"O\": 1}, \"21\": {\"O\": 1}, \"22\": {\"O\": 1}, \"23\": {\"O\": 1}, \"24\": {\"O\": 1}, \"25\": {\"O\": 1}, \"26\": {\"O\": 1}, \"27\": {\"O\": 1}, \"28\": {\"O\": 1}, \"29\": {\"O\": 1}, \"30\": {\"O\": 1}, \"31\": {\"O\": 1}, \"32\": {\"O\": 1}, \"33\": {\"O\": 1}, \"34\": {\"O\": 1}, \"35\": {\"O\": 1}, \"36\": {\"O\": 1}, \"37\": {\"O\": 1}, \"38\": {\"O\": 1}, \"39\": {\"O\": 1}}" n_minim_iter=7 energy=-45150.92501829744 stress="0.051658305354945505 -0.0 -0.0 -0.0 0.051658305354945505 -0.0 -0.0 -0.0 0.05165922351262203" pbc="T T T"
In      -4.34334414       3.07120809       5.84748055        0      -0.01393641       0.00980645      -0.01691066
In       7.38260814       1.22696029       1.59716545        1       0.01393641      -0.00980645       0.01691066
In       1.30408013      -0.92212390       5.31948846        2       0.01393178      -0.00977919       0.01696877
In      -1.51963200      -2.14908418       3.72232300        3       0.00000000       0.00000000       0.00000000
In      -1.30408013       4.14575019       3.45832695        4      -0.01376003       0.00981519       0.01699602
In       4.77444787      -2.91878990       5.58348450        5      -0.01390941      -0.01967640       0.00004525
In      -1.30408013       1.37937847       5.58348450        6      -0.01383562      -0.01960929       0.00003008
In      -1.73518387       7.21695828       1.86116150        7       0.01390941       0.01967640      -0.00004525
In       4.34334414       0.15241819       3.98631905        8       0.01376003      -0.00981519      -0.01699602
In      -1.51963200       4.29816838      -0.00000000        9       0.00000000       0.00000000       0.00000000
In       4.34334413       6.59967075       0.26399605       10       0.01392612      -0.00977636      -0.01704179
In      -1.30408013      -2.30150237       7.18064996       11      -0.01392612       0.00977636       0.01704179
In       4.34334413       2.91878991       1.86116150       12       0.01383562       0.01960929      -0.00003008
In       1.73518387       5.22029228       2.12515755       13      -0.01393178       0.00977919      -0.01696877
In       4.55889600       0.00000000      -0.00000000       14       0.00000000       0.00000000       0.00000000
In       1.51963200       2.14908419       3.72232300       15       0.00000000       0.00000000       0.00000000
O        0.93001653       4.30513977       4.03746085       16      -0.01367750       0.00188565      -0.00232145
O       -2.10924748       3.49305796       5.41987817       17      -0.01367956      -0.00295600      -0.00047720
O       -0.44248717       2.31448045       0.01658830       18      -0.00555975      -0.00869727       0.00946603
O       -0.93001653      -0.79813901       2.01269302       19       0.01368393      -0.00106084      -0.00279787
O        3.99636912       5.10588465       1.99610471       20       0.00177072       0.00652675      -0.01226262
O        2.08215889       2.97334913       1.69755517       21      -0.00177303       0.01388036      -0.00047591
O        2.08215889       6.43070390       0.29854954       22      -0.00177766      -0.00735824      -0.01178568
O       -2.32960882       6.09293999       3.73891131       23       0.00634137       0.00814166       0.00946912
O        3.48175117       1.98368793       7.42805770       24       0.00555975       0.00869727      -0.00946603
O        5.36887282      -1.79477161       3.70573470       25      -0.00634137      -0.00814166      -0.00946912
O        6.52101518       3.32069031       1.72621829       26       0.00555873       0.00384791       0.01226339
O        3.74891919       2.34060637       4.02087254       27       0.00634060       0.00412482      -0.01178465
O        0.70965519       4.46095877       7.12950816       28       0.00634188      -0.01227496       0.00232428
O        2.32960881      -0.16279039       0.31513785       29      -0.00634188       0.01227496      -0.00232428
O       -3.48175118       0.97747807       5.71842771       30      -0.00555873      -0.00384791      -0.01226339
O        5.14851148       0.80511042       2.02476783       31       0.01367956       0.00295600       0.00047720
O        0.95710512       1.32481925       5.74709083       32       0.00177303      -0.01388036       0.00047591
O        3.48175117      -1.00620985       5.73501602       33       0.00556258      -0.01254107      -0.00279942
O        2.10924747      -0.00697139       3.40718516       34       0.01367750      -0.00188565       0.00232145
O        0.95710512      -2.13253552       7.14609646       35       0.00177766       0.00735824       0.01178568
O       -0.70965519       1.95756201       3.42377346       36      -0.00634060      -0.00412482       0.01178465
O       -0.95710512      -0.80771627       5.44854129       37      -0.00177072      -0.00652675       0.01226262
O       -0.44248717       5.30437823       1.70962998       38      -0.00556258       0.01254107       0.00279942
O        3.96928053       5.09630739       5.43195299       39      -0.01368393       0.00106084       0.00279787
40
Lattice="9.117792012565417 7.146254005028421e-10 6.978481206382228e-16 -3.039264004862227 8.596336748473183 -1.2377799103077205e-09 -3.0392640038515943 -4.298168373521956 7.444646004488682" Properties=species:S:1:pos:R:3:spacegroup_kinds:I:1:forces:R:3 spacegroup="P 1" unit_cell=conventional occupancy="_JSON {\"0\": {\"In\": 1}, \"1\": {\"In\": 1}, \"2\": {\"In\": 1}, \"3\": {\"In\": 1}, \"4\": {\"In\": 1}, \"5\": {\"In\": 1}, \"6\": {\"In\": 1}, \"7\": {\"In\": 1}, \"8\": {\"In\": 1}, \"9\": {\"In\": 1}, \"10\": {\"In\": 1}, \"11\": {\"In\": 1}, \"12\": {\"In\": 1}, \"13\": {\"In\": 1}, \"14\": {\"In\": 1}, \"15\": {\"In\": 1}, \"16\": {\"O\": 1}, \"17\": {\"O\": 1}, \"18\": {\"O\": 1}, \"19\": {\"O\": 1}, \"20\": {\"O\": 1}, \"21\": {\"O\": 1}, \"22\": {\"O\": 1}, \"23\": {\"O\": 1}, \"24\": {\"O\": 1}, \"25\": {\"O\": 1}, \"26\": {\"O\": 1}, \"27\": {\"O\": 1}, \"28\": {\"O\": 1}, \"29\": {\"O\": 1}, \"30\": {\"O\": 1}, \"31\": {\"O\": 1}, \"32\": {\"O\": 1}, \"33\": {\"O\": 1}, \"34\": {\"O\": 1}, \"35\": {\"O\": 1}, \"36\": {\"O\": 1}, \"37\": {\"O\": 1}, \"38\": {\"O\": 1}, \"39\": {\"O\": 1}}" n_minim_iter=7 energy=-45150.92536265754 stress="0.05168860455827119 -0.0 -0.0 -0.0 0.05168860455827119 -0.0 -0.0 -0.0 0.05168860455827119" pbc="T T T"
In      -4.34378369       3.07151891       5.84694221        0      -0.01112902       0.00782798      -0.01347361
In       7.38304769       1.22664947       1.59770380        1       0.01112902      -0.00782798       0.01347361
In       1.30451969      -0.92243471       5.32002680        2       0.01113236      -0.00780716       0.01353789
In      -1.51963200      -2.14908418       3.72232300        3       0.00000000       0.00000000       0.00000000
In      -1.30451969       4.14606100       3.45886530        4      -0.01095470       0.00783852       0.01356668
In       4.77400832      -2.91941152       5.58348450        5      -0.01111308      -0.01571047       0.00005091
In      -1.30451969       1.37875685       5.58348450        6      -0.01103415      -0.01564619       0.00003265
In      -1.73474432       7.21757990       1.86116150        7       0.01111308       0.01571047      -0.00005091
In       4.34378369       0.15210738       3.98578071        8       0.01095470      -0.00783852      -0.01356668
In      -1.51963200       4.29816838      -0.00000000        9       0.00000000       0.00000000       0.00000000
In       4.34378369       6.59935994       0.26345770       10       0.01112362      -0.00779559      -0.01360268
In      -1.30451969      -2.30119156       7.18118830       11      -0.01112362       0.00779559       0.01360268
In       4.34378369       2.91941153       1.86116150       12       0.01103415       0.01564619      -0.00003265
In       1.73474431       5.22060309       2.12461920       13      -0.01113236       0.00780716      -0.01353789
In       4.55889600       0.00000000      -0.00000000       14       0.00000000       0.00000000       0.00000000
In       1.51963200       2.14908419       3.72232300       15       0.00000000       0.00000000       0.00000000
O        0.92958544       4.30520104       4.03738859       16      -0.01344276       0.00015298      -0.00302619
O       -2.10967856       3.49296476       5.41986124       17      -0.01344481      -0.00270017       0.00137580
O       -0.44266098       2.31420532       0.01688647       18      -0.00687436      -0.00734667       0.00942232
O       -0.92958544      -0.79817095       2.01260383       19       0.01344970      -0.00253742      -0.00164988
O        3.99642494       5.10608874       1.99571736       20       0.00193373       0.00797839      -0.01107091
O        2.08210307       2.97378663       1.69753824       21      -0.00193656       0.01357414       0.00137785
O        2.08210306       6.43047049       0.29817912       22      -0.00194118      -0.00560012      -0.01244748
O       -2.32940736       6.09319557       3.73920947       23       0.00463030       0.00893047       0.00942566
O        3.48192498       1.98396306       7.42775953       24       0.00687436       0.00734667      -0.00942232
O        5.36867136      -1.79502719       3.70543653       25      -0.00463030      -0.00893047      -0.00942566
O        6.52118899       3.32081097       1.72660564       26       0.00687307       0.00448555       0.01107169
O        3.74912065       2.34073680       4.02050212       27       0.00462824       0.00369288      -0.01244620
O        0.70985664       4.46057276       7.12958041       28       0.00463004      -0.01263157       0.00302927
O        2.32940736      -0.16240438       0.31506559       29      -0.00463004       0.01263157      -0.00302927
O       -3.48192499       0.97735741       5.71804036       30      -0.00687307      -0.00448555      -0.01107169
O        5.14894256       0.80520362       2.02478476       31       0.01344481       0.00270017      -0.00137580
O        0.95716094       1.32438175       5.74710776       32       0.00193656      -0.01357414      -0.00137785
O        3.48192498      -1.00660564       5.73492684       33       0.00687667      -0.01182810      -0.00165168
O        2.10967856      -0.00703266       3.40725741       34       0.01344276      -0.00015298       0.00302619
O        0.95716094      -2.13230211       7.14646688       35       0.00194118       0.00560012       0.01244748
O       -0.70985664       1.95743158       3.42414388       36      -0.00462824      -0.00369288       0.01244620
O       -0.95716094      -0.80792036       5.44892864       37      -0.00193373      -0.00797839       0.01107091
O       -0.44266098       5.30477402       1.70971917       38      -0.00687667       0.01182810       0.00165168
O        3.96884945       5.09633934       5.43204217       39      -0.01344970       0.00253742       0.00164988
40
Lattice="9.117792012565417 7.146254005028421e-10 6.978481206382228e-16 -3.039264004862227 8.596336748473183 -1.2377799103077205e-09 -3.0392640038515943 -4.298168373521956 7.444646004488682" Properties=species:S:1:pos:R:3:spacegroup_kinds:I:1:forces:R:3 spacegroup="P 1" unit_cell=conventional occupancy="_JSON {\"0\": {\"In\": 1}, \"1\": {\"In\": 1}, \"2\": {\"In\": 1}, \"3\": {\"In\": 1}, \"4\": {\"In\": 1}, \"5\": {\"In\": 1}, \"6\": {\"In\": 1}, \"7\": {\"In\": 1}, \"8\": {\"In\": 1}, \"9\": {\"In\": 1}, \"10\": {\"In\": 1}, \"11\": {\"In\": 1}, \"12\": {\"In\": 1}, \"13\": {\"In\": 1}, \"14\": {\"In\": 1}, \"15\": {\"In\": 1}, \"16\": {\"O\": 1}, \"17\": {\"O\": 1}, \"18\": {\"O\": 1}, \"19\": {\"O\": 1}, \"20\": {\"O\": 1}, \"21\": {\"O\": 1}, \"22\": {\"O\": 1}, \"23\": {\"O\": 1}, \"24\": {\"O\": 1}, \"25\": {\"O\": 1}, \"26\": {\"O\": 1}, \"27\": {\"O\": 1}, \"28\": {\"O\": 1}, \"29\": {\"O\": 1}, \"30\": {\"O\": 1}, \"31\": {\"O\": 1}, \"32\": {\"O\": 1}, \"33\": {\"O\": 1}, \"34\": {\"O\": 1}, \"35\": {\"O\": 1}, \"36\": {\"O\": 1}, \"37\": {\"O\": 1}, \"38\": {\"O\": 1}, \"39\": {\"O\": 1}}" n_minim_iter=7 energy=-45150.92595314461 stress="0.051750121122599094 -0.0 -0.0 -0.0 0.051750121122599094 -0.0 -0.0 -0.0 0.051751039280275635" pbc="T T T"
In      -4.34469162       3.07216091       5.84583022        0      -0.00561735       0.00393327      -0.00671546
In       7.38395563       1.22600747       1.59881578        1       0.00561735      -0.00393327       0.00671546
In       1.30542762      -0.92307672       5.32113878        2       0.00562017      -0.00390782       0.00677460
In      -1.51963200      -2.14908418       3.72232300        3       0.00000000       0.00000000       0.00000000
In      -1.30542762       4.14670301       3.45997728        4      -0.00543711       0.00394433       0.00680931
In       4.77310039      -2.92069553       5.58348450        5      -0.00559729      -0.00790794       0.00004397
In      -1.30542762       1.37747284       5.58348450        6      -0.00551630      -0.00785061       0.00003188
In      -1.73383639       7.21886391       1.86116150        7       0.00559729       0.00790794      -0.00004397
In       4.34469162       0.15146538       3.98466872        8       0.00543711      -0.00394433      -0.00680931
In      -1.51963200       4.29816838      -0.00000000        9       0.00000000       0.00000000       0.00000000
In       4.34469162       6.59871794       0.26234572       10       0.00560860      -0.00388802      -0.00683965
In      -1.30542762      -2.30054956       7.18230028       11      -0.00560860       0.00388802       0.00683965
In       4.34469162       2.92069554       1.86116150       12       0.00551630       0.00785061      -0.00003188
In       1.73383638       5.22124510       2.12350722       13      -0.00562017       0.00390782      -0.00677460
In       4.55889600       0.00000000      -0.00000000       14       0.00000000       0.00000000       0.00000000
In       1.51963200       2.14908419       3.72232300       15       0.00000000       0.00000000       0.00000000
O        0.92861554       4.30528535       4.03720278       16      -0.01272362      -0.00288041      -0.00395719
O       -2.11064847       3.49276169       5.41988113       17      -0.01272542      -0.00198901       0.00446883
O       -0.44309625       2.31362421       0.01756115       18      -0.00882531      -0.00474677       0.00924517
O       -0.92861554      -0.79828972       2.01243791       19       0.01273005      -0.00486170       0.00051294
O        3.99655678       5.10659703       1.99487676       20       0.00236413       0.01020034      -0.00873121
O        2.08197122       2.97476875       1.69755813       21      -0.00236670       0.01265908       0.00447012
O        2.08197122       6.42999666       0.29731863       22      -0.00237133      -0.00246363      -0.01320082
O       -2.32900457       6.09379965       3.73988415       23       0.00152929       0.00990286       0.00924826
O        3.48236025       1.98454417       7.42708485       24       0.00882531       0.00474677      -0.00924517
O        5.36826857      -1.79563127       3.70476185       25      -0.00152929      -0.00990286      -0.00924826
O        6.52162426       3.32110470       1.72744624       26       0.00882403       0.00563200       0.00873224
O        3.74952344       2.34101905       4.01964163       27       0.00152904       0.00305293      -0.01319979
O        0.71025943       4.45968643       7.12976622       28       0.00152878      -0.01296376       0.00396053
O        2.32900457      -0.16151805       0.31487978       29      -0.00152878       0.01296376      -0.00396053
O       -3.48236026       0.97706369       5.71719976       30      -0.00882403      -0.00563200      -0.00873224
O        5.14991247       0.80540669       2.02476487       31       0.01272542       0.00198901      -0.00446883
O        0.95729278       1.32339963       5.74708787       32       0.00236670      -0.01265908      -0.00447012
O        3.48236025      -1.00748048       5.73476091       33       0.00882840      -0.01037517       0.00051088
O        2.11064846      -0.00711697       3.40744322       34       0.01272362       0.00288041       0.00395719
O        0.95729278      -2.13182828       7.14732738       35       0.00237133       0.00246363       0.01320082
O       -0.71025944       1.95714933       3.42500437       36      -0.00152904      -0.00305293       0.01319979
O       -0.95729278      -0.80842865       5.44976924       37      -0.00236413      -0.01020034       0.00873121
O       -0.44309625       5.30564886       1.70988509       38      -0.00882840       0.01037517      -0.00051088
O        3.96787954       5.09645810       5.43220809       39      -0.01273005       0.00486170      -0.00051294
40
Lattice="9.117792012565417 7.146254005028421e-10 6.978481206382228e-16 -3.039264004862227 8.596336748473183 -1.2377799103077205e-09 -3.0392640038515943 -4.298168373521956 7.444646004488682" Properties=species:S:1:pos:R:3:spacegroup_kinds:I:1:forces:R:3 spacegroup="P 1" unit_cell=conventional occupancy="_JSON {\"0\": {\"In\": 1}, \"1\": {\"In\": 1}, \"2\": {\"In\": 1}, \"3\": {\"In\": 1}, \"4\": {\"In\": 1}, \"5\": {\"In\": 1}, \"6\": {\"In\": 1}, \"7\": {\"In\": 1}, \"8\": {\"In\": 1}, \"9\": {\"In\": 1}, \"10\": {\"In\": 1}, \"11\": {\"In\": 1}, \"12\": {\"In\": 1}, \"13\": {\"In\": 1}, \"14\": {\"In\": 1}, \"15\": {\"In\": 1}, \"16\": {\"O\": 1}, \"17\": {\"O\": 1}, \"18\": {\"O\": 1}, \"19\": {\"O\": 1}, \"20\": {\"O\": 1}, \"21\": {\"O\": 1}, \"22\": {\"O\": 1}, \"23\": {\"O\": 1}, \"24\": {\"O\": 1}, \"25\": {\"O\": 1}, \"26\": {\"O\": 1}, \"27\": {\"O\": 1}, \"28\": {\"O\": 1}, \"29\": {\"O\": 1}, \"30\": {\"O\": 1}, \"31\": {\"O\": 1}, \"32\": {\"O\": 1}, \"33\": {\"O\": 1}, \"34\": {\"O\": 1}, \"35\": {\"O\": 1}, \"36\": {\"O\": 1}, \"37\": {\"O\": 1}, \"38\": {\"O\": 1}, \"39\": {\"O\": 1}}" n_minim_iter=7 energy=-45150.92666757955 stress="0.05190069898155101 0.0 0.0 0.0 0.05190069898155101 -0.0 0.0 -0.0 0.05190069898155101" pbc="T T T"
In      -4.34695613       3.07376216       5.84305678        0       0.00756701      -0.00523271       0.00907779
In       7.38622013       1.22440622       1.60158923        1      -0.00756701       0.00523271      -0.00907779
In       1.30769213      -0.92467797       5.32391223        2      -0.00751405       0.00514272      -0.00959124
In      -1.51963200      -2.14908418       3.72232300        3       0.00000000       0.00000000       0.00000000
In      -1.30769213       4.14830425       3.46275073        4       0.00715975      -0.00498948      -0.00940767
In       4.77083588      -2.92389803       5.58348450        5       0.00769248       0.01096987      -0.00016327
In      -1.30769213       1.37427034       5.58348450        6       0.00730939       0.01047673      -0.00030339
In      -1.73157188       7.22206641       1.86116150        7      -0.00769248      -0.01096987       0.00016327
In       4.34695613       0.14986413       3.98189528        8      -0.00715975       0.00498948       0.00940767
In      -1.51963200       4.29816838      -0.00000000        9       0.00000000       0.00000000       0.00000000
In       4.34695613       6.59711669       0.25957227       10      -0.00730630       0.00544200       0.00955165
In      -1.30769213      -2.29894831       7.18507373       11       0.00730630      -0.00544200      -0.00955165
In       4.34695613       2.92389804       1.86116150       12      -0.00730939      -0.01047673       0.00030339
In       1.73157188       5.22284635       2.12073378       13       0.00751405      -0.00514272       0.00959124
In       4.55889600       0.00000000      -0.00000000       14       0.00000000       0.00000000       0.00000000
In       1.51963200       2.14908419       3.72232300       15       0.00000000       0.00000000       0.00000000
O        0.92594387       4.30537317       4.03663971       16      -0.01021011      -0.00890193      -0.00466295
O       -2.11332013       3.49223014       5.42008661       17      -0.01021165       0.00043503       0.01003399
O       -0.44440515       2.31212904       0.01943567       18      -0.01142470       0.00126318       0.00856794
O       -0.92594388      -0.79873344       2.01208032       19       0.01021345      -0.00851447       0.00537926
O        3.99694619       5.10812301       1.99264465       20       0.00380086       0.01345356      -0.00315166
O        2.08158182       2.97746480       1.69776361       21      -0.00380112       0.00950074       0.01007230
O        2.08158182       6.42882658       0.29488104       22      -0.00380446       0.00396644      -0.01322138
O       -2.32803122       6.09553208       3.74175867       23      -0.00501288       0.01036283       0.00853941
O        3.48366916       1.98603934       7.42521034       24       0.01142470      -0.00126318      -0.00856794
O        5.36729522      -1.79736370       3.70288734       25       0.00501288      -0.01036283      -0.00853941
O        6.52293316       3.32198049       1.72967835       26       0.01144218       0.00807404       0.00319742
O        3.75049679       2.34177621       4.01720404       27      -0.00499385       0.00226180      -0.01323167
O        0.71123279       4.45719684       7.13032930       28      -0.00498203      -0.01258349       0.00466244
O        2.32803121      -0.15902846       0.31431671       29       0.00498203       0.01258349      -0.00466244
O       -3.48366916       0.97618789       5.71496765       30      -0.01144218      -0.00807404      -0.00319742
O        5.15258413       0.80593824       2.02455939       31       0.01021165      -0.00043503      -0.01003399
O        0.95768218       1.32070358       5.74688239       32       0.00380112      -0.00950074      -0.01007230
O        3.48366916      -1.00985144       5.73440332       33       0.01144038      -0.00678437       0.00536435
O        2.11332013      -0.00720479       3.40800630       34       0.01021011       0.00890193       0.00466295
O        0.95768218      -2.13065820       7.14976496       35       0.00380446      -0.00396644       0.01322138
O       -0.71123279       1.95639217       3.42744196       36       0.00499385      -0.00226180       0.01323167
O       -0.95768219      -0.80995463       5.45200135       37      -0.00380086      -0.01345356       0.00315166
O       -0.44440515       5.30801983       1.71024268       38      -0.01144038       0.00678437      -0.00536435
O        3.96520788       5.09690182       5.43256569       39      -0.01021345       0.00851447      -0.00537926
40