40
Lattice="8.175621190370856 6.407824502033695e-10 2.86204035944593e-14 -2.7252070640610877 7.7080495786179615 -1.1098847511477521e-09 -2.7252070631549077 -3.8540247886681915 6.675366749452998" Properties=species:S:1:pos:R:3:spacegroup_kinds:I:1:forces:R:3 spacegroup="P 1" unit_cell=conventional occupancy="_JSON {\"0\": {\"In\": 1}, \"1\": {\"In\": 1}, \"2\": {\"In\": 1}, \"3\": {\"In\": 1}, \"4\": {\"In\": 1}, \"5\": {\"In\": 1}, \"6\": {\"In\": 1}, \"7\": {\"In\": 1}, \"8\": {\"In\": 1}, \"9\": {\"In\": 1}, \"10\": {\"In\": 1}, \"11\": {\"In\": 1}, \"12\": {\"In\": 1}, \"13\": {\"In\": 1}, \"14\": {\"In\": 1}, \"15\": {\"In\": 1}, \"16\": {\"O\": 1}, \"17\": {\"O\": 1}, \"18\": {\"O\": 1}, \"19\": {\"O\": 1}, \"20\": {\"O\": 1}, \"21\": {\"O\": 1}, \"22\": {\"O\": 1}, \"23\": {\"O\": 1}, \"24\": {\"O\": 1}, \"25\": {\"O\": 1}, \"26\": {\"O\": 1}, \"27\": {\"O\": 1}, \"28\": {\"O\": 1}, \"29\": {\"O\": 1}, \"30\": {\"O\": 1}, \"31\": {\"O\": 1}, \"32\": {\"O\": 1}, \"33\": {\"O\": 1}, \"34\": {\"O\": 1}, \"35\": {\"O\": 1}, \"36\": {\"O\": 1}, \"37\": {\"O\": 1}, \"38\": {\"O\": 1}, \"39\": {\"O\": 1}}" n_minim_iter=7 energy=-45130.28363435037 stress="-0.41938351533320706 5.862486080819753e-17 -6.106226635438361e-16 5.862486080819753e-17 -0.41938351533320506 3.0531133177191805e-16 -6.106226635438361e-16 3.0531133177191805e-16 -0.41938351533320684" pbc="T T T"
In      -3.87761428       2.74188735       5.26396192        0       0.00007636      -0.00004602      -0.00000334
In       6.60282133       1.11213744       1.41140482        1      -0.00007636       0.00004602       0.00000334
In       1.15240721      -0.81487495       4.74908819        2      -0.00002083       0.00000694       0.00001491
In      -1.36260354      -1.92701239       3.33768337        3       0.00000000       0.00000000       0.00000000
In      -1.15240722       3.70539355       3.08024651        4       0.00001723      -0.00005836      -0.00006788
In       4.29800691      -2.59325610       5.00652506        5      -0.00001903       0.00004525      -0.00001954
In      -1.15240722       1.26076869       5.00652506        6      -0.00004859       0.00001106      -0.00000746
In      -1.57279986       6.44728090       1.66884168        7       0.00001903      -0.00004525       0.00001954
In       3.87761427       0.14863125       3.59512024        8      -0.00001723       0.00005836       0.00006788
In      -1.36260354       3.85402479      -0.00000000        9       0.00000000       0.00000000       0.00000000
In       3.87761427       5.92966843       0.25743686       10      -0.00010464       0.00000257       0.00007379
In      -1.15240722      -2.07564364       6.41792988       11       0.00010464      -0.00000257      -0.00007379
In       3.87761427       2.59325611       1.66884168       12       0.00004859      -0.00001106       0.00000746
In       1.57279985       4.66889975       1.92627855       13       0.00002083      -0.00000694      -0.00001491
In       4.08781059       0.00000000      -0.00000000       14       0.00000000       0.00000000       0.00000000
In       1.36260353       1.92701240       3.33768337       15       0.00000000       0.00000000       0.00000000
O        0.77158432       3.84217281       3.70310959       16       0.00005425       0.00051114      -0.00015889
O       -1.95362274       3.21291298       4.83407607       17       0.00005065      -0.00039158      -0.00035944
O       -0.35842540       2.08493812       0.11241908       18       0.00012238      -0.00044506      -0.00027254
O       -0.77158433      -0.65296380       1.86181892       19      -0.00005091       0.00010953      -0.00051988
O        3.68037098       4.57189378       1.74939983       20      -0.00038772      -0.00026508      -0.00024734
O        1.77004314       2.69793459       1.49639269       21       0.00039081       0.00008330      -0.00036381
O        1.77004314       5.72798398       0.25300714       22       0.00038952      -0.00035301       0.00010439
O       -2.08517365       5.42398452       3.45010245       23       0.00046023       0.00002982      -0.00026997
O        3.08363245       1.76908667       6.56294766       24      -0.00012238       0.00044506       0.00027254
O        4.81038070      -1.56995972       3.22526429       25      -0.00046023      -0.00002982       0.00026997
O        5.80883952       3.06683924       1.58828354       26      -0.00012316      -0.00046203       0.00024888
O        3.36524048       2.20289651       3.59069051       27       0.00045971      -0.00024708       0.00011004
O        0.64003341       3.93519334       6.30994052       28       0.00046383       0.00021752       0.00015915
O        2.08517364      -0.08116855       0.36542622       29      -0.00046383      -0.00021752      -0.00015915
O       -3.08363247       0.78718555       5.08708321       30       0.00012316       0.00046203      -0.00024888
O        4.67882980       0.64111182       1.84129067       31      -0.00005065       0.00039158       0.00035944
O        0.95516391       1.15609021       5.17897405       32      -0.00039081      -0.00008330       0.00036381
O        3.08363246      -0.98190111       5.19950229       33      -0.00012470       0.00000874      -0.00051731
O        1.95362273       0.01185199       2.97225715       34      -0.00005425      -0.00051114       0.00015889
O        0.95516391      -1.87395919       6.42235961       35      -0.00038952       0.00035301      -0.00010439
O       -0.64003343       1.65112828       3.08467623       36      -0.00045971       0.00024708      -0.00011004
O       -0.95516393      -0.71786898       4.92596691       37       0.00038772       0.00026508       0.00024734
O       -0.35842540       4.83592591       1.47586445       38       0.00012470      -0.00000874       0.00051731
O        3.49679138       4.50698859       4.81354783       39       0.00005091      -0.00010953       0.00051988
