40
Lattice="8.43127332274653 6.608202873792379e-10 1.4210854715202004e-14 -2.8104244415385384 7.949080720514801 -1.1445924208430824e-09 -2.810424440604007 -3.9745403595965696 6.884105841461979" Properties=species:S:1:pos:R:3:spacegroup_kinds:I:1:forces:R:3 spacegroup="P 1" unit_cell=conventional occupancy="_JSON {\"0\": {\"In\": 1}, \"1\": {\"In\": 1}, \"2\": {\"In\": 1}, \"3\": {\"In\": 1}, \"4\": {\"In\": 1}, \"5\": {\"In\": 1}, \"6\": {\"In\": 1}, \"7\": {\"In\": 1}, \"8\": {\"In\": 1}, \"9\": {\"In\": 1}, \"10\": {\"In\": 1}, \"11\": {\"In\": 1}, \"12\": {\"In\": 1}, \"13\": {\"In\": 1}, \"14\": {\"In\": 1}, \"15\": {\"In\": 1}, \"16\": {\"O\": 1}, \"17\": {\"O\": 1}, \"18\": {\"O\": 1}, \"19\": {\"O\": 1}, \"20\": {\"O\": 1}, \"21\": {\"O\": 1}, \"22\": {\"O\": 1}, \"23\": {\"O\": 1}, \"24\": {\"O\": 1}, \"25\": {\"O\": 1}, \"26\": {\"O\": 1}, \"27\": {\"O\": 1}, \"28\": {\"O\": 1}, \"29\": {\"O\": 1}, \"30\": {\"O\": 1}, \"31\": {\"O\": 1}, \"32\": {\"O\": 1}, \"33\": {\"O\": 1}, \"34\": {\"O\": 1}, \"35\": {\"O\": 1}, \"36\": {\"O\": 1}, \"37\": {\"O\": 1}, \"38\": {\"O\": 1}, \"39\": {\"O\": 1}}" n_minim_iter=4 energy=-45143.80638610556 stress="-0.2212025474310554 0.0 0.0 0.0 -0.2212025474310554 -0.0 0.0 -0.0 -0.22120346558873197" pbc="T T T"
In      -4.01680055       2.84030691       5.40660288        0      -0.00833423       0.00591457      -0.01030652
In       6.82722500       1.13423345       1.47750296        1       0.00833423      -0.00591457       0.01030652
In       1.20637612      -0.85303673       4.91955588        2       0.00836894      -0.00593591       0.01031372
In      -1.40521221      -1.98727018       3.44205292        3       0.00000000       0.00000000       0.00000000
In      -1.20637611       3.83394200       3.19852942        4      -0.00840622       0.00591919       0.01031167
In       4.41447277      -2.69970855       5.16307938        5      -0.00840262      -0.01184173      -0.00002880
In      -1.20637611       1.27483181       5.16307938        6      -0.00836174      -0.01181242       0.00003780
In      -1.60404832       6.67424891       1.72102646        7       0.00840262       0.01184173       0.00002880
In       4.01680056       0.14059836       3.68557642        8       0.00840622      -0.00591919      -0.01031167
In      -1.40521221       3.97454036      -0.00000000        9       0.00000000       0.00000000       0.00000000
In       4.01680056       6.10240890       0.24352350       10       0.00829361      -0.00596445      -0.01031964
In      -1.20637611      -2.12786854       6.64058234       11      -0.00829361       0.00596445       0.01031964
In       4.01680056       2.69970855       1.72102646       12       0.00836174       0.01181242      -0.00003780
In       1.60404833       4.82757709       1.96454996       13      -0.00836894       0.00593591      -0.01031372
In       4.21563667      -0.00000000      -0.00000000       14       0.00000000       0.00000000       0.00000000
In       1.40521223       1.98727018       3.44205292       15       0.00000000       0.00000000       0.00000000
O        0.80093139       3.96551238       3.78532868       16       0.00020029       0.00363734       0.01694768
O       -2.00949305       3.28270479       4.99925996       17       0.00020157       0.01285372      -0.01162473
O       -0.39380336       2.14023965       0.09396178       18       0.01562074       0.00195558       0.00725848
O       -0.80093138      -0.70086355       1.90048280       19      -0.00020209       0.01649568       0.00532090
O        3.76479478       4.72965277       1.80652102       20       0.01205385      -0.01230504      -0.00193707
O        1.85605411       2.78760347       1.55720704       21      -0.01204870      -0.00447398      -0.01162370
O        1.85605411       5.91658966       0.24931398       22      -0.01204408      -0.00782824       0.00968766
O       -2.14910508       5.61967869       3.53601470       23       0.00336223      -0.01537366       0.00725668
O        3.20422781       1.83430071       6.79014406       24      -0.01562074      -0.00195558      -0.00725848
O        4.95952953      -1.64513834       3.34809114       25      -0.00336223       0.01537366      -0.00725668
O        6.01465225       3.13876329       1.63553190       26      -0.01561765       0.00725977       0.00193476
O        3.47174380       2.23970939       3.69136690       27       0.00336583       0.01397292       0.00968843
O        0.66131936       4.06423299       6.54083008       28       0.00336583       0.00140254      -0.01694846
O        2.14910509      -0.08969263       0.34327576       29      -0.00336583      -0.00140254       0.01694846
O       -3.20422780       0.83577706       5.24857394       30       0.01561765      -0.00725977      -0.00193476
O        4.81991750       0.69183557       1.88484588       31      -0.00020157      -0.01285372       0.01162473
O        0.95437034       1.18693689       5.32689880       32       0.01204870       0.00447398       0.01162370
O        3.20422781      -0.99852365       5.34253572       33      -0.01561868      -0.00530753       0.00532218
O        2.00949306       0.00902798       3.09877716       34      -0.00020029      -0.00363734      -0.01694768
O        0.95437034      -1.94204930       6.63479186       35       0.01204408       0.00782824      -0.00968766
O       -0.66131935       1.73483097       3.19273894       36      -0.00336583      -0.01397292      -0.00968843
O       -0.95437033      -0.75511241       5.07758482       37      -0.01205385       0.01230504       0.00193707
O       -0.39380336       4.97306400       1.54157012       38       0.01561868       0.00530753      -0.00532218
O        3.61135583       4.67540391       4.98362304       39       0.00020209      -0.01649568      -0.00532090
40
Lattice="8.43127332274653 6.608202873792379e-10 1.4210854715202004e-14 -2.8104244415385384 7.949080720514801 -1.1445924208430824e-09 -2.810424440604007 -3.9745403595965696 6.884105841461979" Properties=species:S:1:pos:R:3:spacegroup_kinds:I:1:forces:R:3 spacegroup="P 1" unit_cell=conventional occupancy="_JSON {\"0\": {\"In\": 1}, \"1\": {\"In\": 1}, \"2\": {\"In\": 1}, \"3\": {\"In\": 1}, \"4\": {\"In\": 1}, \"5\": {\"In\": 1}, \"6\": {\"In\": 1}, \"7\": {\"In\": 1}, \"8\": {\"In\": 1}, \"9\": {\"In\": 1}, \"10\": {\"In\": 1}, \"11\": {\"In\": 1}, \"12\": {\"In\": 1}, \"13\": {\"In\": 1}, \"14\": {\"In\": 1}, \"15\": {\"In\": 1}, \"16\": {\"O\": 1}, \"17\": {\"O\": 1}, \"18\": {\"O\": 1}, \"19\": {\"O\": 1}, \"20\": {\"O\": 1}, \"21\": {\"O\": 1}, \"22\": {\"O\": 1}, \"23\": {\"O\": 1}, \"24\": {\"O\": 1}, \"25\": {\"O\": 1}, \"26\": {\"O\": 1}, \"27\": {\"O\": 1}, \"28\": {\"O\": 1}, \"29\": {\"O\": 1}, \"30\": {\"O\": 1}, \"31\": {\"O\": 1}, \"32\": {\"O\": 1}, \"33\": {\"O\": 1}, \"34\": {\"O\": 1}, \"35\": {\"O\": 1}, \"36\": {\"O\": 1}, \"37\": {\"O\": 1}, \"38\": {\"O\": 1}, \"39\": {\"O\": 1}}" n_minim_iter=4 energy=-45143.80649127757 stress="-0.2211667392816705 0.0 0.0 0.0 -0.2211667392816705 -0.0 0.0 -0.0 -0.22116765743934705" pbc="T T T"
In      -4.01692033       2.84039161       5.40645618        0      -0.00288761       0.00206151      -0.00362911
In       6.82734478       1.13414875       1.47764966        1       0.00288761      -0.00206151       0.00362911
In       1.20649590      -0.85312143       4.91970258        2       0.00291486      -0.00208671       0.00364171
In      -1.40521221      -1.98727018       3.44205292        3       0.00000000       0.00000000       0.00000000
In      -1.20649589       3.83402670       3.19867612        4      -0.00295908       0.00206254       0.00363297
In       4.41435299      -2.69987795       5.16307938        5      -0.00294597      -0.00413485      -0.00001877
In      -1.20649589       1.27466241       5.16307938        6      -0.00291537      -0.00410297       0.00004037
In      -1.60392854       6.67441831       1.72102646        7       0.00294597       0.00413485       0.00001877
In       4.01692034       0.14051366       3.68542972        8       0.00295908      -0.00206254      -0.00363297
In      -1.40521221       3.97454036      -0.00000000        9       0.00000000       0.00000000       0.00000000
In       4.01692034       6.10232420       0.24337680       10       0.00284261      -0.00210728      -0.00363863
In      -1.20649589      -2.12778384       6.64072904       11      -0.00284261       0.00210728       0.00363863
In       4.01692034       2.69987795       1.72102646       12       0.00291537       0.00410297      -0.00004037
In       1.60392855       4.82766179       1.96440326       13      -0.00291486       0.00208671      -0.00364171
In       4.21563667      -0.00000000      -0.00000000       14       0.00000000       0.00000000       0.00000000
In       1.40521223       1.98727018       3.44205292       15       0.00000000       0.00000000       0.00000000
O        0.80093428       3.96556437       3.78557074       16      -0.00185685       0.00006068       0.00985658
O       -2.00949016       3.28288842       4.99909390       17      -0.00185608       0.00850007      -0.00498203
O       -0.39358024       2.14026756       0.09406545       18       0.00745877       0.00191907       0.00642519
O       -0.80093427      -0.70062792       1.90055880       19       0.00185557       0.00856615       0.00487301
O        3.76496695       4.72947699       1.80649335       20       0.00863505      -0.00485656      -0.00155218
O        1.85588194       2.78753954       1.55704098       21      -0.00863094      -0.00108346      -0.00498074
O        1.85588194       5.91647781       0.24945237       22      -0.00862605      -0.00377078       0.00342908
O       -2.14905702       5.61945903       3.53611837       23       0.00067543      -0.00766652       0.00642313
O        3.20400469       1.83427280       6.79004039       24      -0.00745877      -0.00191907      -0.00642519
O        4.95948147      -1.64491868       3.34798747       25      -0.00067543       0.00766652      -0.00642313
O        6.01442913       3.13886703       1.63555956       26      -0.00745620       0.00651980       0.00154960
O        3.47179186       2.23990900       3.69150530       27       0.00067980       0.00939738       0.00343037
O        0.66136742       4.06425304       6.54058801       28       0.00067954      -0.00172958      -0.00985710
O        2.14905703      -0.08971269       0.34351782       29      -0.00067954       0.00172958       0.00985710
O       -3.20400468       0.83567333       5.24854627       30       0.00745620      -0.00651980      -0.00154960
O        4.81991462       0.69165193       1.88501194       31       0.00185608      -0.00850007       0.00498203
O        0.95454251       1.18700082       5.32706486       32       0.00863094       0.00108346       0.00498074
O        3.20400469      -0.99859947       5.34261172       33      -0.00745620      -0.00460382       0.00487430
O        2.00949018       0.00897598       3.09853509       34       0.00185685      -0.00006068      -0.00985658
O        0.95454251      -1.94193745       6.63465346       35       0.00862605       0.00377078      -0.00342908
O       -0.66136741       1.73463136       3.19260054       36      -0.00067980      -0.00939738      -0.00343037
O       -0.95454250      -0.75493663       5.07761249       37      -0.00863505       0.00485656       0.00155218
O       -0.39358024       4.97313983       1.54149412       38       0.00745620       0.00460382      -0.00487430
O        3.61135872       4.67516828       4.98354704       39      -0.00185557      -0.00856615      -0.00487301
40
Lattice="8.43127332274653 6.608202873792379e-10 1.4210854715202004e-14 -2.8104244415385384 7.949080720514801 -1.1445924208430824e-09 -2.810424440604007 -3.9745403595965696 6.884105841461979" Properties=species:S:1:pos:R:3:spacegroup_kinds:I:1:forces:R:3 spacegroup="P 1" unit_cell=conventional occupancy="_JSON {\"0\": {\"In\": 1}, \"1\": {\"In\": 1}, \"2\": {\"In\": 1}, \"3\": {\"In\": 1}, \"4\": {\"In\": 1}, \"5\": {\"In\": 1}, \"6\": {\"In\": 1}, \"7\": {\"In\": 1}, \"8\": {\"In\": 1}, \"9\": {\"In\": 1}, \"10\": {\"In\": 1}, \"11\": {\"In\": 1}, \"12\": {\"In\": 1}, \"13\": {\"In\": 1}, \"14\": {\"In\": 1}, \"15\": {\"In\": 1}, \"16\": {\"O\": 1}, \"17\": {\"O\": 1}, \"18\": {\"O\": 1}, \"19\": {\"O\": 1}, \"20\": {\"O\": 1}, \"21\": {\"O\": 1}, \"22\": {\"O\": 1}, \"23\": {\"O\": 1}, \"24\": {\"O\": 1}, \"25\": {\"O\": 1}, \"26\": {\"O\": 1}, \"27\": {\"O\": 1}, \"28\": {\"O\": 1}, \"29\": {\"O\": 1}, \"30\": {\"O\": 1}, \"31\": {\"O\": 1}, \"32\": {\"O\": 1}, \"33\": {\"O\": 1}, \"34\": {\"O\": 1}, \"35\": {\"O\": 1}, \"36\": {\"O\": 1}, \"37\": {\"O\": 1}, \"38\": {\"O\": 1}, \"39\": {\"O\": 1}}" n_minim_iter=4 energy=-45143.80654121046 stress="-0.22110155008663643 -0.0 0.0 -0.0 -0.22110155008663643 -0.0 0.0 -0.0 -0.22110155008663643" pbc="T T T"
In      -4.01701780       2.84046053       5.40633681        0       0.00215124      -0.00154420       0.00265338
In       6.82744225       1.13407983       1.47776903        1      -0.00215124       0.00154420      -0.00265338
In       1.20659337      -0.85319035       4.91982195        2      -0.00215073       0.00150872      -0.00263975
In      -1.40521221      -1.98727018       3.44205292        3       0.00000000       0.00000000       0.00000000
In      -1.20659336       3.83409562       3.19879549        4       0.00216693      -0.00151978      -0.00263847
In       4.41425553      -2.70001579       5.16307938        5       0.00214816       0.00304959      -0.00000129
In      -1.20659336       1.27452457       5.16307938        6       0.00214867       0.00304676       0.00001131
In      -1.60383107       6.67455614       1.72102646        7      -0.00214816      -0.00304959       0.00000129
In       4.01701781       0.14044474       3.68531035        8      -0.00216693       0.00151978       0.00263847
In      -1.40521221       3.97454036      -0.00000000        9       0.00000000       0.00000000       0.00000000
In       4.01701781       6.10225528       0.24325743       10      -0.00214841       0.00151001       0.00264181
In      -1.20659336      -2.12771492       6.64084841       11       0.00214841      -0.00151001      -0.00264181
In       4.01701781       2.70001578       1.72102646       12      -0.00214867      -0.00304676      -0.00001131
In       1.60383109       4.82773071       1.96428389       13       0.00215073      -0.00150872       0.00263975
In       4.21563667      -0.00000000      -0.00000000       14       0.00000000       0.00000000       0.00000000
In       1.40521223       1.98727018       3.44205292       15       0.00000000       0.00000000       0.00000000
O        0.80088138       3.96557197       3.78588027       16      -0.00342857      -0.00261970       0.00228725
O       -2.00954306       3.28315269       4.99893256       17      -0.00343088       0.00329410       0.00112511
O       -0.39334157       2.14032565       0.09426121       18      -0.00051371       0.00122667       0.00469663
O       -0.80088137      -0.70035607       1.90070699       19       0.00343088       0.00067003       0.00341571
O        3.76523373       4.72931816       1.80644578       20       0.00424721       0.00204454      -0.00128452
O        1.85561516       2.78750132       1.55687964       21      -0.00425106       0.00213659       0.00112460
O        1.85561516       5.91635720       0.24956614       22      -0.00424721      -0.00009307      -0.00241144
O       -2.14903223       5.61921465       3.53631413       23      -0.00132823       0.00007353       0.00470023
O        3.20376602       1.83421471       6.78984463       24       0.00051371      -0.00122667      -0.00469663
O        4.95945668      -1.64467429       3.34779171       25       0.00132823      -0.00007353      -0.00470023
O        6.01419046       3.13906561       1.63560714       26       0.00051216       0.00468609       0.00128684
O        3.47181665       2.24020073       3.69161906       27      -0.00132618       0.00403689      -0.00241272
O        0.66139221       4.06420570       6.54027849       28      -0.00132720      -0.00410734      -0.00229111
O        2.14903224      -0.08966534       0.34382735       29       0.00132720       0.00410734       0.00229111
O       -3.20376601       0.83547475       5.24849870       30      -0.00051216      -0.00468609      -0.00128684
O        4.81996751       0.69138767       1.88517328       31       0.00343088      -0.00329410      -0.00112511
O        0.95480929       1.18703904       5.32722620       32       0.00425106      -0.00213659      -0.00112460
O        3.20376602      -0.99873996       5.34275991       33       0.00051011      -0.00345865       0.00341468
O        2.00954307       0.00896839       3.09822557       34       0.00342857       0.00261970      -0.00228725
O        0.95480929      -1.94181684       6.63453970       35       0.00424721       0.00009307       0.00241144
O       -0.66139220       1.73433963       3.19248678       36       0.00132618      -0.00403689       0.00241272
O       -0.95480928      -0.75477780       5.07766006       37      -0.00424721      -0.00204454       0.00128452
O       -0.39334157       4.97328032       1.54134593       38      -0.00051011       0.00345865      -0.00341468
O        3.61130582       4.67489643       4.98339885       39      -0.00343088      -0.00067003      -0.00341571
