40
Lattice="8.43127332274653 6.608202873792379e-10 1.4210854715202004e-14 -2.8104244415385384 7.949080720514801 -1.1445924208430824e-09 -2.810424440604007 -3.9745403595965696 6.884105841461979" Properties=species:S:1:pos:R:3:spacegroup_kinds:I:1:forces:R:3 spacegroup="P 1" unit_cell=conventional occupancy="_JSON {\"0\": {\"In\": 1}, \"1\": {\"In\": 1}, \"2\": {\"In\": 1}, \"3\": {\"In\": 1}, \"4\": {\"In\": 1}, \"5\": {\"In\": 1}, \"6\": {\"In\": 1}, \"7\": {\"In\": 1}, \"8\": {\"In\": 1}, \"9\": {\"In\": 1}, \"10\": {\"In\": 1}, \"11\": {\"In\": 1}, \"12\": {\"In\": 1}, \"13\": {\"In\": 1}, \"14\": {\"In\": 1}, \"15\": {\"In\": 1}, \"16\": {\"O\": 1}, \"17\": {\"O\": 1}, \"18\": {\"O\": 1}, \"19\": {\"O\": 1}, \"20\": {\"O\": 1}, \"21\": {\"O\": 1}, \"22\": {\"O\": 1}, \"23\": {\"O\": 1}, \"24\": {\"O\": 1}, \"25\": {\"O\": 1}, \"26\": {\"O\": 1}, \"27\": {\"O\": 1}, \"28\": {\"O\": 1}, \"29\": {\"O\": 1}, \"30\": {\"O\": 1}, \"31\": {\"O\": 1}, \"32\": {\"O\": 1}, \"33\": {\"O\": 1}, \"34\": {\"O\": 1}, \"35\": {\"O\": 1}, \"36\": {\"O\": 1}, \"37\": {\"O\": 1}, \"38\": {\"O\": 1}, \"39\": {\"O\": 1}}" n_minim_iter=4 energy=-45143.09143891115 stress="-0.21797246872500173 -1.3435369339698537e-16 4.163336342344337e-17 -1.3435369339698537e-16 -0.21797246872500173 -5.551115123125783e-17 4.163336342344337e-17 -5.551115123125783e-17 -0.2179724687250012" pbc="T T T"
In      -4.01701780       2.84046053       5.40633681        0       0.00314677      -0.00222375       0.00387080
In       6.82744225       1.13407983       1.47776903        1      -0.00314677       0.00222375      -0.00387080
In       1.20659337      -0.85319035       4.91982195        2      -0.00313726       0.00220446      -0.00384431
In      -1.40521221      -1.98727018       3.44205292        3       0.00000000       0.00000000       0.00000000
In      -1.20659336       3.83409562       3.19879549        4       0.00317248      -0.00220935      -0.00386411
In       4.41425553      -2.70001579       5.16307938        5       0.00311489       0.00443695      -0.00000848
In      -1.20659336       1.27452457       5.16307938        6       0.00315577       0.00445829       0.00003728
In      -1.60383107       6.67455614       1.72102646        7      -0.00311489      -0.00443695       0.00000848
In       4.01701781       0.14044474       3.68531035        8      -0.00317248       0.00220935       0.00386411
In      -1.40521221       3.97454036      -0.00000000        9       0.00000000       0.00000000       0.00000000
In       4.01701781       6.10225528       0.24325743       10      -0.00318071       0.00222812       0.00387311
In      -1.20659336      -2.12771492       6.64084841       11       0.00318071      -0.00222812      -0.00387311
In       4.01701781       2.70001578       1.72102646       12      -0.00315577      -0.00445829      -0.00003728
In       1.60383109       4.82773071       1.96428389       13       0.00313726      -0.00220446       0.00384431
In       4.21563667      -0.00000000      -0.00000000       14       0.00000000       0.00000000       0.00000000
In       1.40521223       1.98727018       3.44205292       15       0.00000000       0.00000000       0.00000000
O        0.80088138       3.96557197       3.78588027       16       0.00370650      -0.00422844       0.00156529
O       -2.00954306       3.28315269       4.99893256       17       0.00370522       0.00347510       0.00288169
O       -0.39334157       2.14032565       0.09426121       18       0.00051756       0.00572816      -0.00102227
O       -0.80088137      -0.70035607       1.90070699       19      -0.00370033      -0.00075642       0.00444544
O        3.76523373       4.72931816       1.80644578       20       0.00203811       0.00016712       0.00546719
O        1.85561516       2.78750132       1.55687964       21      -0.00204146      -0.00465421       0.00287861
O        1.85561516       5.91635720       0.24956614       22      -0.00204017       0.00481928       0.00258602
O       -2.14903223       5.61921465       3.53631413       23      -0.00522165      -0.00239987      -0.00102176
O        3.20376602       1.83421471       6.78984463       24      -0.00051756      -0.00572816       0.00102227
O        4.95945668      -1.64467429       3.34779171       25       0.00522165       0.00239987       0.00102176
O        6.01419046       3.13906561       1.63560714       26      -0.00051679       0.00197435      -0.00547259
O        3.47181665       2.24020073       3.69161906       27      -0.00522345       0.00031933       0.00258936
O        0.66139221       4.06420570       6.54027849       28      -0.00522191       0.00208491      -0.00156760
O        2.14903224      -0.08966534       0.34382735       29       0.00522191      -0.00208491       0.00156760
O       -3.20376601       0.83547475       5.24849870       30       0.00051679      -0.00197435       0.00547259
O        4.81996751       0.69138767       1.88517328       31      -0.00370522      -0.00347510      -0.00288169
O        0.95480929       1.18703904       5.32722620       32       0.00204146       0.00465421      -0.00287861
O        3.20376602      -0.99873996       5.34275991       33      -0.00051859       0.00374327       0.00444672
O        2.00954307       0.00896839       3.09822557       34      -0.00370650       0.00422844      -0.00156529
O        0.95480929      -1.94181684       6.63453970       35       0.00204017      -0.00481928      -0.00258602
O       -0.66139220       1.73433963       3.19248678       36       0.00522345      -0.00031933      -0.00258936
O       -0.95480928      -0.75477780       5.07766006       37      -0.00203811      -0.00016712      -0.00546719
O       -0.39334157       4.97328032       1.54134593       38       0.00051859      -0.00374327      -0.00444672
O        3.61130582       4.67489643       4.98339885       39       0.00370033       0.00075642      -0.00444544
