40
Lattice="8.262602412228262 6.476008618250262e-10 2.1760371282653068e-14 -2.7542008046866506 7.7900562610307045 -1.1216916284695344e-09 -2.7542008037708237 -3.895028129867745 6.746386619710392" Properties=species:S:1:pos:R:3:spacegroup_kinds:I:1:forces:R:3 spacegroup="P 1" unit_cell=conventional occupancy="_JSON {\"0\": {\"In\": 1}, \"1\": {\"In\": 1}, \"2\": {\"In\": 1}, \"3\": {\"In\": 1}, \"4\": {\"In\": 1}, \"5\": {\"In\": 1}, \"6\": {\"In\": 1}, \"7\": {\"In\": 1}, \"8\": {\"In\": 1}, \"9\": {\"In\": 1}, \"10\": {\"In\": 1}, \"11\": {\"In\": 1}, \"12\": {\"In\": 1}, \"13\": {\"In\": 1}, \"14\": {\"In\": 1}, \"15\": {\"In\": 1}, \"16\": {\"O\": 1}, \"17\": {\"O\": 1}, \"18\": {\"O\": 1}, \"19\": {\"O\": 1}, \"20\": {\"O\": 1}, \"21\": {\"O\": 1}, \"22\": {\"O\": 1}, \"23\": {\"O\": 1}, \"24\": {\"O\": 1}, \"25\": {\"O\": 1}, \"26\": {\"O\": 1}, \"27\": {\"O\": 1}, \"28\": {\"O\": 1}, \"29\": {\"O\": 1}, \"30\": {\"O\": 1}, \"31\": {\"O\": 1}, \"32\": {\"O\": 1}, \"33\": {\"O\": 1}, \"34\": {\"O\": 1}, \"35\": {\"O\": 1}, \"36\": {\"O\": 1}, \"37\": {\"O\": 1}, \"38\": {\"O\": 1}, \"39\": {\"O\": 1}}" n_minim_iter=5 energy=-45135.48441159274 stress="-0.34249546123728614 -3.8322097564099895e-16 1.3877787807814457e-16 -3.8322097564099895e-16 -0.34249546123728647 -8.326672684688674e-16 1.3877787807814457e-16 -8.326672684688674e-16 -0.34249546123728475" pbc="T T T"
In      -3.92641971       2.77639800       5.31071753        0       0.00474369      -0.00337406       0.00583640
In       6.68062049       1.11863014       1.43566907        1      -0.00474369       0.00337406      -0.00583640
In       1.17221888      -0.82888392       4.80886238        2      -0.00470589       0.00333986      -0.00577341
In      -1.37710041      -1.94751406       3.37319330        3       0.00000000       0.00000000       0.00000000
In      -1.17221890       3.75015503       3.12226572        4       0.00475114      -0.00333241      -0.00580864
In       4.33618271      -2.63152488       5.05978996        5       0.00473469       0.00671212      -0.00000386
In      -1.17221890       1.26350325       5.05978996        6       0.00472312       0.00668513       0.00002263
In      -1.58198192       6.52655302       1.68659664        7      -0.00473469      -0.00671212       0.00000386
In       3.92641969       0.14487311       3.62412088        8      -0.00475114       0.00333241       0.00580864
In      -1.37710041       3.89502814      -0.00000001        9       0.00000000       0.00000000       0.00000000
In       3.92641969       5.98741531       0.25092757       10      -0.00472774       0.00331338       0.00577907
In      -1.17221890      -2.09238716       6.49545903       11       0.00472774      -0.00331338      -0.00577907
In       3.92641969       2.63152489       1.68659665       12      -0.00472312      -0.00668513      -0.00002263
In       1.58198190       4.72391206       1.93752422       13       0.00470589      -0.00333986       0.00577341
In       4.13130120       0.00000001      -0.00000001       14       0.00000000       0.00000000       0.00000000
In       1.37710039       1.94751407       3.37319330       15       0.00000000       0.00000000       0.00000000
O        0.78110357       3.88399766       3.72979196       16       0.00150949      -0.00268192      -0.00836328
O       -1.97309723       3.23560984       4.89104330       17       0.00150770      -0.00590248       0.00650361
O       -0.37173731       2.10327738       0.10591403       18      -0.00759093       0.00053093      -0.00464033
O       -0.78110359      -0.67044876       1.87444865       19      -0.00150949      -0.00858157      -0.00186096
O        3.70826127       4.62662640       1.76853461       20      -0.00606626       0.00590557       0.00277782
O        1.80014031       2.72923136       1.51784999       21       0.00606369       0.00054456       0.00650232
O        1.80014031       5.79242318       0.25068462       22       0.00606266       0.00535818      -0.00372039
O       -2.10690137       5.49192703       3.47910734       23      -0.00303056       0.00697746      -0.00463904
O        3.12593810       1.79175076       6.64047257       24       0.00759093      -0.00053093       0.00464033
O        4.86110216      -1.59689889       3.26727926       25       0.00303056      -0.00697746       0.00463904
O        5.88013890       3.09087701       1.60465868       26       0.00759170      -0.00375484      -0.00277885
O        3.40150024       2.21454590       3.62387793       27      -0.00302773      -0.00750402      -0.00372064
O        0.64729943       3.97861147       6.38978795       28      -0.00302979       0.00052939       0.00835969
O        2.10690135      -0.08358333       0.35659865       29       0.00302979      -0.00052939      -0.00835969
O       -3.12593812       0.80415114       5.14172792       30      -0.00759170       0.00375484       0.00277885
O        4.72729802       0.65941830       1.85534331       31      -0.00150770       0.00590248      -0.00650361
O        0.95406047       1.16579678       5.22853661       32      -0.00606369      -0.00054456      -0.00650232
O        3.12593810      -0.98759962       5.24764196       33       0.00759118       0.00428500      -0.00186225
O        1.97309721       0.01103048       3.01659464       34      -0.00150949       0.00268192       0.00836328
O        0.95406047      -1.89739504       6.49570199       35      -0.00606266      -0.00535818       0.00372039
O       -0.64729945       1.68048224       3.12250868       36       0.00302773       0.00750402       0.00372064
O       -0.95406049      -0.73159826       4.97785199       37       0.00606626      -0.00590557      -0.00277782
O       -0.37173731       4.88262776       1.49874464       38      -0.00759118      -0.00428500       0.00186225
O        3.53530437       4.56547691       4.87193795       39       0.00150949       0.00858157       0.00186096
