40
Lattice="8.974180801048206 7.033716935807237e-10 -2.816973118990495e-16 -2.9913936010125486 8.460938799785955 -1.2182801218776278e-09 -2.991393600017829 -4.2304693991896025 7.327387941292243" Properties=species:S:1:pos:R:3:spacegroup_kinds:I:1:forces:R:3 spacegroup="P 1" unit_cell=conventional occupancy="_JSON {\"0\": {\"In\": 1}, \"1\": {\"In\": 1}, \"2\": {\"In\": 1}, \"3\": {\"In\": 1}, \"4\": {\"In\": 1}, \"5\": {\"In\": 1}, \"6\": {\"In\": 1}, \"7\": {\"In\": 1}, \"8\": {\"In\": 1}, \"9\": {\"In\": 1}, \"10\": {\"In\": 1}, \"11\": {\"In\": 1}, \"12\": {\"In\": 1}, \"13\": {\"In\": 1}, \"14\": {\"In\": 1}, \"15\": {\"In\": 1}, \"16\": {\"O\": 1}, \"17\": {\"O\": 1}, \"18\": {\"O\": 1}, \"19\": {\"O\": 1}, \"20\": {\"O\": 1}, \"21\": {\"O\": 1}, \"22\": {\"O\": 1}, \"23\": {\"O\": 1}, \"24\": {\"O\": 1}, \"25\": {\"O\": 1}, \"26\": {\"O\": 1}, \"27\": {\"O\": 1}, \"28\": {\"O\": 1}, \"29\": {\"O\": 1}, \"30\": {\"O\": 1}, \"31\": {\"O\": 1}, \"32\": {\"O\": 1}, \"33\": {\"O\": 1}, \"34\": {\"O\": 1}, \"35\": {\"O\": 1}, \"36\": {\"O\": 1}, \"37\": {\"O\": 1}, \"38\": {\"O\": 1}, \"39\": {\"O\": 1}}" n_minim_iter=7 energy=-45151.83615182985 stress="0.017814095240151654 0.0 0.0 0.0 0.017814095240151654 -0.0 0.0 -0.0 0.017814095240151654" pbc="T T T"
In      -4.28078305       3.02697072       5.74821483        0      -0.01253824       0.00881657      -0.01519085
In       7.27217663       1.20349869       1.57917309        1       0.01253824      -0.00881657       0.01519085
In       1.28938943      -0.91173601       5.24286706        2       0.01252513      -0.00883020       0.01523327
In      -1.49569681      -2.11523469       3.66369396        3       0.00000000       0.00000000       0.00000000
In      -1.28938945       4.08458807       3.41102008        4      -0.01239220       0.00885179       0.01527364
In       4.69339775      -2.88108937       5.49554095        5      -0.01247165      -0.01765294       0.00002751
In      -1.28938945       1.34938003       5.49554095        6      -0.01245520      -0.01760254       0.00002031
In      -1.70200418       7.11155878       1.83184697        7       0.01247165       0.01765294      -0.00002751
In       4.28078303       0.14588134       3.91636785        8       0.01239220      -0.00885179      -0.01527364
In      -1.49569681       4.23046940      -0.00000001        9       0.00000000       0.00000000       0.00000000
In       4.28078302       6.49158544       0.25267387       10       0.01253799      -0.00877286      -0.01528701
In      -1.28938945      -2.26111603       7.07471405       11      -0.01253799       0.00877286       0.01528701
In       4.28078303       2.88108938       1.83184697       12       0.01245520       0.01760254      -0.00002031
In       1.70200415       5.14220542       2.08452086       13      -0.01252513       0.00883020      -0.01523327
In       4.48709039       0.00000001      -0.00000001       14       0.00000000       0.00000000       0.00000000
In       1.49569679       2.11523471       3.66369396       15       0.00000000       0.00000000       0.00000000
O        0.89261138       4.23271683       3.98395649       16      -0.01049113       0.00244383      -0.00063043
O       -2.09878222       3.44908383       5.33346335       17      -0.01048470      -0.00177303      -0.00179720
O       -0.43704137       2.27405561       0.04128399       18      -0.00286215      -0.00716952       0.00754259
O       -0.89261141      -0.77913814       1.99003191       19       0.01049524       0.00067517      -0.00244512
O        3.95142147       5.03344288       1.94874791       20       0.00182343       0.00368156      -0.00998462
O        2.03136571       2.94429094       1.66976938       21      -0.00182883       0.01047545      -0.00180080
O        2.03136571       6.31962135       0.27897852       22      -0.00182960      -0.00680031      -0.00817559
O       -2.28968065       5.99973212       3.70497796       23       0.00581249       0.00509053       0.00754207
O        3.42843495       1.95641380       7.28610393       24       0.00286215       0.00716952      -0.00754259
O        5.28107422      -1.76926271       3.62240996       25      -0.00581249      -0.00509053      -0.00754207
O        6.41982855       3.28801550       1.71494604       26       0.00286421       0.00294571       0.00997305
O        3.69310655       2.32397369       3.94267249       27       0.00579681       0.00398212      -0.00817302
O        0.70171295       4.36770241       7.00712540       28       0.00580427      -0.00907702       0.00063121
O        2.28968062      -0.13723300       0.32026252       29      -0.00580427       0.00907702      -0.00063121
O       -3.42843497       0.94245391       5.61244188       30      -0.00286421      -0.00294571      -0.00997305
O        5.09017579       0.78138558       1.99392457       31       0.01048470       0.00177303       0.00179720
O        0.96002787       1.28617847       5.65761854       32       0.00182883      -0.01047545       0.00180080
O        3.42843495      -1.01395988       5.65372588       33       0.00285907      -0.01011523      -0.00243843
O        2.09878219      -0.00224742       3.34343143       34       0.01049113      -0.00244383       0.00063043
O        0.96002787      -2.08915194       7.04840940       35       0.00182960       0.00680031       0.00817559
O       -0.70171298       1.90649572       3.38471543       36      -0.00579681      -0.00398212       0.00817302
O       -0.96002789      -0.80297347       5.37864001       37      -0.00182343      -0.00368156       0.00998462
O       -0.43704137       5.24442929       1.67366204       38      -0.00285907       0.01011523       0.00243843
O        3.88400498       5.00960755       5.33735601       39      -0.01049524      -0.00067517       0.00244512
40
Lattice="8.974180801048206 7.033716935807237e-10 -2.816973118990495e-16 -2.9913936010125486 8.460938799785955 -1.2182801218776278e-09 -2.991393600017829 -4.2304693991896025 7.327387941292243" Properties=species:S:1:pos:R:3:spacegroup_kinds:I:1:forces:R:3 spacegroup="P 1" unit_cell=conventional occupancy="_JSON {\"0\": {\"In\": 1}, \"1\": {\"In\": 1}, \"2\": {\"In\": 1}, \"3\": {\"In\": 1}, \"4\": {\"In\": 1}, \"5\": {\"In\": 1}, \"6\": {\"In\": 1}, \"7\": {\"In\": 1}, \"8\": {\"In\": 1}, \"9\": {\"In\": 1}, \"10\": {\"In\": 1}, \"11\": {\"In\": 1}, \"12\": {\"In\": 1}, \"13\": {\"In\": 1}, \"14\": {\"In\": 1}, \"15\": {\"In\": 1}, \"16\": {\"O\": 1}, \"17\": {\"O\": 1}, \"18\": {\"O\": 1}, \"19\": {\"O\": 1}, \"20\": {\"O\": 1}, \"21\": {\"O\": 1}, \"22\": {\"O\": 1}, \"23\": {\"O\": 1}, \"24\": {\"O\": 1}, \"25\": {\"O\": 1}, \"26\": {\"O\": 1}, \"27\": {\"O\": 1}, \"28\": {\"O\": 1}, \"29\": {\"O\": 1}, \"30\": {\"O\": 1}, \"31\": {\"O\": 1}, \"32\": {\"O\": 1}, \"33\": {\"O\": 1}, \"34\": {\"O\": 1}, \"35\": {\"O\": 1}, \"36\": {\"O\": 1}, \"37\": {\"O\": 1}, \"38\": {\"O\": 1}, \"39\": {\"O\": 1}}" n_minim_iter=7 energy=-45151.83626666189 stress="0.017824194974593553 0.0 0.0 0.0 0.017824194974593553 -0.0 0.0 -0.0 0.017824194974593553" pbc="T T T"
In      -4.28096115       3.02709666       5.74799670        0      -0.01102849       0.00775548      -0.01335508
In       7.27235473       1.20337275       1.57939122        1       0.01102849      -0.00775548       0.01335508
In       1.28956753      -0.91186195       5.24308519        2       0.01102155      -0.00777245       0.01339596
In      -1.49569681      -2.11523469       3.66369396        3       0.00000000       0.00000000       0.00000000
In      -1.28956755       4.08471401       3.41123821        4      -0.01089376       0.00778916       0.01343736
In       4.69321965      -2.88134125       5.49554095        5      -0.01097321      -0.01553126       0.00002648
In      -1.28956755       1.34912815       5.49554095        6      -0.01095727      -0.01547341       0.00002237
In      -1.70182607       7.11181066       1.83184697        7       0.01097321       0.01553126      -0.00002648
In       4.28096113       0.14575540       3.91614971        8       0.01089376      -0.00778916      -0.01343736
In      -1.49569681       4.23046940      -0.00000001        9       0.00000000       0.00000000       0.00000000
In       4.28096113       6.49145950       0.25245574       10       0.01102900      -0.00770971      -0.01345047
In      -1.28956755      -2.26099009       7.07493218       11      -0.01102900       0.00770971       0.01345047
In       4.28096113       2.88134126       1.83184697       12       0.01095727       0.01547341      -0.00002237
In       1.70182605       5.14233136       2.08430273       13      -0.01102155       0.00777245      -0.01339596
In       4.48709039       0.00000001      -0.00000001       14       0.00000000       0.00000000       0.00000000
In       1.49569679       2.11523471       3.66369396       15       0.00000000       0.00000000       0.00000000
O        0.89246152       4.23275179       3.98394742       16      -0.01050681       0.00137991      -0.00142028
O       -2.09893208       3.44905850       5.33343761       17      -0.01050039      -0.00192550      -0.00048054
O       -0.43708225       2.27395321       0.04139172       18      -0.00401375      -0.00651852       0.00746777
O       -0.89246155      -0.77912852       1.98999710       19       0.01051067      -0.00054045      -0.00191907
O        3.95144754       5.03349546       1.94860537       20       0.00168459       0.00485347      -0.00938350
O        2.03133964       2.94444067       1.66974364       21      -0.00168999       0.01054101      -0.00048491
O        2.03133964       6.31952419       0.27886172       22      -0.00169101      -0.00569294      -0.00889010
O       -2.28959774       5.99980479       3.70508569       23       0.00481516       0.00595956       0.00746700
O        3.42847582       1.95651620       7.28599620       24       0.00401375       0.00651852      -0.00746777
O        5.28099131      -1.76933538       3.62230223       25      -0.00481516      -0.00595956      -0.00746700
O        6.41986942       3.28805760       1.71508858       26       0.00401581       0.00320565       0.00937167
O        3.69318947       2.32403066       3.94255569       27       0.00479999       0.00348282      -0.00888779
O        0.70179586       4.36757277       7.00713447       28       0.00480616      -0.00944598       0.00142131
O        2.28959771      -0.13710336       0.32025345       29      -0.00480616       0.00944598      -0.00142131
O       -3.42847585       0.94241181       5.61229934       30      -0.00401581      -0.00320565      -0.00937167
O        5.09032565       0.78141092       1.99395031       31       0.01050039       0.00192550       0.00048054
O        0.96005394       1.28602874       5.65764428       32       0.00168999      -0.01054101       0.00048491
O        3.42847582      -1.01410438       5.65369107       33       0.00401066      -0.00972494      -0.00191213
O        2.09893205      -0.00228238       3.34344050       34       0.01050681      -0.00137991       0.00142028
O        0.96005394      -2.08905478       7.04852620       35       0.00169101       0.00569294       0.00889010
O       -0.70179589       1.90643875       3.38483223       36      -0.00479999      -0.00348282       0.00888779
O       -0.96005396      -0.80302604       5.37878255       37      -0.00168459      -0.00485347       0.00938350
O       -0.43708225       5.24457379       1.67369685       38      -0.00401066       0.00972494       0.00191213
O        3.88385512       5.00959793       5.33739082       39      -0.01051067       0.00054045       0.00191907
40
Lattice="8.974180801048206 7.033716935807237e-10 -2.816973118990495e-16 -2.9913936010125486 8.460938799785955 -1.2182801218776278e-09 -2.991393600017829 -4.2304693991896025 7.327387941292243" Properties=species:S:1:pos:R:3:spacegroup_kinds:I:1:forces:R:3 spacegroup="P 1" unit_cell=conventional occupancy="_JSON {\"0\": {\"In\": 1}, \"1\": {\"In\": 1}, \"2\": {\"In\": 1}, \"3\": {\"In\": 1}, \"4\": {\"In\": 1}, \"5\": {\"In\": 1}, \"6\": {\"In\": 1}, \"7\": {\"In\": 1}, \"8\": {\"In\": 1}, \"9\": {\"In\": 1}, \"10\": {\"In\": 1}, \"11\": {\"In\": 1}, \"12\": {\"In\": 1}, \"13\": {\"In\": 1}, \"14\": {\"In\": 1}, \"15\": {\"In\": 1}, \"16\": {\"O\": 1}, \"17\": {\"O\": 1}, \"18\": {\"O\": 1}, \"19\": {\"O\": 1}, \"20\": {\"O\": 1}, \"21\": {\"O\": 1}, \"22\": {\"O\": 1}, \"23\": {\"O\": 1}, \"24\": {\"O\": 1}, \"25\": {\"O\": 1}, \"26\": {\"O\": 1}, \"27\": {\"O\": 1}, \"28\": {\"O\": 1}, \"29\": {\"O\": 1}, \"30\": {\"O\": 1}, \"31\": {\"O\": 1}, \"32\": {\"O\": 1}, \"33\": {\"O\": 1}, \"34\": {\"O\": 1}, \"35\": {\"O\": 1}, \"36\": {\"O\": 1}, \"37\": {\"O\": 1}, \"38\": {\"O\": 1}, \"39\": {\"O\": 1}}" n_minim_iter=7 energy=-45151.836477958306 stress="0.017844394443477345 0.0 0.0 0.0 0.017844394443477345 -0.0 0.0 -0.0 0.017844394443477345" pbc="T T T"
In      -4.28131870       3.02734948       5.74755879        0      -0.00824759       0.00579115      -0.00995711
In       7.27271228       1.20311993       1.57982913        1       0.00824759      -0.00579115       0.00995711
In       1.28992508      -0.91211477       5.24352310        2       0.00824424      -0.00580504       0.00999568
In      -1.49569681      -2.11523469       3.66369396        3       0.00000000       0.00000000       0.00000000
In      -1.28992510       4.08496683       3.41167611        4      -0.00811774       0.00582252       0.01003604
In       4.69286210      -2.88184690       5.49554095        5      -0.00819411      -0.01159799       0.00002751
In      -1.28992510       1.34862250       5.49554095        6      -0.00817894      -0.01154117       0.00002365
In      -1.70146852       7.11231631       1.83184697        7       0.00819411       0.01159799      -0.00002751
In       4.28131868       0.14550258       3.91571181        8       0.00811774      -0.00582252      -0.01003604
In      -1.49569681       4.23046940      -0.00000001        9       0.00000000       0.00000000       0.00000000
In       4.28131868       6.49120668       0.25201784       10       0.00824810      -0.00574924      -0.01005199
In      -1.28992510      -2.26073727       7.07537008       11      -0.00824810       0.00574924       0.01005199
In       4.28131868       2.88184691       1.83184697       12       0.00817894       0.01154117      -0.00002365
In       1.70146850       5.14258418       2.08386482       13      -0.00824424       0.00580504      -0.00999568
In       4.48709039       0.00000001      -0.00000001       14       0.00000000       0.00000000       0.00000000
In       1.49569679       2.11523471       3.66369396       15       0.00000000       0.00000000       0.00000000
O        0.89212266       4.23279912       3.98390347       16      -0.01036540      -0.00038027      -0.00259013
O       -2.09927094       3.44899676       5.33341860       17      -0.01035872      -0.00205894       0.00162777
O       -0.43720878       2.27374134       0.04163276       18      -0.00575104      -0.00532296       0.00727519
O       -0.89212268      -0.77914292       1.98993413       19       0.01036952      -0.00243381      -0.00098062
O        3.95150229       5.03364902       1.94830136       20       0.00151129       0.00663525      -0.00825247
O        2.03128488       2.94478073       1.66972463       21      -0.00151669       0.01045256       0.00162391
O        2.03128488       6.31933770       0.27857672       22      -0.00151772      -0.00382272      -0.00986789
O       -2.28944016       5.99999471       3.70532673       23       0.00310898       0.00719960       0.00727442
O        3.42860236       1.95672807       7.28575516       24       0.00575104       0.00532296      -0.00727519
O        5.28083373      -1.76952530       3.62206119       25      -0.00310898      -0.00719960      -0.00727442
O        6.41999596       3.28816041       1.71539259       26       0.00575310       0.00363657       0.00824064
O        3.69334704       2.32414444       3.94227069       27       0.00309432       0.00269657      -0.00986532
O        0.70195344       4.36726906       7.00717842       28       0.00309947      -0.00989952       0.00259167
O        2.28944013      -0.13679965       0.32020950       29      -0.00309947       0.00989952      -0.00259167
O       -3.42860238       0.94230900       5.61199533       30      -0.00575310      -0.00363657      -0.00824064
O        5.09066452       0.78147265       1.99396932       31       0.01035872       0.00205894      -0.00162777
O        0.96010869       1.28568868       5.65766329       32       0.00151669      -0.01045256      -0.00162391
O        3.42860236      -1.01441907       5.65362811       33       0.00574873      -0.00896055      -0.00097291
O        2.09927092      -0.00232971       3.34348445       34       0.01036540       0.00038027       0.00259013
O        0.96010869      -2.08886829       7.04881120       35       0.00151772       0.00382272       0.00986789
O       -0.70195347       1.90632497       3.38511723       36      -0.00309432      -0.00269657       0.00986532
O       -0.96010872      -0.80317961       5.37908656       37      -0.00151129      -0.00663525       0.00825247
O       -0.43720878       5.24488848       1.67375982       38      -0.00574873       0.00896055       0.00097291
O        3.88351626       5.00961233       5.33745379       39      -0.01036952       0.00243381       0.00098062
40
Lattice="8.974180801048206 7.033716935807237e-10 -2.816973118990495e-16 -2.9913936010125486 8.460938799785955 -1.2182801218776278e-09 -2.991393600017829 -4.2304693991896025 7.327387941292243" Properties=species:S:1:pos:R:3:spacegroup_kinds:I:1:forces:R:3 spacegroup="P 1" unit_cell=conventional occupancy="_JSON {\"0\": {\"In\": 1}, \"1\": {\"In\": 1}, \"2\": {\"In\": 1}, \"3\": {\"In\": 1}, \"4\": {\"In\": 1}, \"5\": {\"In\": 1}, \"6\": {\"In\": 1}, \"7\": {\"In\": 1}, \"8\": {\"In\": 1}, \"9\": {\"In\": 1}, \"10\": {\"In\": 1}, \"11\": {\"In\": 1}, \"12\": {\"In\": 1}, \"13\": {\"In\": 1}, \"14\": {\"In\": 1}, \"15\": {\"In\": 1}, \"16\": {\"O\": 1}, \"17\": {\"O\": 1}, \"18\": {\"O\": 1}, \"19\": {\"O\": 1}, \"20\": {\"O\": 1}, \"21\": {\"O\": 1}, \"22\": {\"O\": 1}, \"23\": {\"O\": 1}, \"24\": {\"O\": 1}, \"25\": {\"O\": 1}, \"26\": {\"O\": 1}, \"27\": {\"O\": 1}, \"28\": {\"O\": 1}, \"29\": {\"O\": 1}, \"30\": {\"O\": 1}, \"31\": {\"O\": 1}, \"32\": {\"O\": 1}, \"33\": {\"O\": 1}, \"34\": {\"O\": 1}, \"35\": {\"O\": 1}, \"36\": {\"O\": 1}, \"37\": {\"O\": 1}, \"38\": {\"O\": 1}, \"39\": {\"O\": 1}}" n_minim_iter=7 energy=-45151.83682476742 stress="0.017883875223568393 0.0 0.0 0.0 0.017883875223568393 -0.0 0.0 -0.0 0.017883875223568393" pbc="T T T"
In      -4.28206284       3.02787567       5.74664741        0      -0.00294417       0.00203837      -0.00345711
In       7.27345642       1.20259374       1.58074051        1       0.00294417      -0.00203837       0.00345711
In       1.29066922      -0.91264096       5.24443448        2       0.00293157      -0.00204326       0.00348667
In      -1.49569681      -2.11523469       3.66369396        3       0.00000000       0.00000000       0.00000000
In      -1.29066924       4.08549302       3.41258750        4      -0.00281484       0.00207102       0.00352524
In       4.69211796      -2.88289928       5.49554095        5      -0.00288272      -0.00408805       0.00002751
In      -1.29066924       1.34757012       5.49554095        6      -0.00286832      -0.00404897       0.00001208
In      -1.70072438       7.11336869       1.83184697        7       0.00288272       0.00408805      -0.00002751
In       4.28206282       0.14497639       3.91480042        8       0.00281484      -0.00207102      -0.00352524
In      -1.49569681       4.23046940      -0.00000001        9       0.00000000       0.00000000       0.00000000
In       4.28206282       6.49068049       0.25110645       10       0.00294854      -0.00199389      -0.00354067
In      -1.29066924      -2.26021108       7.07628147       11      -0.00294854       0.00199389       0.00354067
In       4.28206282       2.88289929       1.83184697       12       0.00286832       0.00404897      -0.00001208
In       1.70072436       5.14311037       2.08295344       13      -0.00293157       0.00204326      -0.00348667
In       4.48709039       0.00000001      -0.00000001       14       0.00000000       0.00000000       0.00000000
In       1.49569679       2.11523471       3.66369396       15       0.00000000       0.00000000       0.00000000
O        0.89133836       4.23285374       3.98376448       16      -0.00971928      -0.00333344      -0.00424026
O       -2.10005524       3.44884909       5.33344079       17      -0.00971389      -0.00201035       0.00501082
O       -0.43755795       2.27328598       0.04218788       18      -0.00827612      -0.00303339       0.00677511
O       -0.89133839      -0.77923598       1.98981734       19       0.00972314      -0.00533967       0.00075436
O        3.95162449       5.03406257       1.94762945       20       0.00134160       0.00925314      -0.00601895
O        2.03116268       2.94556940       1.66974682       21      -0.00134700       0.00982830       0.00500748
O        2.03116268       6.31896258       0.27788262       22      -0.00134829      -0.00058030      -0.01101872
O       -2.28912723       6.00047569       3.70588185       23       0.00010722       0.00881657       0.00677460
O        3.42895153       1.95718343       7.28520004       24       0.00827612       0.00303339      -0.00677511
O        5.28052081      -1.77000628       3.62150607       25      -0.00010722      -0.00881657      -0.00677460
O        6.42034513       3.28841347       1.71606450       26       0.00827844       0.00434928       0.00600738
O        3.69365997       2.32438469       3.94157659       27       0.00009333       0.00145576      -0.01101512
O        0.70226637       4.36654783       7.00731741       28       0.00009950      -0.01027516       0.00424155
O        2.28912720      -0.13607842       0.32007051       29      -0.00009950       0.01027516      -0.00424155
O       -3.42895155       0.94205594       5.61132342       30      -0.00827844      -0.00434928      -0.00600738
O        5.09144881       0.78162033       1.99394713       31       0.00971389       0.00201035      -0.00501082
O        0.96023089       1.28490001       5.65764110       32       0.00134700      -0.00982830      -0.00500748
O        3.42895153      -1.01512749       5.65351131       33       0.00827304      -0.00738267       0.00076053
O        2.10005521      -0.00238433       3.34362344       34       0.00971928       0.00333344       0.00424026
O        0.96023089      -2.08849317       7.04950530       35       0.00134829       0.00058030       0.01101872
O       -0.70226640       1.90608472       3.38581133       36      -0.00009333      -0.00145576       0.01101512
O       -0.96023092      -0.80359316       5.37975847       37      -0.00134160      -0.00925314       0.00601895
O       -0.43755795       5.24559690       1.67387661       38      -0.00827304       0.00738267      -0.00076053
O        3.88273196       5.00970539       5.33757058       39      -0.00972314       0.00533967      -0.00075436
40
Lattice="8.974180801048206 7.033716935807237e-10 -2.816973118990495e-16 -2.9913936010125486 8.460938799785955 -1.2182801218776278e-09 -2.991393600017829 -4.2304693991896025 7.327387941292243" Properties=species:S:1:pos:R:3:spacegroup_kinds:I:1:forces:R:3 spacegroup="P 1" unit_cell=conventional occupancy="_JSON {\"0\": {\"In\": 1}, \"1\": {\"In\": 1}, \"2\": {\"In\": 1}, \"3\": {\"In\": 1}, \"4\": {\"In\": 1}, \"5\": {\"In\": 1}, \"6\": {\"In\": 1}, \"7\": {\"In\": 1}, \"8\": {\"In\": 1}, \"9\": {\"In\": 1}, \"10\": {\"In\": 1}, \"11\": {\"In\": 1}, \"12\": {\"In\": 1}, \"13\": {\"In\": 1}, \"14\": {\"In\": 1}, \"15\": {\"In\": 1}, \"16\": {\"O\": 1}, \"17\": {\"O\": 1}, \"18\": {\"O\": 1}, \"19\": {\"O\": 1}, \"20\": {\"O\": 1}, \"21\": {\"O\": 1}, \"22\": {\"O\": 1}, \"23\": {\"O\": 1}, \"24\": {\"O\": 1}, \"25\": {\"O\": 1}, \"26\": {\"O\": 1}, \"27\": {\"O\": 1}, \"28\": {\"O\": 1}, \"29\": {\"O\": 1}, \"30\": {\"O\": 1}, \"31\": {\"O\": 1}, \"32\": {\"O\": 1}, \"33\": {\"O\": 1}, \"34\": {\"O\": 1}, \"35\": {\"O\": 1}, \"36\": {\"O\": 1}, \"37\": {\"O\": 1}, \"38\": {\"O\": 1}, \"39\": {\"O\": 1}}" n_minim_iter=7 energy=-45151.837135385395 stress="0.017949982576278986 0.0 0.0 0.0 0.017949982576278986 -0.0 0.0 -0.0 0.017949982576278986" pbc="T T T"
In      -4.28341633       3.02883273       5.74498973        0       0.00566465      -0.00404872       0.00707825
In       7.27480991       1.20163668       1.58239819        1      -0.00566465       0.00404872      -0.00707825
In       1.29202271      -0.91359802       5.24609216        2      -0.00568702       0.00404820      -0.00706256
In      -1.49569681      -2.11523469       3.66369396        3       0.00000000       0.00000000       0.00000000
In      -1.29202273       4.08645008       3.41424517        4       0.00578575      -0.00401838      -0.00701988
In       4.69076447      -2.88481339       5.49554095        5       0.00572945       0.00808663       0.00002494
In      -1.29202273       1.34565601       5.49554095        6       0.00574230       0.00811055      -0.00000103
In      -1.69937090       7.11528280       1.83184697        7      -0.00572945      -0.00808663      -0.00002494
In       4.28341631       0.14401933       3.91314275        8      -0.00578575       0.00401838       0.00701988
In      -1.49569681       4.23046940      -0.00000001        9       0.00000000       0.00000000       0.00000000
In       4.28341630       6.48972343       0.24944878       10      -0.00565514       0.00408754       0.00700857
In      -1.29202273      -2.25925402       7.07793914       11       0.00565514      -0.00408754      -0.00700857
In       4.28341631       2.88481341       1.83184697       12      -0.00574230      -0.00811055       0.00000103
In       1.69937087       5.14406743       2.08129576       13       0.00568702      -0.00404820       0.00706256
In       4.48709039       0.00000001      -0.00000001       14       0.00000000       0.00000000       0.00000000
In       1.49569679       2.11523471       3.66369396       15       0.00000000       0.00000000       0.00000000
O        0.88972119       4.23285502       3.98341116       16      -0.00770637      -0.00715667      -0.00551527
O       -2.10167241       3.44854246       5.33361634       17      -0.00770148      -0.00120353       0.00895901
O       -0.43838489       2.27242058       0.04333127       18      -0.01044819       0.00073302       0.00559729
O       -0.88972121      -0.77954132       1.98963957       19       0.00770894      -0.00835609       0.00342908
O        3.95187447       5.03502806       1.94630829       20       0.00143082       0.01158925      -0.00216744
O        2.03091271       2.94719630       1.66992237       21      -0.00143622       0.00766137       0.00895695
O        2.03091271       6.31830117       0.27638591       22      -0.00143750       0.00392273      -0.01111719
O       -2.28858697       6.00154381       3.70702524       23      -0.00416956       0.00960898       0.00559626
O        3.42977847       1.95804883       7.28405665       24       0.01044819      -0.00073302      -0.00559729
O        5.27998054      -1.77107440       3.62036268       25       0.00416956      -0.00960898      -0.00559626
O        6.42117207       3.28897098       1.71738566       26       0.01045076       0.00521188       0.00215716
O        3.69420023       2.32484084       3.94007988       27      -0.00418164       0.00003985      -0.01111308
O        0.70280663       4.36502357       7.00767073       28      -0.00417599      -0.00965115       0.00551784
O        2.28858694      -0.13455416       0.31971719       29       0.00417599       0.00965115      -0.00551784
O       -3.42977849       0.94149843       5.61000226       30      -0.01045076      -0.00521188      -0.00215716
O        5.09306599       0.78192695       1.99377158       31       0.00770148       0.00120353      -0.00895901
O        0.96048087       1.28327312       5.65746555       32       0.00143622      -0.00766137      -0.00895695
O        3.42977847      -1.01655040       5.65333354       33       0.01044588      -0.00447886       0.00343371
O        2.10167239      -0.00238561       3.34397676       34       0.00770637       0.00715667       0.00551527
O        0.96048087      -2.08783175       7.05100201       35       0.00143750      -0.00392273       0.01111719
O       -0.70280666       1.90562857       3.38730804       36       0.00418164      -0.00003985       0.01111308
O       -0.96048089      -0.80455864       5.38107963       37      -0.00143082      -0.01158925       0.00216744
O       -0.43838489       5.24701981       1.67405438       38      -0.01044588       0.00447886      -0.00343371
O        3.88111479       5.01001073       5.33774835       39      -0.00770894       0.00835609      -0.00342908
40