80
Lattice="11.759848481485639 0.009259229184795622 0.006393367641670571 6.460626527146612 9.826211218855152 0.0063933676416697135 6.4606265271466095 3.4874667786360525 9.186514206194568" Properties=species:S:1:pos:R:3:spacegroup_kinds:I:1:forces:R:3 spacegroup="P 1" unit_cell=conventional occupancy="_JSON {\"0\": {\"In\": 1}, \"1\": {\"In\": 1}, \"2\": {\"In\": 1}, \"3\": {\"In\": 1}, \"4\": {\"O\": 1}, \"5\": {\"O\": 1}, \"6\": {\"O\": 1}, \"7\": {\"O\": 1}, \"8\": {\"O\": 1}, \"9\": {\"O\": 1}}" n_minim_iter=4 energy=-90301.49215428323 stress="-6.258803320866531e-05 -9.273839023521887e-06 -4.723599012941716e-07 -9.273839023521887e-06 -0.00010917072719616945 5.9197959858265566e-06 -4.723599012941716e-07 5.9197959858265566e-06 -8.148328179873924e-05" free_energy=-11287.686572190765 pbc="T T T"
In      10.57848909       5.71030211       3.94288336        0       0.00715882       0.00358542       0.00175733
In      16.45841333       5.71493172       3.94608004        0       0.00841226       0.00378667       0.00188030
In      13.80880235      10.62340772       3.94608004        0       0.00913801       0.00559635       0.00410254
In      19.68872659      10.62803733       3.94927673        0       0.00699145       0.00426251       0.00303600
In      13.80880235       7.45403550       8.53614046        0       0.02016264       0.02003394       0.00041709
In      19.68872659       7.45866511       8.53933715        0       0.00613950       0.00570226       0.00261548
In      17.03911562      12.36714111       8.53933715        0       0.00531208      -0.00170040       0.00059927
In      22.91903986      12.37177072       8.54253383        0       0.00902332       0.00373532       0.00301530
In       7.93233707       4.28190082       2.95659235        1      -0.00948063      -0.00407774      -0.00782815
In      13.81226131       4.28653043       2.95978903        1      -0.00675946      -0.00374757      -0.00331699
In      11.16265033       9.19500643       2.95978903        1      -0.00773655      -0.00628244       0.00181379
In      17.04257457       9.19963604       2.96298572        1      -0.00774302      -0.00417067      -0.00283761
In      11.16265033       6.02563421       7.54984945        1       0.00051233       0.00496467      -0.00225345
In      17.04257457       6.03026382       7.55304614        1      -0.01147810      -0.00366677      -0.00055058
In      14.39296360      10.93873982       7.55304614        1      -0.00860235      -0.00716195      -0.00191867
In      20.27288784      10.94336943       7.55624282        1      -0.00693464      -0.00554284      -0.00279948
In       4.40821371       2.37956780       1.64305813        2       0.02486822       0.00965849      -0.01025765
In      10.28813795       2.38419741       1.64625481        2       0.00343196       0.00508900       0.00054483
In       7.63852697       7.29267341       1.64625481        2       0.00642373      -0.00108951       0.00208166
In      13.51845121       7.29730302       1.64945150        2       0.00859707       0.00239464       0.00306321
In       7.63852697       4.12330119       6.23631523        2       0.00710034       0.00459909       0.00173618
In      13.51845121       4.12793080       6.23951192        2       0.01025158       0.00662354       0.00133708
In      10.86884024       9.03640680       6.23951192        2       0.00937464       0.00326942       0.00654614
In      16.74876448       9.04103641       6.24270860        2       0.00706187       0.00389616       0.00357982
In       1.76206169       0.95116651       0.65676711        3      -0.01005432      -0.00306951      -0.00247825
In       7.64198593       0.95579612       0.65996379        3      -0.00535980       0.00625261      -0.00558381
In       4.99237495       5.86427212       0.65996379        3      -0.00354678      -0.00747413      -0.00358299
In      10.87229919       5.86890173       0.66316048        3      -0.00829726      -0.00517363      -0.00296250
In       4.99237495       2.69489990       5.25002421        3      -0.00704967      -0.00256573      -0.00275546
In      10.87229919       2.69952951       5.25322090        3      -0.00844237      -0.00582848      -0.00629720
In       8.22268822       7.60800551       5.25322090        3      -0.00780774      -0.00412148      -0.00308641
In      14.10261246       7.61263512       5.25641758        3      -0.00866542      -0.00471577       0.00012752
O        6.03091421       2.32198146       0.21673133        4      -0.06245397      -0.05686687       0.02659931
O       11.90502406       2.31776775       0.21992226        4       0.00303280       0.00044445      -0.00086102
O        9.25541308       7.22624375       0.21992226        4       0.00217773       0.00371310      -0.00090424
O       15.13533732       7.23087336       0.22311895        4      -0.00031986       0.00160398      -0.00094255
O        9.25541308       4.05687153       4.80998268        4       0.00149278       0.00060787       0.00074682
O       15.13533732       4.06150114       4.81317937        4       0.00020251       0.00063247      -0.00095240
O       12.48572635       8.96997714       4.81317937        4      -0.00006168       0.00192572      -0.00303162
O       18.36565059       8.97460675       4.81637605        4       0.00046656       0.00081811      -0.00079061
O        7.10065187       5.12386685       1.15310930        5       0.00274474       0.01265725       0.00552675
O       12.98057611       5.12849646       1.15630598        5      -0.00063148       0.00070553      -0.00037825
O       10.33096513      10.03697246       1.15630598        5       0.00734873       0.00917972      -0.00272357
O       16.21088937      10.04160207       1.15950267        5      -0.00098987      -0.00005210      -0.00013241
O       10.33096513       6.86760024       5.74636640        5      -0.00103540      -0.00001443       0.00025940
O       16.21088937       6.87222985       5.74956309        5      -0.00005018       0.00086230      -0.00040075
O       13.56127840      11.78070585       5.74956309        5      -0.00080074       0.00081666       0.00030984
O       19.44120264      11.78533546       5.75275977        5      -0.00107557       0.00153305       0.00111007
O        8.17986103       2.18537276       2.51335413        6       0.00158305      -0.00296264       0.00347020
O       14.05978527       2.19000237       2.51655081        6       0.00122915      -0.00096898      -0.00182438
O       11.41017429       7.09847837       2.51655081        6       0.00092081       0.00165564      -0.00208101
O       17.29009853       7.10310798       2.51974750        6      -0.00050794       0.00147465      -0.00026765
O       11.41017429       3.92910615       7.10661123        6       0.00154227       0.00387200       0.00691217
O       17.29009853       3.93373576       7.10980792        6       0.00092871      -0.00132871      -0.00117800
O       14.64048756       8.84221176       7.10980792        6       0.00121818       0.00048890      -0.00231499
O       20.52041180       8.84684137       7.11300460        6      -0.00050655      -0.00024408      -0.00093145
O        4.16068975       4.47609587       2.08629635        7      -0.00282796      -0.00081128       0.00205288
O       10.04061399       4.48072548       2.08949303        7       0.00151678       0.00061275       0.00146743
O        7.39100301       9.38920148       2.08949303        7       0.00053942       0.00082105       0.00004563
O       13.27092725       9.39383109       2.09268972        7      -0.00282058       0.00276913      -0.00265348
O        7.39100301       6.21982926       6.67955345        7       0.00009075       0.00067115       0.00121761
O       13.27092725       6.22445887       6.68275014        7      -0.00073581      -0.00307321      -0.00756733
O       10.62131628      11.13293487       6.68275014        7      -0.00129123       0.00149214       0.00003317
O       16.50124052      11.13756448       6.68594682        7       0.00008837       0.00147986       0.00148744
O        6.31545096       4.34833049       4.38292490        8      -0.00007059      -0.00058898       0.00179992
O       12.19537520       4.35296010       4.38612158        8      -0.00054274      -0.00135984       0.00115189
O        9.54576422       9.26143610       4.38612158        8       0.00095175      -0.00012444      -0.00061206
O       15.42568846       9.26606571       4.38931827        8      -0.00027133      -0.00092932       0.00056733
O        9.54576422       6.09206388       8.97618200        8       0.00881797      -0.00570767       0.00302439
O       15.42568846       6.09669349       8.97937869        8       0.01321064      -0.00327463      -0.00097262
O       12.77607749      11.00516949       8.97937869        8      -0.00020453       0.00131238      -0.00009701
O       18.65600173      11.00979910       8.98257537        8      -0.00007303       0.00061737       0.00137045
O        5.23989891       1.53760178       3.44654117        9      -0.00017557      -0.00214424      -0.00452306
O       11.11982315       1.54223139       3.44973785        9       0.00057100      -0.00077073       0.00053044
O        8.47021217       6.45070739       3.44973785        9       0.00119531       0.00026191       0.00121195
O       14.35013641       6.45533700       3.45293454        9      -0.00024026      -0.00039494      -0.00040712
O        8.47021217       3.28133517       8.03979827        9       0.00227970      -0.00035732       0.00097859
O       14.35013641       3.28596478       8.04299496        9      -0.00280768      -0.00040669       0.00212760
O       11.70052544       8.19444078       8.04299496        9      -0.00727449       0.00632672      -0.00683037
O       17.58044968       8.19907039       8.04619164        9       0.00161765      -0.00003625      -0.00036771
