80
Lattice="11.759848481485639 0.009259229184795622 0.006393367641670571 6.460626527146612 9.826211218855152 0.0063933676416697135 6.4606265271466095 3.4874667786360525 9.186514206194568" Properties=species:S:1:pos:R:3:spacegroup_kinds:I:1:forces:R:3 spacegroup="P 1" unit_cell=conventional occupancy="_JSON {\"0\": {\"In\": 1}, \"1\": {\"In\": 1}, \"2\": {\"In\": 1}, \"3\": {\"In\": 1}, \"4\": {\"O\": 1}, \"5\": {\"O\": 1}, \"6\": {\"O\": 1}, \"7\": {\"O\": 1}, \"8\": {\"O\": 1}, \"9\": {\"O\": 1}}" n_minim_iter=4 energy=-90301.49196621617 stress="-3.590409031823844e-05 4.448307237347477e-05 1.7041559034629005e-05 4.448307237347477e-05 -8.19554257390805e-05 5.898366694360766e-05 1.7041559034629005e-05 5.898366694360766e-05 -8.059587700461097e-05" free_energy=-11287.686572190765 pbc="T T T"
In      10.58907263       5.71031044       3.94288911        0      -0.12618630       0.01401815       0.00939630
In      16.45841333       5.71493172       3.94608004        0       0.01469604       0.00415942       0.00297640
In      13.80880235      10.62340772       3.94608004        0       0.00954203       0.00764398       0.00269737
In      19.68872659      10.62803733       3.94927673        0       0.00948701      -0.00102252       0.00265474
In      13.80880235       7.45403550       8.53614046        0       0.00877243       0.00573868       0.00644475
In      19.68872659       7.45866511       8.53933715        0       0.00767436       0.00235638      -0.00070718
In      17.03911562      12.36714111       8.53933715        0       0.00649701       0.00408197       0.00179809
In      22.91903986      12.37177072       8.54253383        0       0.00773552       0.00414650       0.00286915
In       7.93233707       4.28190082       2.95659235        1       0.01482719       0.01710307       0.01177465
In      13.81226131       4.28653043       2.95978903        1       0.00611407      -0.00999555      -0.01027381
In      11.16265033       9.19500643       2.95978903        1      -0.01259861       0.00231358      -0.00299550
In      17.04257457       9.19963604       2.96298572        1      -0.00661000      -0.00499527      -0.00296775
In      11.16265033       6.02563421       7.54984945        1      -0.01260533      -0.00275588       0.00017554
In      17.04257457       6.03026382       7.55304614        1      -0.00660903      -0.00430821      -0.00337685
In      14.39296360      10.93873982       7.55304614        1      -0.00758225      -0.00367440      -0.00278730
In      20.27288784      10.94336943       7.55624282        1      -0.00640396      -0.00485802      -0.00273508
In       4.40821371       2.37956780       1.64305813        2       0.00921315       0.00408847       0.00264648
In      10.28813795       2.38419741       1.64625481        2       0.00420804       0.00600032       0.00356758
In       7.63852697       7.29267341       1.64625481        2       0.01339015      -0.00200760       0.01380055
In      13.51845121       7.29730302       1.64945150        2       0.01309962       0.00780365      -0.00344358
In       7.63852697       4.12330119       6.23631523        2       0.01373271       0.00770263      -0.00475623
In      13.51845121       4.12793080       6.23951192        2       0.01342230      -0.00014810       0.01269662
In      10.86884024       9.03640680       6.23951192        2       0.00419719       0.00397367       0.00329453
In      16.74876448       9.04103641       6.24270860        2       0.00919391       0.00409535       0.00266112
In       1.76206169       0.95116651       0.65676711        3      -0.00839115      -0.00498740      -0.00345062
In       7.64198593       0.95579612       0.65996379        3      -0.00678209      -0.00327975      -0.00186861
In       4.99237495       5.86427212       0.65996379        3      -0.00552693      -0.00373854      -0.00247877
In      10.87229919       5.86890173       0.66316048        3      -0.01624972      -0.00783029      -0.00856078
In       4.99237495       2.69489990       5.25002421        3      -0.00560240      -0.00358277      -0.00297768
In      10.87229919       2.69952951       5.25322090        3      -0.02333449      -0.00880336      -0.00005550
In       8.22268822       7.60800551       5.25322090        3       0.00014828      -0.02143643      -0.01769706
In      14.10261246       7.61263512       5.25641758        3      -0.00167517       0.00074053       0.00051333
O        6.02509982       2.31313814       0.21672558        4      -0.00010806       0.00011299      -0.00184158
O       11.90502406       2.31776775       0.21992226        4       0.00038956       0.00128213      -0.00053616
O        9.25541308       7.22624375       0.21992226        4       0.00196597       0.00110977      -0.00260276
O       15.13533732       7.23087336       0.22311895        4      -0.00054875       0.00020645      -0.00047055
O        9.25541308       4.05687153       4.80998268        4       0.01558442       0.00437007      -0.00301538
O       15.13533732       4.06150114       4.81317937        4      -0.00570865       0.00266237      -0.00250688
O       12.48572635       8.96997714       4.81317937        4       0.00022830      -0.00233917      -0.00231209
O       18.36565059       8.97460675       4.81637605        4      -0.00218472       0.00370727       0.00059191
O        7.10065187       5.12386685       1.15310930        5      -0.00096728      -0.00092731      -0.00283959
O       12.98057611       5.12849646       1.15630598        5      -0.00109508       0.00255042       0.00437500
O       10.33096513      10.03697246       1.15630598        5       0.00110429       0.00011871       0.00084013
O       16.21088937      10.04160207       1.15950267        5      -0.00060895       0.00123500       0.00015647
O       10.33096513       6.86760024       5.74636640        5       0.00933678      -0.00459915      -0.00462214
O       16.21088937       6.87222985       5.74956309        5      -0.00175398       0.00056761       0.00026390
O       13.56127840      11.78070585       5.74956309        5      -0.00240481      -0.00121370       0.00027559
O       19.44120264      11.78533546       5.75275977        5      -0.00157362       0.00593468      -0.00195566
O        8.17986103       2.18537276       2.51335413        6      -0.00000223      -0.00212048      -0.00151016
O       14.05978527       2.19000237       2.51655081        6      -0.00036663       0.00280161      -0.00037896
O       11.41017429       7.09847837       2.51655081        6       0.01456131       0.01077252      -0.01233797
O       17.29009853       7.10310798       2.51974750        6      -0.00458988       0.00006074      -0.00217207
O       11.41017429       3.92910615       7.10661123        6       0.00404853       0.00078193      -0.00297008
O       17.29009853       3.93373576       7.10980792        6      -0.00000141      -0.00037506      -0.00087015
O       14.64048756       8.84221176       7.10980792        6       0.00061951      -0.00120003      -0.00161250
O       20.52041180       8.84684137       7.11300460        6       0.00074646       0.00047940       0.00064816
O        4.16068975       4.47609587       2.08629635        7      -0.00358537      -0.00029266       0.00166087
O       10.04061399       4.48072548       2.08949303        7       0.01148409       0.00347533       0.00356480
O        7.39100301       9.38920148       2.08949303        7      -0.00133035       0.00356627      -0.00031961
O       13.27092725       9.39383109       2.09268972        7      -0.00222912      -0.00266175       0.00259475
O        7.39100301       6.21982926       6.67955345        7      -0.00236843       0.00083124       0.00485888
O       13.27092725       6.22445887       6.68275014        7      -0.00151572      -0.00190243      -0.00364627
O       10.62131628      11.13293487       6.68275014        7      -0.00060496       0.00035689       0.00073386
O       16.50124052      11.13756448       6.68594682        7       0.00027858      -0.00093235       0.00181121
O        6.31545096       4.34833049       4.38292490        8      -0.00274622      -0.00125745       0.00113702
O       12.19537520       4.35296010       4.38612158        8       0.03499155      -0.02118798       0.00674307
O        9.54576422       9.26143610       4.38612158        8       0.00296716       0.00229997       0.00102039
O       15.42568846       9.26606571       4.38931827        8      -0.00044639      -0.00111389       0.00071598
O        9.54576422       6.09206388       8.97618200        8       0.00042792      -0.00019591       0.00166414
O       15.42568846       6.09669349       8.97937869        8      -0.00069529      -0.00113821      -0.00001485
O       12.77607749      11.00516949       8.97937869        8      -0.00006135      -0.00078465       0.00025301
O       18.65600173      11.00979910       8.98257537        8      -0.00000718      -0.00183809       0.00357549
O        5.23989891       1.53760178       3.44654117        9      -0.00020297      -0.00130728      -0.00028084
O       11.11982315       1.54223139       3.44973785        9       0.00257035       0.00121516       0.00005247
O        8.47021217       6.45070739       3.44973785        9       0.01928609      -0.00440359       0.00152921
O       14.35013641       6.45533700       3.45293454        9      -0.00560657      -0.00283731       0.00065085
O        8.47021217       3.28133517       8.03979827        9       0.00065622      -0.00104980       0.00092129
O       14.35013641       3.28596478       8.04299496        9       0.00028260      -0.00087278      -0.00036920
O       11.70052544       8.19444078       8.04299496        9       0.00103432      -0.00151554      -0.00101393
O       17.58044968       8.19907039       8.04619164        9       0.00095640      -0.00097421       0.00072606
