40
Lattice="9.137522179947723 7.161762832214733e-10 -3.580688954076094e-15 -3.0458407273244603 8.614938528672628 -1.2404495702243127e-09 -3.0458407263116327 -4.307469263620139 7.460755618698809" Properties=species:S:1:pos:R:3:spacegroup_kinds:I:1:forces:R:3 spacegroup="P 1" unit_cell=conventional occupancy="_JSON {\"0\": {\"In\": 1}, \"1\": {\"In\": 1}, \"2\": {\"In\": 1}, \"3\": {\"In\": 1}, \"4\": {\"In\": 1}, \"5\": {\"In\": 1}, \"6\": {\"In\": 1}, \"7\": {\"In\": 1}, \"8\": {\"In\": 1}, \"9\": {\"In\": 1}, \"10\": {\"In\": 1}, \"11\": {\"In\": 1}, \"12\": {\"In\": 1}, \"13\": {\"In\": 1}, \"14\": {\"In\": 1}, \"15\": {\"In\": 1}, \"16\": {\"O\": 1}, \"17\": {\"O\": 1}, \"18\": {\"O\": 1}, \"19\": {\"O\": 1}, \"20\": {\"O\": 1}, \"21\": {\"O\": 1}, \"22\": {\"O\": 1}, \"23\": {\"O\": 1}, \"24\": {\"O\": 1}, \"25\": {\"O\": 1}, \"26\": {\"O\": 1}, \"27\": {\"O\": 1}, \"28\": {\"O\": 1}, \"29\": {\"O\": 1}, \"30\": {\"O\": 1}, \"31\": {\"O\": 1}, \"32\": {\"O\": 1}, \"33\": {\"O\": 1}, \"34\": {\"O\": 1}, \"35\": {\"O\": 1}, \"36\": {\"O\": 1}, \"37\": {\"O\": 1}, \"38\": {\"O\": 1}, \"39\": {\"O\": 1}}" n_minim_iter=7 energy=-45151.4768221621 stress="0.025312001618334 1.3710706436109072e-13 -6.616788764675987e-14 1.3710706436109072e-13 0.02531200161820857 7.345083375417627e-13 -6.616788764675987e-14 7.345083375417627e-13 0.025312001618319455" free_energy=-45151.4768221621 pbc="T T T"
In      -4.35259566       3.07774991       5.86031421        0       0.00131431      -0.00092936       0.00160970
In       7.39843639       1.22971936       1.60044140        1      -0.00131431       0.00092936      -0.00160970
In       1.30675493      -0.92401527       5.33081921        2      -0.00131431       0.00092936      -0.00160970
In      -1.52292036      -2.15373463       3.73037781        3      -0.00000000       0.00000000       0.00000000
In      -1.30675494       4.15461723       3.46563031        4       0.00131431      -0.00092936      -0.00160970
In       4.78492652      -2.92489787       5.59556671        5       0.00131431       0.00185872       0.00000000
In      -1.30675494       1.38257140       5.59556671        6       0.00131431       0.00185872      -0.00000000
In      -1.73908579       7.23236713       1.86518890        7      -0.00131431      -0.00185872       0.00000000
In       4.35259566       0.15285204       3.99512531        8      -0.00131431       0.00092936       0.00160970
In      -1.52292037       4.30746927      -0.00000000        9      -0.00000000      -0.00000000      -0.00000000
In       4.35259566       6.61405594       0.26474750       10      -0.00131431       0.00092936       0.00160970
In      -1.30675494      -2.30658667       7.19600812       11       0.00131431      -0.00092936      -0.00160970
In       4.35259566       2.92489787       1.86518890       12      -0.00131431      -0.00185872       0.00000000
In       1.73908579       5.23148454       2.12993640       13       0.00131431      -0.00092936       0.00160970
In       4.56876109       0.00000000      -0.00000000       14      -0.00000000       0.00000000      -0.00000000
In       1.52292036       2.15373463       3.73037781       15      -0.00000000      -0.00000000      -0.00000000
O        0.92211734       4.31160515       4.05197490       16      -0.00041933       0.00008775       0.00161167
O       -2.12372339       3.50704526       5.43118639       17      -0.00041933       0.00135187      -0.00088183
O       -0.44337520       2.31885966       0.02842859       18       0.00121751       0.00019445       0.00112288
O       -0.92211734      -0.79628812       2.02240567       19       0.00041933       0.00143962       0.00072984
O        4.01438177       5.12017065       1.99397707       20       0.00141433      -0.00079133      -0.00039304
O        2.07729968       2.98698516       1.70080858       21      -0.00141433      -0.00005528      -0.00088183
O        2.07729968       6.44065476       0.29316849       22      -0.00141433      -0.00073605       0.00048879
O       -2.33403359       6.10626882       3.75880640       23       0.00022251      -0.00121270       0.00112288
O        3.48921592       1.98860961       7.43232702       24      -0.00121751      -0.00019445      -0.00112288
O        5.37987431      -1.79879955       3.70194921       25      -0.00022251       0.00121270      -0.00112288
O        6.53505665       3.33778435       1.73640073       26      -0.00121751       0.00106967       0.00039304
O        3.75764787       2.35582206       4.02354630       27       0.00022251       0.00157880       0.00048879
O        0.71180714       4.46031692       7.13915852       28       0.00022251      -0.00036610      -0.00161167
O        2.33403358      -0.15284765       0.32159709       29      -0.00022251       0.00036610       0.00161167
O       -3.48921592       0.96968492       5.72435488       30       0.00121751      -0.00106967      -0.00039304
O        5.16956411       0.80042401       2.02956923       31       0.00041933      -0.00135187       0.00088183
O        0.96854105       1.32048411       5.75994704       32       0.00141433       0.00005528       0.00088183
O        3.48921592      -1.01892469       5.75278348       33      -0.00121751      -0.00087522       0.00072984
O        2.12372338      -0.00413588       3.40878071       34       0.00041933      -0.00008775      -0.00161167
O        0.96854105      -2.13318549       7.16758712       35       0.00141433       0.00073605      -0.00048879
O       -0.71180714       1.95164721       3.43720931       36      -0.00022251      -0.00157880      -0.00048879
O       -0.96854105      -0.81270138       5.46677854       37      -0.00141433       0.00079133       0.00039304
O       -0.44337520       5.32639396       1.70797213       38       0.00121751       0.00087522      -0.00072984
O        3.96795807       5.10375739       5.43834994       39      -0.00041933      -0.00143962      -0.00072984
