40
Lattice="9.608648218163562 7.530993606508218e-10 6.217248937900877e-15 -3.2028827400978837 9.059120417214956 -1.3044276769846874e-09 -3.2028827390328454 -4.529560207854361 7.845428418120046" Properties=species:S:1:pos:R:3:spacegroup_kinds:I:1:forces:R:3 spacegroup="P 1" unit_cell=conventional occupancy="_JSON {\"0\": {\"In\": 1}, \"1\": {\"In\": 1}, \"2\": {\"In\": 1}, \"3\": {\"In\": 1}, \"4\": {\"In\": 1}, \"5\": {\"In\": 1}, \"6\": {\"In\": 1}, \"7\": {\"In\": 1}, \"8\": {\"In\": 1}, \"9\": {\"In\": 1}, \"10\": {\"In\": 1}, \"11\": {\"In\": 1}, \"12\": {\"In\": 1}, \"13\": {\"In\": 1}, \"14\": {\"In\": 1}, \"15\": {\"In\": 1}, \"16\": {\"O\": 1}, \"17\": {\"O\": 1}, \"18\": {\"O\": 1}, \"19\": {\"O\": 1}, \"20\": {\"O\": 1}, \"21\": {\"O\": 1}, \"22\": {\"O\": 1}, \"23\": {\"O\": 1}, \"24\": {\"O\": 1}, \"25\": {\"O\": 1}, \"26\": {\"O\": 1}, \"27\": {\"O\": 1}, \"28\": {\"O\": 1}, \"29\": {\"O\": 1}, \"30\": {\"O\": 1}, \"31\": {\"O\": 1}, \"32\": {\"O\": 1}, \"33\": {\"O\": 1}, \"34\": {\"O\": 1}, \"35\": {\"O\": 1}, \"36\": {\"O\": 1}, \"37\": {\"O\": 1}, \"38\": {\"O\": 1}, \"39\": {\"O\": 1}}" n_minim_iter=1 energy=-45143.838812222544 stress="0.11947198358653509 -4.928576151277195e-13 1.113378116939775e-13 -4.928576151277195e-13 0.11947198358691712 -2.9334781920946956e-13 1.113378116939775e-13 -2.9334781920946956e-13 0.11947198358666192" free_energy=-45143.838812222544 pbc="T T T"
In      -4.49753025       3.18023414       6.25981552        0       0.08122999      -0.05743827       0.09948601
In       7.70041299       1.34932607       1.58561290        1      -0.08122999       0.05743827      -0.09948601
In       1.29464751      -0.91545403       5.50832710        2      -0.08122999       0.05743827      -0.09948601
In      -1.60144137      -2.26478010       3.92271421        3      -0.00000000       0.00000000       0.00000000
In      -1.29464751       4.31262419       3.54697000        4       0.08122999      -0.05743827      -0.09948601
In       5.11111797      -2.96329812       5.88407131        5       0.08122999       0.11487655      -0.00000000
In      -1.29464751       1.56626209       5.88407131        6       0.08122999       0.11487655      -0.00000000
In      -1.90823523       7.49285833       1.96135710        7      -0.08122999      -0.11487655      -0.00000000
In       4.49753025       0.21693602       4.29845841        8      -0.08122999       0.05743827       0.09948601
In      -1.60144137       4.52956021      -0.00000000        9      -0.00000000      -0.00000000      -0.00000000
In       4.49753025       7.01127633       0.37574420       10      -0.08122999       0.05743827       0.09948601
In      -1.29464751      -2.48171612       7.46968421       11       0.08122999      -0.05743827      -0.09948601
In       4.49753025       2.96329812       1.96135710       12      -0.08122999      -0.11487655      -0.00000000
In       1.90823523       5.44501424       2.33710131       13       0.08122999      -0.05743827       0.09948601
In       4.80432411       0.00000000      -0.00000000       14       0.00000000       0.00000000       0.00000000
In       1.60144137       2.26478011       3.92271421       15       0.00000000       0.00000000      -0.00000000
O        1.06491815       4.53299336       4.23386488       16       0.00691370       0.04053556      -0.03352192
O       -2.13796459       3.66491797       5.72552278       17       0.00691370      -0.04929861      -0.01834387
O       -0.45698300       2.47628449      -0.06113206       18      -0.00595732      -0.04019743      -0.03410758
O       -1.06491816      -0.86120909       2.11395924       19      -0.00691370      -0.00876305      -0.05186579
O        4.16797265       5.35547469       2.17509130       20      -0.04878374      -0.01092897      -0.01775821
O        2.23779282       3.05883313       1.80280857       21       0.04878374       0.00991458      -0.01834387
O        2.23779282       6.82620177       0.37228273       22       0.04878374      -0.02084355       0.00058566
O       -2.48699107       6.39975986       3.86158214       23       0.03591273       0.01901576      -0.03410758
O        3.65986574       2.05327572       7.90656048       24       0.00595732       0.04019743       0.03410758
O        5.68987381      -1.87019964       3.98384627       25      -0.03591273      -0.01901576       0.03410758
O        6.86274848       3.44998043       1.74762290       26       0.00595732      -0.04963674       0.01775821
O        3.91877441       2.40912842       4.29499694       27       0.03591273      -0.03904591       0.00058566
O        0.71589167       4.77979236       7.53427774       28       0.03591273       0.02003015       0.03352192
O        2.48699107      -0.25023215       0.31115067       29      -0.03591273      -0.02003015      -0.03352192
O       -3.65986574       1.07957978       6.09780551       30      -0.00595732       0.04963674      -0.01775821
O        5.34084732       0.86464225       2.11990563       31      -0.00691370       0.04929861       0.01834387
O        0.96508992       1.47072709       6.04261984       32      -0.04878374      -0.00991458       0.01834387
O        3.65986574      -0.97369594       6.03667345       33       0.00595732       0.00943931      -0.05186579
O        2.13796458      -0.00343315       3.61156354       34      -0.00691370      -0.04053556       0.03352192
O        0.96508992      -2.29664156       7.47314568       35      -0.04878374       0.02084355      -0.00058566
O       -0.71589167       2.12043179       3.55043147       36      -0.03591273       0.03904591      -0.00058566
O       -0.96508992      -0.82591448       5.67033711       37       0.04878374       0.01092897       0.01775821
O       -0.45698300       5.50325615       1.80875496       38      -0.00595732      -0.00943931       0.05186579
O        4.26780089       5.39076930       5.73146917       39       0.00691370       0.00876305       0.05186579
40
Lattice="9.60864821816356 7.530993606508217e-10 6.21724893790087e-15 -3.202882740097883 9.059120417214954 -1.3044276769846872e-09 -3.202882739032845 -4.52956020785436 7.845428418120045" Properties=species:S:1:pos:R:3:spacegroup_kinds:I:1:forces:R:3 spacegroup="P 1" unit_cell=conventional occupancy="_JSON {\"0\": {\"In\": 1}, \"1\": {\"In\": 1}, \"2\": {\"In\": 1}, \"3\": {\"In\": 1}, \"4\": {\"In\": 1}, \"5\": {\"In\": 1}, \"6\": {\"In\": 1}, \"7\": {\"In\": 1}, \"8\": {\"In\": 1}, \"9\": {\"In\": 1}, \"10\": {\"In\": 1}, \"11\": {\"In\": 1}, \"12\": {\"In\": 1}, \"13\": {\"In\": 1}, \"14\": {\"In\": 1}, \"15\": {\"In\": 1}, \"16\": {\"O\": 1}, \"17\": {\"O\": 1}, \"18\": {\"O\": 1}, \"19\": {\"O\": 1}, \"20\": {\"O\": 1}, \"21\": {\"O\": 1}, \"22\": {\"O\": 1}, \"23\": {\"O\": 1}, \"24\": {\"O\": 1}, \"25\": {\"O\": 1}, \"26\": {\"O\": 1}, \"27\": {\"O\": 1}, \"28\": {\"O\": 1}, \"29\": {\"O\": 1}, \"30\": {\"O\": 1}, \"31\": {\"O\": 1}, \"32\": {\"O\": 1}, \"33\": {\"O\": 1}, \"34\": {\"O\": 1}, \"35\": {\"O\": 1}, \"36\": {\"O\": 1}, \"37\": {\"O\": 1}, \"38\": {\"O\": 1}, \"39\": {\"O\": 1}}" n_minim_iter=2 energy=-45143.854338044934 stress="0.11789340031609388 -1.659538720211772e-13 -2.0783549962599209e-13 -1.659538720211772e-13 0.11789340031633966 -4.718024218966722e-13 -2.0783549962599209e-13 -4.718024218966722e-13 0.1178934003153357" free_energy=-45143.854338044934 pbc="T T T"
In      -4.49172811       3.17613141       6.26692166        0       0.04428460      -0.03131394       0.05423734
In       7.69461085       1.35342881       1.57850675        1      -0.04428460       0.03131394      -0.05423734
In       1.28884537      -0.91135130       5.50122096        2      -0.04428460       0.03131394      -0.05423734
In      -1.60144137      -2.26478010       3.92271421        3       0.00000000      -0.00000000      -0.00000000
In      -1.28884537       4.30852146       3.53986386        4       0.04428460      -0.03131394      -0.05423734
In       5.11692011      -2.95509265       5.88407131        5       0.04428460       0.06262788       0.00000000
In      -1.28884537       1.57446756       5.88407131        6       0.04428460       0.06262788       0.00000000
In      -1.91403737       7.48465286       1.96135710        7      -0.04428460      -0.06262788      -0.00000000
In       4.49172811       0.22103875       4.30556456        8      -0.04428460       0.03131394       0.05423734
In      -1.60144137       4.52956021      -0.00000000        9      -0.00000000       0.00000000       0.00000000
In       4.49172811       7.01537907       0.38285035       10      -0.04428460       0.03131394       0.05423734
In      -1.28884537      -2.48581885       7.46257807       11       0.04428460      -0.03131394      -0.05423734
In       4.49172811       2.95509265       1.96135710       12      -0.04428460      -0.06262788      -0.00000000
In       1.91403737       5.44091151       2.34420745       13       0.04428460      -0.03131394       0.05423734
In       4.80432411       0.00000000      -0.00000000       14       0.00000000      -0.00000000      -0.00000000
In       1.60144137       2.26478011       3.92271421       15      -0.00000000      -0.00000000       0.00000000
O        1.06541199       4.53588876       4.23147045       16       0.00541498      -0.00804846      -0.00710195
O       -2.13747075       3.66139664       5.72421250       17       0.00541498      -0.00212623       0.01052115
O       -0.45740852       2.47341324      -0.06356832       18      -0.00778780       0.00720955      -0.00564890
O       -1.06541199      -0.86183502       2.11025454       19      -0.00541498      -0.01017470       0.00341920
O        4.16448810       5.35469405       2.17382286       20      -0.00380963       0.00691331       0.00906810
O        2.24127737       3.05954131       1.80149829       21       0.00380963      -0.00439655       0.01052115
O        2.24127737       6.82471295       0.37232456       22       0.00380963       0.01130986      -0.00145305
O       -2.48442588       6.40111812       3.85914589       23      -0.00939316       0.00493923      -0.00564890
O        3.66029126       2.05614697       7.90899673       24       0.00778780      -0.00720955       0.00564890
O        5.68730861      -1.87155791       3.98628252       25       0.00939316      -0.00493923       0.00564890
O        6.86317400       3.44643495       1.74889135       26       0.00778780      -0.00128732      -0.00906810
O        3.92133960       2.40633943       4.29503877       27      -0.00939316      -0.00736170      -0.00145305
O        0.71845686       4.78122308       7.53667217       28      -0.00939316       0.00242247       0.00710195
O        2.48442587      -0.25166287       0.30875625       29       0.00939316      -0.00242247      -0.00710195
O       -3.66029126       1.08312526       6.09653707       30      -0.00778780       0.00128732       0.00906810
O        5.34035349       0.86816357       2.12121591       31      -0.00541498       0.00212623      -0.01052115
O        0.96160536       1.47001890       6.04393012       32      -0.00380963       0.00439655      -0.01052115
O        3.66029126      -0.97302170       6.03296875       33       0.00778780       0.00849686       0.00341920
O        2.13747075      -0.00632855       3.61395796       34      -0.00541498       0.00804846       0.00710195
O        0.96160536      -2.29515274       7.47310385       35      -0.00380963      -0.01130986       0.00145305
O       -0.71845687       2.12322079       3.55038964       36       0.00939316       0.00736170       0.00145305
O       -0.96160537      -0.82513384       5.67160555       37       0.00380963      -0.00691331      -0.00906810
O       -0.45740852       5.50258192       1.81245966       38      -0.00778780      -0.00849686      -0.00341920
O        4.26829473       5.39139523       5.73517387       39       0.00541498       0.01017470      -0.00341920
40
Lattice="9.608648218163559 7.530993606508217e-10 6.21724893790087e-15 -3.202882740097883 9.059120417214952 -1.304427676984687e-09 -3.202882739032845 -4.5295602078543595 7.845428418120045" Properties=species:S:1:pos:R:3:spacegroup_kinds:I:1:forces:R:3 spacegroup="P 1" unit_cell=conventional occupancy="_JSON {\"0\": {\"In\": 1}, \"1\": {\"In\": 1}, \"2\": {\"In\": 1}, \"3\": {\"In\": 1}, \"4\": {\"In\": 1}, \"5\": {\"In\": 1}, \"6\": {\"In\": 1}, \"7\": {\"In\": 1}, \"8\": {\"In\": 1}, \"9\": {\"In\": 1}, \"10\": {\"In\": 1}, \"11\": {\"In\": 1}, \"12\": {\"In\": 1}, \"13\": {\"In\": 1}, \"14\": {\"In\": 1}, \"15\": {\"In\": 1}, \"16\": {\"O\": 1}, \"17\": {\"O\": 1}, \"18\": {\"O\": 1}, \"19\": {\"O\": 1}, \"20\": {\"O\": 1}, \"21\": {\"O\": 1}, \"22\": {\"O\": 1}, \"23\": {\"O\": 1}, \"24\": {\"O\": 1}, \"25\": {\"O\": 1}, \"26\": {\"O\": 1}, \"27\": {\"O\": 1}, \"28\": {\"O\": 1}, \"29\": {\"O\": 1}, \"30\": {\"O\": 1}, \"31\": {\"O\": 1}, \"32\": {\"O\": 1}, \"33\": {\"O\": 1}, \"34\": {\"O\": 1}, \"35\": {\"O\": 1}, \"36\": {\"O\": 1}, \"37\": {\"O\": 1}, \"38\": {\"O\": 1}, \"39\": {\"O\": 1}}" n_minim_iter=3 energy=-45143.85836824019 stress="0.11661241091302751 -1.672416033233131e-13 -1.296126002335483e-13 -1.672416033233131e-13 0.11661241091245352 4.525702886145883e-13 -1.296126002335483e-13 4.525702886145883e-13 0.11661241091287869" free_energy=-45143.85836824019 pbc="T T T"
In      -4.48704070       3.17281691       6.27266254        0       0.01478181      -0.01045232       0.01810395
In       7.68992344       1.35674330       1.57276587        1      -0.01478181       0.01045232      -0.01810395
In       1.28415796      -0.90803680       5.49548008        2      -0.01478181       0.01045232      -0.01810395
In      -1.60144137      -2.26478010       3.92271421        3       0.00000000       0.00000000       0.00000000
In      -1.28415796       4.30520696       3.53412298        4       0.01478181      -0.01045232      -0.01810395
In       5.12160752      -2.94846365       5.88407131        5       0.01478181       0.02090464      -0.00000000
In      -1.28415796       1.58109655       5.88407131        6       0.01478181       0.02090464      -0.00000000
In      -1.91872478       7.47802387       1.96135710        7      -0.01478181      -0.02090464      -0.00000000
In       4.48704070       0.22435325       4.31130543        8      -0.01478181       0.01045232       0.01810395
In      -1.60144137       4.52956021      -0.00000000        9       0.00000000      -0.00000000      -0.00000000
In       4.48704070       7.01869356       0.38859122       10      -0.01478181       0.01045232       0.01810395
In      -1.28415796      -2.48913335       7.45683719       11       0.01478181      -0.01045232      -0.01810395
In       4.48704070       2.94846366       1.96135710       12      -0.01478181      -0.02090464       0.00000000
In       1.91872478       5.43759701       2.34994833       13       0.01478181      -0.01045232       0.01810395
In       4.80432411       0.00000000      -0.00000000       14      -0.00000000      -0.00000000      -0.00000000
In       1.60144137       2.26478011       3.92271421       15      -0.00000000      -0.00000000       0.00000000
O        1.06585152       4.53748472       4.22981149       16       0.00209196      -0.03925448       0.01173260
O       -2.13703122       3.65916195       5.72365984       17       0.00209196       0.02978797       0.02812908
O       -0.45786421       2.47181157      -0.06521739       18      -0.00822780       0.03708514       0.01549002
O       -1.06585152      -0.86247374       2.10804291       19      -0.00209196      -0.00946651       0.03986168
O        4.16223471       5.35438068       2.17326030       20       0.02738705       0.01840968       0.02437166
O        2.24353077       3.05987181       1.80094563       21      -0.02738705      -0.01190164       0.02812908
O        2.24353077       6.82406908       0.37231467       22      -0.02738705       0.03031132      -0.00375742
O       -2.48306770       6.40208164       3.85749682       23      -0.03770680      -0.00460447       0.01549002
O        3.66074694       2.05774865       7.91064580       24       0.00822780      -0.03708514      -0.01549002
O        5.68595043      -1.87252143       3.98793159       25       0.03770680       0.00460447      -0.01549002
O        6.86362968       3.44420598       1.74945390       26       0.00822780       0.03195732      -0.02437166
O        3.92269778       2.40442953       4.29502888       27      -0.03770680       0.01571698      -0.00375742
O        0.71981504       4.78216946       7.53833113       28      -0.03770680      -0.01111251      -0.01173260
O        2.48306769      -0.25260925       0.30709728       29       0.03770680       0.01111251       0.01173260
O       -3.66074695       1.08535424       6.09597451       30      -0.00822780      -0.03195732       0.02437166
O        5.33991396       0.87039826       2.12176857       31      -0.00209196      -0.02978797      -0.02812908
O        0.95935197       1.46968840       6.04448278       32       0.02738705       0.01190164      -0.02812908
O        3.66074694      -0.97239441       6.03075712       33       0.00822780       0.00512782       0.03986168
O        2.13703122      -0.00792451       3.61561692       34      -0.00209196       0.03925448      -0.01173260
O        0.95935197      -2.29450886       7.47311374       35       0.02738705      -0.03031132       0.00375742
O       -0.71981505       2.12513068       3.55039954       36       0.03770680      -0.01571698       0.00375742
O       -0.95935197      -0.82482047       5.67216811       37      -0.02738705      -0.01840968      -0.02437166
O       -0.45786421       5.50195462       1.81467129       38      -0.00822780      -0.00512782      -0.03986168
O        4.26873425       5.39203396       5.73738550       39       0.00209196       0.00946651      -0.03986168
40
Lattice="9.608648218163555 7.530993606508213e-10 6.21724893790088e-15 -3.2028827400978814 9.059120417214949 -1.3044276769846862e-09 -3.202882739032843 -4.529560207854358 7.845428418120041" Properties=species:S:1:pos:R:3:spacegroup_kinds:I:1:forces:R:3 spacegroup="P 1" unit_cell=conventional occupancy="_JSON {\"0\": {\"In\": 1}, \"1\": {\"In\": 1}, \"2\": {\"In\": 1}, \"3\": {\"In\": 1}, \"4\": {\"In\": 1}, \"5\": {\"In\": 1}, \"6\": {\"In\": 1}, \"7\": {\"In\": 1}, \"8\": {\"In\": 1}, \"9\": {\"In\": 1}, \"10\": {\"In\": 1}, \"11\": {\"In\": 1}, \"12\": {\"In\": 1}, \"13\": {\"In\": 1}, \"14\": {\"In\": 1}, \"15\": {\"In\": 1}, \"16\": {\"O\": 1}, \"17\": {\"O\": 1}, \"18\": {\"O\": 1}, \"19\": {\"O\": 1}, \"20\": {\"O\": 1}, \"21\": {\"O\": 1}, \"22\": {\"O\": 1}, \"23\": {\"O\": 1}, \"24\": {\"O\": 1}, \"25\": {\"O\": 1}, \"26\": {\"O\": 1}, \"27\": {\"O\": 1}, \"28\": {\"O\": 1}, \"29\": {\"O\": 1}, \"30\": {\"O\": 1}, \"31\": {\"O\": 1}, \"32\": {\"O\": 1}, \"33\": {\"O\": 1}, \"34\": {\"O\": 1}, \"35\": {\"O\": 1}, \"36\": {\"O\": 1}, \"37\": {\"O\": 1}, \"38\": {\"O\": 1}, \"39\": {\"O\": 1}}" n_minim_iter=4 energy=-45143.8606455186 stress="0.11586258225144219 3.927291906552427e-14 -1.0815831353193761e-14 3.927291906552427e-14 0.11586258225168432 3.4413363182350834e-13 -1.0815831353193761e-14 3.4413363182350834e-13 0.11586258225122437" free_energy=-45143.8606455186 pbc="T T T"
In      -4.48316151       3.17007391       6.27741356        0      -0.00396044       0.00280045      -0.00485053
In       7.68604425       1.35948631       1.56801485        1       0.00396044      -0.00280045       0.00485053
In       1.28027877      -0.90529380       5.49072906        2       0.00396044      -0.00280045       0.00485053
In      -1.60144137      -2.26478010       3.92271421        3      -0.00000000      -0.00000000      -0.00000000
In      -1.28027877       4.30246396       3.52937196        4      -0.00396044       0.00280045       0.00485053
In       5.12548671      -2.94297765       5.88407131        5      -0.00396044      -0.00560091      -0.00000000
In      -1.28027877       1.58658256       5.88407131        6      -0.00396044      -0.00560091       0.00000000
In      -1.92260397       7.47253786       1.96135710        7       0.00396044       0.00560091      -0.00000000
In       4.48316151       0.22709625       4.31605645        8       0.00396044      -0.00280045      -0.00485053
In      -1.60144137       4.52956021      -0.00000000        9      -0.00000000       0.00000000       0.00000000
In       4.48316151       7.02143657       0.39334224       10       0.00396044      -0.00280045      -0.00485053
In      -1.28027877      -2.49187635       7.45208617       11      -0.00396044       0.00280045       0.00485053
In       4.48316151       2.94297765       1.96135710       12       0.00396044       0.00560091       0.00000000
In       1.92260397       5.43485401       2.35469935       13      -0.00396044       0.00280045      -0.00485053
In       4.80432411       0.00000000      -0.00000000       14      -0.00000000      -0.00000000      -0.00000000
In       1.60144137       2.26478011       3.92271421       15      -0.00000000      -0.00000000      -0.00000000
O        1.06626298       4.53551593       4.22970015       16      -0.00634333      -0.02729916       0.01160599
O       -2.13661976       3.66004992       5.72542053       17      -0.00634333       0.02370066       0.01783877
O       -0.45874606       2.47361405      -0.06504068       18      -0.00550714       0.02310938       0.01886289
O       -1.06626298      -0.86355456       2.10969227       19       0.00634333      -0.00359850       0.02944476
O        4.16293474       5.35556353       2.17473294       20       0.02445964       0.01448899       0.01058187
O        2.24283073       3.05918789       1.80270632       21      -0.02445964      -0.00191967       0.01783877
O        2.24283073       6.82593584       0.37202661       22      -0.02445964       0.01640867      -0.00725690
O       -2.48506105       6.40231223       3.85767353       23      -0.02362345      -0.00251095       0.01886289
O        3.66162880       2.05594616       7.91046909       24       0.00550714      -0.02310938      -0.01886289
O        5.68794378      -1.87275202       3.98775488       25       0.02362345       0.00251095      -0.01886289
O        6.86451154       3.44526025       1.74798126       26       0.00550714       0.02789043      -0.01058187
O        3.92070443       2.40446727       4.29474082       27      -0.02362345       0.01759121      -0.00725690
O        0.71782169       4.78190113       7.53844247       28      -0.02362345      -0.01508027      -0.01160599
O        2.48506104      -0.25234092       0.30698594       29       0.02362345       0.01508026       0.01160599
O       -3.66162880       1.08429996       6.09744715       30      -0.00550714      -0.02789043       0.01058187
O        5.33950250       0.86951029       2.12000788       31       0.00634333      -0.02370066      -0.01783877
O        0.96005200       1.47037232       6.04272209       32       0.02445964       0.00191967      -0.01783877
O        3.66162880      -0.97164620       6.03240647       33       0.00550714      -0.00478105       0.02944476
O        2.13661976      -0.00595572       3.61572826       34       0.00634333       0.02729916      -0.01160599
O        0.96005200      -2.29637563       7.47340180       35       0.02445964      -0.01640867       0.00725690
O       -0.71782170       2.12509294       3.55068759       36       0.02362345      -0.01759121       0.00725690
O       -0.96005201      -0.82600331       5.67069547       37      -0.02445964      -0.01448899      -0.01058187
O       -0.45874606       5.50120641       1.81302194       38      -0.00550714       0.00478105      -0.02944476
O        4.26914572       5.39311478       5.73573615       39      -0.00634333       0.00359850      -0.02944476
40
Lattice="9.60864821816355 7.530993606508209e-10 6.217248937900878e-15 -3.2028827400978797 9.059120417214944 -1.3044276769846856e-09 -3.2028827390328414 -4.529560207854355 7.845428418120036" Properties=species:S:1:pos:R:3:spacegroup_kinds:I:1:forces:R:3 spacegroup="P 1" unit_cell=conventional occupancy="_JSON {\"0\": {\"In\": 1}, \"1\": {\"In\": 1}, \"2\": {\"In\": 1}, \"3\": {\"In\": 1}, \"4\": {\"In\": 1}, \"5\": {\"In\": 1}, \"6\": {\"In\": 1}, \"7\": {\"In\": 1}, \"8\": {\"In\": 1}, \"9\": {\"In\": 1}, \"10\": {\"In\": 1}, \"11\": {\"In\": 1}, \"12\": {\"In\": 1}, \"13\": {\"In\": 1}, \"14\": {\"In\": 1}, \"15\": {\"In\": 1}, \"16\": {\"O\": 1}, \"17\": {\"O\": 1}, \"18\": {\"O\": 1}, \"19\": {\"O\": 1}, \"20\": {\"O\": 1}, \"21\": {\"O\": 1}, \"22\": {\"O\": 1}, \"23\": {\"O\": 1}, \"24\": {\"O\": 1}, \"25\": {\"O\": 1}, \"26\": {\"O\": 1}, \"27\": {\"O\": 1}, \"28\": {\"O\": 1}, \"29\": {\"O\": 1}, \"30\": {\"O\": 1}, \"31\": {\"O\": 1}, \"32\": {\"O\": 1}, \"33\": {\"O\": 1}, \"34\": {\"O\": 1}, \"35\": {\"O\": 1}, \"36\": {\"O\": 1}, \"37\": {\"O\": 1}, \"38\": {\"O\": 1}, \"39\": {\"O\": 1}}" n_minim_iter=5 energy=-45143.8614921003 stress="0.11599669012706719 2.0929100503541354e-13 -3.778776868666233e-13 2.0929100503541354e-13 0.1159966901270179 -9.964855313412713e-14 -3.778776868666233e-13 -9.964855313412713e-14 0.11599669012753891" free_energy=-45143.8614921003 pbc="T T T"
In      -4.48295452       3.16992754       6.27766707        0      -0.00171516       0.00121280      -0.00210064
In       7.68583726       1.35963267       1.56776135        1       0.00171516      -0.00121280       0.00210064
In       1.28007178      -0.90514743       5.49047555        2       0.00171516      -0.00121280       0.00210064
In      -1.60144137      -2.26478010       3.92271421        3      -0.00000000       0.00000000       0.00000000
In      -1.28007178       4.30231759       3.52911845        4      -0.00171516       0.00121280       0.00210064
In       5.12569370      -2.94268492       5.88407131        5      -0.00171516      -0.00242561      -0.00000000
In      -1.28007178       1.58687529       5.88407131        6      -0.00171516      -0.00242561       0.00000000
In      -1.92281096       7.47224513       1.96135710        7       0.00171516       0.00242561      -0.00000000
In       4.48295452       0.22724262       4.31630996        8       0.00171516      -0.00121280      -0.00210064
In      -1.60144137       4.52956021      -0.00000000        9       0.00000000      -0.00000000      -0.00000000
In       4.48295452       7.02158293       0.39359575       10       0.00171516      -0.00121280      -0.00210064
In      -1.28007178      -2.49202272       7.45183266       11      -0.00171516       0.00121280       0.00210064
In       4.48295452       2.94268493       1.96135710       12       0.00171516       0.00242561       0.00000000
In       1.92281096       5.43470765       2.35495286       13      -0.00171516       0.00121280      -0.00210064
In       4.80432411       0.00000000      -0.00000000       14      -0.00000000      -0.00000000       0.00000000
In       1.60144137       2.26478011       3.92271421       15      -0.00000000       0.00000000       0.00000000
O        1.06620559       4.53372738       4.23034261       16      -0.00922245      -0.00724298       0.00338731
O       -2.13667715       3.66150059       5.72664823       17      -0.00922245       0.00655498       0.00457895
O       -0.45908375       2.47526292      -0.06415628       18      -0.00372280       0.00266614       0.01131462
O       -1.06620559      -0.86389245       2.11156243       19       0.00922245      -0.00068800       0.00796625
O        4.16432157       5.35641202       2.17571870       20       0.00925425       0.00722050      -0.00334837
O        2.24144391       3.05875845       1.80393402       21      -0.00925425       0.00651002       0.00457895
O        2.24144391       6.82721378       0.37178468       22      -0.00925425       0.00071048      -0.00792732
O       -2.48672818       6.40208099       3.85855793       23      -0.00375459       0.00262118       0.01131462
O        3.66196649       2.05429730       7.90958469       24       0.00372280      -0.00266614      -0.01131462
O        5.68961091      -1.87252077       3.98687048       25       0.00375459      -0.00262118      -0.01131462
O        6.86484923       3.44685060       1.74699550       26       0.00372280       0.01113182       0.00334837
O        3.91903730       2.40534881       4.29449889       27      -0.00375459       0.00848816      -0.00792732
O        0.71615456       4.78125084       7.53780001       28      -0.00375459      -0.01110934      -0.00338731
O        2.48672817      -0.25169063       0.30762840       29       0.00375459       0.01110934       0.00338731
O       -3.66196649       1.08270961       6.09843291       30      -0.00372280      -0.01113182      -0.00334837
O        5.33955988       0.86805963       2.11878018       31       0.00922245      -0.00655498      -0.00457895
O        0.96143883       1.47080177       6.04149439       32       0.00925425      -0.00651002      -0.00457895
O        3.66196649      -0.97158768       6.03427663       33       0.00372280      -0.00846568       0.00796625
O        2.13667715      -0.00416717       3.61508580       34       0.00922245       0.00724298      -0.00338731
O        0.96143883      -2.29765357       7.47364373       35       0.00925425      -0.00071048       0.00792732
O       -0.71615457       2.12421141       3.55092952       36       0.00375459      -0.00848816       0.00792732
O       -0.96143883      -0.82685181       5.66970971       37      -0.00925425      -0.00722050       0.00334837
O       -0.45908375       5.50114789       1.81115178       38      -0.00372280       0.00846568      -0.00796625
O        4.26908833       5.39345266       5.73386599       39      -0.00922245       0.00068800      -0.00796625
40