40
Lattice="8.449517918990276 6.622493268807868e-10 6.1574639951405716e-15 -2.816505973621137 7.966281890812943 -1.1470739676547384e-09 -2.8165059726845763 -3.9831409447442017 6.899002491916652" Properties=species:S:1:pos:R:3:spacegroup_kinds:I:1:forces:R:3 spacegroup="P 1" unit_cell=conventional occupancy="_JSON {\"0\": {\"In\": 1}, \"1\": {\"In\": 1}, \"2\": {\"In\": 1}, \"3\": {\"In\": 1}, \"4\": {\"In\": 1}, \"5\": {\"In\": 1}, \"6\": {\"In\": 1}, \"7\": {\"In\": 1}, \"8\": {\"In\": 1}, \"9\": {\"In\": 1}, \"10\": {\"In\": 1}, \"11\": {\"In\": 1}, \"12\": {\"In\": 1}, \"13\": {\"In\": 1}, \"14\": {\"In\": 1}, \"15\": {\"In\": 1}, \"16\": {\"O\": 1}, \"17\": {\"O\": 1}, \"18\": {\"O\": 1}, \"19\": {\"O\": 1}, \"20\": {\"O\": 1}, \"21\": {\"O\": 1}, \"22\": {\"O\": 1}, \"23\": {\"O\": 1}, \"24\": {\"O\": 1}, \"25\": {\"O\": 1}, \"26\": {\"O\": 1}, \"27\": {\"O\": 1}, \"28\": {\"O\": 1}, \"29\": {\"O\": 1}, \"30\": {\"O\": 1}, \"31\": {\"O\": 1}, \"32\": {\"O\": 1}, \"33\": {\"O\": 1}, \"34\": {\"O\": 1}, \"35\": {\"O\": 1}, \"36\": {\"O\": 1}, \"37\": {\"O\": 1}, \"38\": {\"O\": 1}, \"39\": {\"O\": 1}}" n_minim_iter=3 energy=-45148.623851685064 stress="-0.12075154312281647 -1.1039136797189654e-13 -3.049809984785198e-13 -1.1039136797189654e-13 -0.12075154312478906 3.832790655597938e-13 -3.049809984785198e-13 3.832790655597938e-13 -0.12075154312545192" free_energy=-45148.623851685064 pbc="T T T"
In      -4.03141919       2.85064385       5.41104376        0       0.00140347      -0.00099240       0.00171889
In       6.84792516       1.13249710       1.48795873        1      -0.00140347       0.00099240      -0.00171889
In       1.21491322      -0.85907337       4.93745998        2      -0.00140347       0.00099240      -0.00171889
In      -1.40825299      -1.99157047       3.44950124        3       0.00000000      -0.00000000      -0.00000000
In      -1.21491322       3.84642909       3.21270935        4       0.00140347      -0.00099240      -0.00171889
In       4.41809873      -2.71393198       5.17425187        5       0.00140347       0.00198481       0.00000000
In      -1.21491322       1.26920896       5.17425187        6       0.00140347       0.00198481      -0.00000000
In      -1.60159276       6.69707293       1.72475062        7      -0.00140347      -0.00198481      -0.00000000
In       4.03141919       0.13671186       3.68629313        8      -0.00140347       0.00099240       0.00171889
In      -1.40825299       3.98314095      -0.00000000        9       0.00000000       0.00000000       0.00000000
In       4.03141919       6.11142328       0.23679189       10      -0.00140347       0.00099240       0.00171889
In      -1.21491322      -2.12828233       6.66221060       11       0.00140347      -0.00099240      -0.00171889
In       4.03141919       2.71393199       1.72475062       12      -0.00140347      -0.00198481       0.00000000
In       1.60159275       4.84221432       1.96154251       13       0.00140347      -0.00099240       0.00171889
In       4.22475896       0.00000000      -0.00000000       14      -0.00000000       0.00000000       0.00000000
In       1.40825298       1.99157047       3.44950124       15       0.00000000       0.00000000      -0.00000000
O        0.81828441       3.97905211       3.77246815       16      -0.00256406       0.00704514       0.00013540
O       -1.99822157       3.26909768       5.01630945       17      -0.00256406      -0.00340531      -0.00616897
O       -0.40429998       2.14202491       0.06945425       18       0.00257698      -0.00704057       0.00012749
O       -0.81828441      -0.71813210       1.88977511       19       0.00256406       0.00363983      -0.00603357
O        3.74820870       4.74137249       1.82032086       20      -0.00235587      -0.00356622      -0.00616106
O        1.88480324       2.78581261       1.56680820       21       0.00235587       0.00355253      -0.00616897
O        1.88480324       5.93870082       0.25351265       22       0.00235587      -0.00711875       0.00000791
O       -2.15428711       5.64188079       3.51895550       23       0.00749691      -0.00008274       0.00012749
O        3.22080595       1.84111604       6.82954824       24      -0.00257698       0.00704057      -0.00012749
O        4.97079308      -1.65873984       3.38004699       25      -0.00749691       0.00008274      -0.00012749
O        6.03731192       3.12273208       1.62918038       26      -0.00257698      -0.00340987       0.00616106
O        3.47872484       2.21813494       3.70301390       27       0.00749691       0.00015178       0.00000791
O        0.66221886       4.08940712       6.57603558       28       0.00749691      -0.00006904      -0.00013540
O        2.15428711      -0.10626617       0.32296691       29      -0.00749691       0.00006904       0.00013540
O       -3.22080595       0.86040887       5.26982210       30       0.00257698       0.00340987      -0.00616106
O        4.81472754       0.71404327       1.88269304       31       0.00256406       0.00340531       0.00616897
O        0.93170273       1.19732834       5.33219429       32      -0.00235587      -0.00355253       0.00616897
O        3.22080595      -0.98070716       5.33927636       33      -0.00257698      -0.00363070      -0.00603357
O        1.99822156       0.00408884       3.12653433       34       0.00256406      -0.00704514      -0.00013540
O        0.93170273      -1.95555987       6.64548983       35      -0.00235587       0.00711875      -0.00000791
O       -0.66221887       1.76500601       3.19598859       36      -0.00749691      -0.00015178      -0.00000791
O       -0.93170273      -0.75823154       5.07868163       37       0.00235587       0.00356622       0.00616106
O       -0.40429998       4.96384811       1.55972613       38       0.00257698       0.00363070       0.00603357
O        3.63479038       4.70127305       5.00922738       39      -0.00256406      -0.00363983       0.00603357
