40
Lattice="8.104247776592642 6.351881243205109e-10 2.042810365310299e-14 -2.701415926129745 7.640758078781151 -1.100201263426478e-09 -2.7014159252314704 -3.820379038755374 6.61709060112912" Properties=species:S:1:pos:R:3:spacegroup_kinds:I:1:forces:R:3 spacegroup="P 1" unit_cell=conventional occupancy="_JSON {\"0\": {\"In\": 1}, \"1\": {\"In\": 1}, \"2\": {\"In\": 1}, \"3\": {\"In\": 1}, \"4\": {\"In\": 1}, \"5\": {\"In\": 1}, \"6\": {\"In\": 1}, \"7\": {\"In\": 1}, \"8\": {\"In\": 1}, \"9\": {\"In\": 1}, \"10\": {\"In\": 1}, \"11\": {\"In\": 1}, \"12\": {\"In\": 1}, \"13\": {\"In\": 1}, \"14\": {\"In\": 1}, \"15\": {\"In\": 1}, \"16\": {\"O\": 1}, \"17\": {\"O\": 1}, \"18\": {\"O\": 1}, \"19\": {\"O\": 1}, \"20\": {\"O\": 1}, \"21\": {\"O\": 1}, \"22\": {\"O\": 1}, \"23\": {\"O\": 1}, \"24\": {\"O\": 1}, \"25\": {\"O\": 1}, \"26\": {\"O\": 1}, \"27\": {\"O\": 1}, \"28\": {\"O\": 1}, \"29\": {\"O\": 1}, \"30\": {\"O\": 1}, \"31\": {\"O\": 1}, \"32\": {\"O\": 1}, \"33\": {\"O\": 1}, \"34\": {\"O\": 1}, \"35\": {\"O\": 1}, \"36\": {\"O\": 1}, \"37\": {\"O\": 1}, \"38\": {\"O\": 1}, \"39\": {\"O\": 1}}" n_minim_iter=6 energy=-45131.72746755995 stress="-0.4064814133100849 -5.233760964484738e-13 -2.018729346590922e-13 -5.233760964484738e-13 -0.40648141331169557 -7.707865464665203e-13 -2.018729346590922e-13 -7.707865464665203e-13 -0.4064814133130556" free_energy=-45131.72746755995 pbc="T T T"
In      -3.84558069       2.71923619       5.21578067        0      -0.00525214       0.00371382      -0.00643253
In       6.54699662       1.10114286       1.40130993        1       0.00525214      -0.00371382       0.00643253
In       1.14416476      -0.80904666       4.70985523        2       0.00525214      -0.00371382       0.00643253
In      -1.35070796      -1.91018952       3.30854530        3      -0.00000000      -0.00000000       0.00000000
In      -1.14416477       3.67433095       3.05558258        4      -0.00525214       0.00371382       0.00643253
In       4.25866708      -2.57318809       4.96281795        5      -0.00525214      -0.00742765      -0.00000000
In      -1.14416477       1.24719095       4.96281795        6      -0.00525214      -0.00742765      -0.00000000
In      -1.55725116       6.39356713       1.65427265        7       0.00525214       0.00742765       0.00000000
In       3.84558069       0.14604810       3.56150802        8       0.00525214      -0.00371382      -0.00643253
In      -1.35070796       3.82037904      -0.00000000        9       0.00000000       0.00000000      -0.00000000
In       3.84558069       5.87661666       0.25296272       10       0.00525214      -0.00371382      -0.00643253
In      -1.14416477      -2.05623761       6.36412788       11      -0.00525214       0.00371382       0.00643253
In       3.84558069       2.57318809       1.65427265       12       0.00525214       0.00742765       0.00000000
In       1.55725116       4.62942571       1.90723537       13      -0.00525214       0.00371382      -0.00643253
In       4.05212389       0.00000000      -0.00000000       14       0.00000000       0.00000000       0.00000000
In       1.35070796       1.91018952       3.30854530       15       0.00000000      -0.00000000       0.00000000
O        0.76552620       3.80877435       3.66683613       16       0.00458341       0.00118619       0.00637271
O       -1.93588972       3.18137559       4.79372249       17       0.00458341       0.00492583      -0.00421362
O       -0.35822384       2.06579734       0.10887009       18       0.00729027       0.00301179      -0.00089840
O       -0.76552620      -0.65060814       1.84346802       19      -0.00458341       0.00611202       0.00215909
O        3.64472624       4.53384336       1.73459793       20       0.00311632      -0.00663071       0.00305749
O        1.75810561       2.67490533       1.48517719       21      -0.00311632      -0.00596322      -0.00421362
O        1.75810561       5.67931707       0.24942074       22      -0.00311632      -0.00066749       0.00727111
O       -2.06706036       5.37970612       3.41741539       23      -0.00040945      -0.00787726      -0.00089840
O        3.05963976       1.75458170       6.50822051       24      -0.00729027      -0.00301179       0.00089840
O        4.76847628      -1.55932708       3.19967521       25       0.00040945       0.00787726       0.00089840
O        5.76105569       3.03737245       1.57394737       26      -0.00729027       0.00072786      -0.00305749
O        3.33577149       2.17990500       3.55796604       27      -0.00040945       0.00316059       0.00727111
O        0.63435557       3.90152600       6.25879977       28      -0.00040945       0.00471667      -0.00637271
O        2.06706036      -0.08114695       0.35829083       29       0.00040945      -0.00471667       0.00637271
O       -3.05963977       0.78300659       5.04314323       30       0.00729027      -0.00072786       0.00305749
O        4.63730565       0.63900346       1.82336811       31      -0.00458341      -0.00492583       0.00421362
O        0.94331031       1.14547372       5.13191341       32       0.00311632       0.00596322       0.00421362
O        3.05963976      -0.97157511       5.15201332       33      -0.00729027       0.00228394       0.00215909
O        1.93588972       0.01160469       2.95025447       34      -0.00458341      -0.00118619      -0.00637271
O        0.94331031      -1.85893803       6.36766986       35       0.00311632       0.00066749      -0.00727111
O       -0.63435557       1.64047404       3.05912456       36       0.00040945      -0.00316059      -0.00727111
O       -0.94331031      -0.71346432       4.88249267       37      -0.00311632       0.00663071      -0.00305749
O       -0.35822384       4.79195415       1.46507728       38       0.00729027      -0.00228394      -0.00215909
O        3.46694213       4.47098719       4.77362258       39       0.00458341      -0.00611202      -0.00215909
