40
Lattice="9.478785701451573 7.429226123178974e-10 1.1102230246251569e-14 -3.1595952345176257 8.936684862299682 -1.2867968912644293e-09 -3.1595952334669835 -4.4683424304069055 7.739396117225217" Properties=species:S:1:pos:R:3:spacegroup_kinds:I:1:forces:R:3 spacegroup="P 1" unit_cell=conventional occupancy="_JSON {\"0\": {\"In\": 1}, \"1\": {\"In\": 1}, \"2\": {\"In\": 1}, \"3\": {\"In\": 1}, \"4\": {\"In\": 1}, \"5\": {\"In\": 1}, \"6\": {\"In\": 1}, \"7\": {\"In\": 1}, \"8\": {\"In\": 1}, \"9\": {\"In\": 1}, \"10\": {\"In\": 1}, \"11\": {\"In\": 1}, \"12\": {\"In\": 1}, \"13\": {\"In\": 1}, \"14\": {\"In\": 1}, \"15\": {\"In\": 1}, \"16\": {\"O\": 1}, \"17\": {\"O\": 1}, \"18\": {\"O\": 1}, \"19\": {\"O\": 1}, \"20\": {\"O\": 1}, \"21\": {\"O\": 1}, \"22\": {\"O\": 1}, \"23\": {\"O\": 1}, \"24\": {\"O\": 1}, \"25\": {\"O\": 1}, \"26\": {\"O\": 1}, \"27\": {\"O\": 1}, \"28\": {\"O\": 1}, \"29\": {\"O\": 1}, \"30\": {\"O\": 1}, \"31\": {\"O\": 1}, \"32\": {\"O\": 1}, \"33\": {\"O\": 1}, \"34\": {\"O\": 1}, \"35\": {\"O\": 1}, \"36\": {\"O\": 1}, \"37\": {\"O\": 1}, \"38\": {\"O\": 1}, \"39\": {\"O\": 1}}" n_minim_iter=6 energy=-45146.67267348373 stress="0.09079992639161188 2.2049495964894901e-13 5.948378036342558e-13 2.2049495964894901e-13 0.09079992639168659 -1.2159306581292708e-13 5.948378036342558e-13 -1.2159306581292708e-13 0.0907999263919867" free_energy=-45146.67267348373 pbc="T T T"
In      -4.44972448       3.14643035       6.15931694        0      -0.00309340       0.00218736      -0.00378863
In       7.60931971       1.32191208       1.58007917        1       0.00309340      -0.00218736       0.00378863
In       1.29012924      -0.91225913       5.44977723        2       0.00309340      -0.00218736       0.00378863
In      -1.57979762      -2.23417121       3.86969806        3       0.00000000       0.00000000      -0.00000000
In      -1.29012924       4.26351596       3.51492820        4      -0.00309340       0.00218736       0.00378863
In       5.02906123      -2.94160387       5.80454709        5      -0.00309340      -0.00437473       0.00000000
In      -1.29012924       1.52673856       5.80454708        6      -0.00309340      -0.00437473       0.00000000
In      -1.86946600       7.40994631       1.93484903        7       0.00309340       0.00437473      -0.00000000
In       4.44972447       0.20482648       4.22446791        8       0.00309340      -0.00218736      -0.00378863
In      -1.57979762       4.46834243      -0.00000000        9       0.00000000      -0.00000000       0.00000000
In       4.44972447       6.90734012       0.35476986       10       0.00309340      -0.00218736      -0.00378863
In      -1.29012924      -2.43899769       7.38462626       11      -0.00309340       0.00218736       0.00378863
In       4.44972447       2.94160388       1.93484903       12       0.00309340       0.00437473       0.00000000
In       1.86946599       5.38060157       2.28961888       13      -0.00309340       0.00218736      -0.00378863
In       4.73939285       0.00000000      -0.00000000       14       0.00000000       0.00000000      -0.00000000
In       1.57979762       2.23417122       3.86969806       15       0.00000000       0.00000000       0.00000000
O        1.04391436       4.47613389       4.18277290       16       0.00376304      -0.00494172      -0.00670097
O       -2.11568088       3.61849187       5.64126206       17       0.00376304      -0.00333235       0.00763014
O       -0.44592949       2.43779934      -0.05311461       18      -0.00654652       0.00395761      -0.00499645
O       -1.04391436      -0.84205911       2.08463885       19      -0.00376304      -0.00827407       0.00092917
O        4.11677380       5.27973581       2.13775345       20      -0.00439612       0.00538937       0.00592561
O        2.20241666       3.02269032       1.77156400       21       0.00439612      -0.00243705       0.00763014
O        2.20241666       6.72538792       0.36618945       22       0.00439612       0.00782642      -0.00170453
O       -2.44702242       6.31034022       3.81658345       23      -0.00591344       0.00485292      -0.00499645
O        3.60552472       2.03054310       7.79251072       24       0.00654652      -0.00395761       0.00499645
O        5.60661765      -1.84199779       3.92281266       25       0.00591344      -0.00485292       0.00499645
O        6.76511995       3.40707229       1.73194460       26       0.00654652      -0.00234825      -0.00592561
O        3.87216805       2.38425933       4.23588751       27      -0.00591344      -0.00675351      -0.00170453
O        0.71257282       4.71042774       7.42632127       28      -0.00591344       0.00190059       0.00670097
O        2.44702242      -0.24208531       0.31307484       29       0.00591344      -0.00190059      -0.00670097
O       -3.60552472       1.06127015       6.00745151       30      -0.00654652       0.00234825       0.00592561
O        5.27527611       0.84985057       2.09813405       31      -0.00376304       0.00333235      -0.00763014
O        0.95717857       1.44565211       5.96783211       32      -0.00439612       0.00243705      -0.00763014
O        3.60552472      -0.96927295       5.95433691       33       0.00654652       0.00630585       0.00092917
O        2.11568087      -0.00779146       3.55662321       34      -0.00376304       0.00494172       0.00670097
O        0.95717857      -2.25704549       7.37320666       35      -0.00439612      -0.00782642       0.00170453
O       -0.71257282       2.08408310       3.50350860       36       0.00591344       0.00675351       0.00170453
O       -0.95717857      -0.81139337       5.60164266       37       0.00439612      -0.00538937      -0.00592561
O       -0.44592949       5.43761538       1.78505920       38      -0.00654652      -0.00630585      -0.00092917
O        4.20350959       5.31040154       5.65475726       39       0.00376304       0.00827407      -0.00092917
