40
Lattice="9.478785701451578 7.429199625873596e-10 1.1180417542345187e-14 -3.159595234517624 8.93668486229968 -1.286792715584842e-09 -3.159595233466986 -4.468342430406909 7.739396117225221" Properties=species:S:1:pos:R:3:spacegroup_kinds:I:1:forces:R:3 spacegroup="P 1" unit_cell=conventional occupancy="_JSON {\"0\": {\"In\": 1}, \"1\": {\"In\": 1}, \"2\": {\"In\": 1}, \"3\": {\"In\": 1}, \"4\": {\"In\": 1}, \"5\": {\"In\": 1}, \"6\": {\"In\": 1}, \"7\": {\"In\": 1}, \"8\": {\"In\": 1}, \"9\": {\"In\": 1}, \"10\": {\"In\": 1}, \"11\": {\"In\": 1}, \"12\": {\"In\": 1}, \"13\": {\"In\": 1}, \"14\": {\"In\": 1}, \"15\": {\"In\": 1}, \"16\": {\"O\": 1}, \"17\": {\"O\": 1}, \"18\": {\"O\": 1}, \"19\": {\"O\": 1}, \"20\": {\"O\": 1}, \"21\": {\"O\": 1}, \"22\": {\"O\": 1}, \"23\": {\"O\": 1}, \"24\": {\"O\": 1}, \"25\": {\"O\": 1}, \"26\": {\"O\": 1}, \"27\": {\"O\": 1}, \"28\": {\"O\": 1}, \"29\": {\"O\": 1}, \"30\": {\"O\": 1}, \"31\": {\"O\": 1}, \"32\": {\"O\": 1}, \"33\": {\"O\": 1}, \"34\": {\"O\": 1}, \"35\": {\"O\": 1}, \"36\": {\"O\": 1}, \"37\": {\"O\": 1}, \"38\": {\"O\": 1}, \"39\": {\"O\": 1}}" n_minim_iter=7 energy=-45147.83914330731 stress="0.08041494725258856 -2.2546145996677466e-13 1.247405710715361e-13 -2.2546145996677466e-13 0.08041494725290525 -8.236328882696138e-14 1.247405710715361e-13 -8.236328882696138e-14 0.08041494725359863" free_energy=-45147.83914330731 pbc="T T T"
In      -4.46383186       3.15640578       6.14203900        0      -0.00181846       0.00128585      -0.00222715
In       7.62342709       1.31193666       1.59735712        1       0.00181846      -0.00128585       0.00222715
In       1.30423662      -0.92223456       5.46705517        2       0.00181846      -0.00128585       0.00222715
In      -1.57979762      -2.23417121       3.86969806        3       0.00000000       0.00000000      -0.00000000
In      -1.30423663       4.27349139       3.53220614        4      -0.00181846       0.00128585       0.00222715
In       5.01495384      -2.96155473       5.80454709        5      -0.00181846      -0.00257170       0.00000000
In      -1.30423663       1.50678770       5.80454708        6      -0.00181846      -0.00257170       0.00000000
In      -1.85535861       7.42989717       1.93484903        7       0.00181846       0.00257170      -0.00000000
In       4.46383186       0.19485105       4.20718997        8       0.00181846      -0.00128585      -0.00222715
In      -1.57979762       4.46834243      -0.00000000        9       0.00000000       0.00000000      -0.00000000
In       4.46383186       6.89736469       0.33749191       10       0.00181846      -0.00128585      -0.00222715
In      -1.30423663      -2.42902226       7.40190420       11      -0.00181846       0.00128585       0.00222715
In       4.46383186       2.96155473       1.93484903       12       0.00181846       0.00257170       0.00000000
In       1.85535861       5.39057700       2.27234094       13      -0.00181846       0.00128585      -0.00222715
In       4.73939285       0.00000000      -0.00000000       14      -0.00000000      -0.00000000       0.00000000
In       1.57979762       2.23417122       3.86969806       15       0.00000000       0.00000000       0.00000000
O        1.03189529       4.47690927       4.18492588       16       0.00001480      -0.00549541       0.00073567
O       -2.12769994       3.61996871       5.63951408       17       0.00001480       0.00338481       0.00439133
O       -0.44781243       2.43210886      -0.04244843       18      -0.00198496       0.00479885       0.00194214
O       -1.03189530      -0.83980689       2.08504384       19      -0.00001480      -0.00211059       0.00512700
O        4.12217254       5.28364171       2.12749227       20       0.00318630       0.00323189       0.00318486
O        2.19701792       3.03352972       1.76981602       21      -0.00318630      -0.00114222       0.00439133
O        2.19701792       6.71845442       0.35767624       22      -0.00318630       0.00437411      -0.00120647
O       -2.44228503       6.31401230       3.82724963       23      -0.00518605       0.00027182       0.00194214
O        3.60740766       2.03623358       7.78184454       24       0.00198496      -0.00479885      -0.00194214
O        5.60188026      -1.84566987       3.91214648       25       0.00518605      -0.00027182      -0.00194214
O        6.76700290       3.41346423       1.74220579       26       0.00198496       0.00408137      -0.00318486
O        3.87690543       2.39166048       4.22737430       27      -0.00518605       0.00154604      -0.00120647
O        0.71731020       4.69935452       7.42416829       28      -0.00518605      -0.00181785      -0.00073567
O        2.44228503      -0.23101208       0.31522782       29       0.00518605       0.00181785       0.00073567
O       -3.60740767       1.05487820       5.99719032       30      -0.00198496      -0.00408137       0.00318486
O        5.28729517       0.84837373       2.09988203       31      -0.00001480      -0.00338481      -0.00439133
O        0.96257731       1.43481271       5.96958009       32       0.00318630       0.00114222      -0.00439133
O        3.60740766      -0.98135537       5.95474190       33       0.00198496       0.00071748       0.00512700
O        2.12769994      -0.00856683       3.55447023       34      -0.00001480       0.00549541      -0.00073567
O        0.96257731      -2.25011199       7.38171987       35       0.00318630      -0.00437411       0.00120647
O       -0.71731020       2.07668196       3.51202181       36       0.00518605      -0.00154604       0.00120647
O       -0.96257731      -0.81529928       5.61190385       37      -0.00318630      -0.00323189      -0.00318486
O       -0.44781243       5.44969781       1.78465421       38      -0.00198496      -0.00071748      -0.00512700
O        4.19149053       5.30814932       5.65435227       39       0.00001480       0.00211059      -0.00512700
