40
Lattice="9.412498318047579 7.377245481166041e-10 1.1102230246251687e-14 -3.137499440044726 8.874188517885305 -1.2777938707131425e-09 -3.1374994390014357 -4.437094258204917 7.685272695312711" Properties=species:S:1:pos:R:3:spacegroup_kinds:I:1:forces:R:3 spacegroup="P 1" unit_cell=conventional occupancy="_JSON {\"0\": {\"In\": 1}, \"1\": {\"In\": 1}, \"2\": {\"In\": 1}, \"3\": {\"In\": 1}, \"4\": {\"In\": 1}, \"5\": {\"In\": 1}, \"6\": {\"In\": 1}, \"7\": {\"In\": 1}, \"8\": {\"In\": 1}, \"9\": {\"In\": 1}, \"10\": {\"In\": 1}, \"11\": {\"In\": 1}, \"12\": {\"In\": 1}, \"13\": {\"In\": 1}, \"14\": {\"In\": 1}, \"15\": {\"In\": 1}, \"16\": {\"O\": 1}, \"17\": {\"O\": 1}, \"18\": {\"O\": 1}, \"19\": {\"O\": 1}, \"20\": {\"O\": 1}, \"21\": {\"O\": 1}, \"22\": {\"O\": 1}, \"23\": {\"O\": 1}, \"24\": {\"O\": 1}, \"25\": {\"O\": 1}, \"26\": {\"O\": 1}, \"27\": {\"O\": 1}, \"28\": {\"O\": 1}, \"29\": {\"O\": 1}, \"30\": {\"O\": 1}, \"31\": {\"O\": 1}, \"32\": {\"O\": 1}, \"33\": {\"O\": 1}, \"34\": {\"O\": 1}, \"35\": {\"O\": 1}, \"36\": {\"O\": 1}, \"37\": {\"O\": 1}, \"38\": {\"O\": 1}, \"39\": {\"O\": 1}}" n_minim_iter=7 energy=-45147.83914330731 stress="0.08041494725258856 -2.2546145996677466e-13 1.247405710715361e-13 -2.2546145996677466e-13 0.08041494725290525 -8.236328882696138e-14 1.247405710715361e-13 -8.236328882696138e-14 0.08041494725359863" free_energy=-45147.83914330731 pbc="T T T"
In      -4.43261523       3.13433229       6.09908627        0      -0.00181846       0.00128585      -0.00222715
In       7.57011467       1.30276197       1.58618642        1       0.00181846      -0.00128585       0.00222715
In       1.29511579      -0.91578516       5.42882277        2       0.00181846      -0.00128585       0.00222715
In      -1.56874972      -2.21854713       3.84263635        3       0.00000000       0.00000000      -0.00000000
In      -1.29511579       4.24360585       3.50750459        4      -0.00181846       0.00128585       0.00222715
In       4.97988309      -2.94084388       5.76395452        5      -0.00181846      -0.00257170       0.00000000
In      -1.29511579       1.49625038       5.76395452        6      -0.00181846      -0.00257170       0.00000000
In      -1.84238365       7.37793814       1.92131817        7       0.00181846       0.00257170      -0.00000000
In       4.43261523       0.19348841       4.17776810        8       0.00181846      -0.00128585      -0.00222715
In      -1.56874972       4.43709426      -0.00000000        9       0.00000000       0.00000000      -0.00000000
In       4.43261523       6.84912980       0.33513175       10       0.00181846      -0.00128585      -0.00222715
In      -1.29511579      -2.41203553       7.35014094       11      -0.00181846       0.00128585       0.00222715
In       4.43261523       2.94084388       1.92131817       12       0.00181846       0.00257170       0.00000000
In       1.84238365       5.35287942       2.25644992       13      -0.00181846       0.00128585      -0.00222715
In       4.70624916       0.00000000      -0.00000000       14      -0.00000000      -0.00000000       0.00000000
In       1.56874972       2.21854713       3.84263634       15       0.00000000       0.00000000       0.00000000
O        1.02467901       4.44560118       4.15565970       16       0.00001480      -0.00549541       0.00073567
O       -2.11282043       3.59465342       5.60007563       17       0.00001480       0.00338481       0.00439133
O       -0.44468077       2.41510055      -0.04215158       18      -0.00198496       0.00479885       0.00194214
O       -1.02467901      -0.83393392       2.07046264       19      -0.00001480      -0.00211059       0.00512700
O        4.09334521       5.24669196       2.11261421       20       0.00318630       0.00323189       0.00318486
O        2.18165366       3.01231553       1.75743928       21      -0.00318630      -0.00114222       0.00439133
O        2.18165366       6.67147069       0.35517493       22      -0.00318630       0.00437411      -0.00120647
O       -2.42520556       6.26985693       3.80048477       23      -0.00518605       0.00027182       0.00194214
O        3.58218021       2.02199371       7.72742426       24       0.00198496      -0.00479885      -0.00194214
O        5.56270500      -1.83276266       3.88478792       25       0.00518605      -0.00027182      -0.00194214
O        6.71967965       3.38959307       1.73002213       26       0.00198496       0.00408137      -0.00318486
O        3.84979332       2.37493503       4.19781128       27      -0.00518605       0.00154604      -0.00120647
O        0.71229388       4.66649083       7.37224933       28      -0.00518605      -0.00181785      -0.00073567
O        2.42520556      -0.22939656       0.31302336       29       0.00518605       0.00181785       0.00073567
O       -3.58218021       1.04750119       5.95525056       30      -0.00198496      -0.00408137       0.00318486
O        5.25031987       0.84244085       2.08519706       31      -0.00001480      -0.00338481      -0.00439133
O        0.95584578       1.42477873       5.92783341       32       0.00318630       0.00114222      -0.00439133
O        3.58218021      -0.97449252       5.91309899       33       0.00198496       0.00071748       0.00512700
O        2.11282043      -0.00850692       3.52961299       34      -0.00001480       0.00549541      -0.00073567
O        0.95584578      -2.23437643       7.33009776       35       0.00318630      -0.00437411       0.00120647
O       -0.71229388       2.06215923       3.48746141       36       0.00518605      -0.00154604       0.00120647
O       -0.95584578      -0.80959770       5.57265848       37      -0.00318630      -0.00323189      -0.00318486
O       -0.44468078       5.41158678       1.77217370       38      -0.00198496      -0.00071748      -0.00512700
O        4.16217844       5.27102818       5.61481005       39       0.00001480       0.00211059      -0.00512700
