40
Lattice="8.69106237803886 6.811834826147603e-10 -2.6409540643573893e-15 -2.8970207933218455 8.194012190741674 -1.1798484290467277e-09 -2.897020792358505 -4.09700609468965 7.096222716888254" Properties=species:S:1:pos:R:3:spacegroup_kinds:I:1:forces:R:3 spacegroup="P 1" unit_cell=conventional occupancy="_JSON {\"0\": {\"In\": 1}, \"1\": {\"In\": 1}, \"2\": {\"In\": 1}, \"3\": {\"In\": 1}, \"4\": {\"In\": 1}, \"5\": {\"In\": 1}, \"6\": {\"In\": 1}, \"7\": {\"In\": 1}, \"8\": {\"In\": 1}, \"9\": {\"In\": 1}, \"10\": {\"In\": 1}, \"11\": {\"In\": 1}, \"12\": {\"In\": 1}, \"13\": {\"In\": 1}, \"14\": {\"In\": 1}, \"15\": {\"In\": 1}, \"16\": {\"O\": 1}, \"17\": {\"O\": 1}, \"18\": {\"O\": 1}, \"19\": {\"O\": 1}, \"20\": {\"O\": 1}, \"21\": {\"O\": 1}, \"22\": {\"O\": 1}, \"23\": {\"O\": 1}, \"24\": {\"O\": 1}, \"25\": {\"O\": 1}, \"26\": {\"O\": 1}, \"27\": {\"O\": 1}, \"28\": {\"O\": 1}, \"29\": {\"O\": 1}, \"30\": {\"O\": 1}, \"31\": {\"O\": 1}, \"32\": {\"O\": 1}, \"33\": {\"O\": 1}, \"34\": {\"O\": 1}, \"35\": {\"O\": 1}, \"36\": {\"O\": 1}, \"37\": {\"O\": 1}, \"38\": {\"O\": 1}, \"39\": {\"O\": 1}}" n_minim_iter=5 energy=-45151.43168569009 stress="-0.029953920293826895 -6.245756502432897e-13 1.8960750128530943e-13 -6.245756502432897e-13 -0.029953920294125438 1.169667803775672e-13 1.8960750128530943e-13 1.169667803775672e-13 -0.029953920294773187" free_energy=-45151.43168569009 pbc="T T T"
In      -4.14982696       2.93437078       5.56185479        0       0.00348586      -0.00246488       0.00426929
In       7.04684775       1.16263532       1.53436792        1      -0.00348586       0.00246488      -0.00426929
In       1.25280616      -0.88586773       5.08247928        2      -0.00348586       0.00246488      -0.00426929
In      -1.44851040      -2.04850305       3.54811136        3       0.00000000      -0.00000000      -0.00000000
In      -1.25280616       3.95862231       3.30842360        4       0.00348586      -0.00246488      -0.00426929
In       4.54123542      -2.79598699       5.32216704        5       0.00348586       0.00492975       0.00000000
In      -1.25280616       1.30101911       5.32216703        6       0.00348586       0.00492975       0.00000000
In      -1.64421463       6.89299309       1.77405568        7      -0.00348586      -0.00492975       0.00000000
In       4.14982695       0.13838379       3.78779911        8      -0.00348586       0.00246488       0.00426929
In      -1.44851040       4.09700610      -0.00000000        9       0.00000000      -0.00000000       0.00000000
In       4.14982695       6.28389294       0.23968775       10      -0.00348586       0.00246488       0.00426929
In      -1.25280616      -2.18688684       6.85653496       11       0.00348586      -0.00246488      -0.00426929
In       4.14982695       2.79598699       1.77405568       12      -0.00348586      -0.00492975      -0.00000000
In       1.64421463       4.98287383       2.01374343       13       0.00348586      -0.00246488       0.00426929
In       4.34553119       0.00000000      -0.00000000       14       0.00000000      -0.00000000      -0.00000000
In       1.44851039       2.04850305       3.54811136       15       0.00000000      -0.00000000      -0.00000000
O        0.84576631       4.09485050       3.86994591       16      -0.00355404       0.00354038      -0.00452234
O       -2.05125448       3.35254927       5.16311656       17      -0.00355404      -0.00568665      -0.00080489
O       -0.42199084       2.20048590       0.06232613       18      -0.00320820      -0.00593119      -0.00038133
O       -0.84576632      -0.74661242       1.93683975       19       0.00355404      -0.00214627      -0.00532723
O        3.84456525       4.87960253       1.87451362       20      -0.00417674       0.00192611      -0.00494590
O        1.94947633       2.86492789       1.61500520       21       0.00417674       0.00524633      -0.00080489
O        1.94947633       6.11168073       0.25950842       22       0.00417674      -0.00332022      -0.00414101
O       -2.21530162       5.80987062       3.61043749       23       0.00452258       0.00500179      -0.00038133
O        3.31901163       1.89652020       7.03389658       24       0.00320820       0.00593119       0.00038133
O        5.11232241      -1.71286452       3.48578523       25      -0.00452258      -0.00500179       0.00038133
O        6.21603242       3.20272201       1.67359773       26       0.00320820      -0.00329583       0.00494590
O        3.57873997       2.27029832       3.80761978       27       0.00452258      -0.00283113      -0.00414101
O        0.68171917       4.21084935       6.77438816       28       0.00452258      -0.00217066       0.00452234
O        2.21530162      -0.11384325       0.32183455       29      -0.00452258       0.00217066      -0.00452234
O       -3.31901163       0.89428409       5.42262498       30      -0.00320820       0.00329583      -0.00494590
O        4.94827527       0.74445683       1.93310615       31       0.00355404       0.00568665       0.00080489
O        0.94754446       1.23207821       5.48121751       32      -0.00417674      -0.00524633       0.00080489
O        3.31901163      -1.00223611       5.48495111       33       0.00320820      -0.00263536      -0.00532723
O        2.05125447       0.00215560       3.22627680       34       0.00355404      -0.00354038       0.00452234
O        0.94754446      -2.01467463       6.83671429       35      -0.00417674       0.00332022       0.00414101
O       -0.68171918       1.82670778       3.28860293       36      -0.00452258       0.00283113       0.00414101
O       -0.94754446      -0.78259643       5.22170909       37       0.00417674      -0.00192611       0.00494590
O       -0.42199084       5.09924221       1.61127160       38      -0.00320820       0.00263536       0.00532723
O        3.74278711       4.84361852       5.15938296       39      -0.00355404       0.00214627       0.00532723
