40
Lattice="9.277047855046717 7.271085955551371e-10 1.1102230246251565e-14 -3.0923492857010975 8.746484596685164 -1.2594072451577176e-09 -3.092349284672818 -4.37324229761546 7.574677855378239" Properties=species:S:1:pos:R:3:spacegroup_kinds:I:1:forces:R:3 spacegroup="P 1" unit_cell=conventional occupancy="_JSON {\"0\": {\"In\": 1}, \"1\": {\"In\": 1}, \"2\": {\"In\": 1}, \"3\": {\"In\": 1}, \"4\": {\"In\": 1}, \"5\": {\"In\": 1}, \"6\": {\"In\": 1}, \"7\": {\"In\": 1}, \"8\": {\"In\": 1}, \"9\": {\"In\": 1}, \"10\": {\"In\": 1}, \"11\": {\"In\": 1}, \"12\": {\"In\": 1}, \"13\": {\"In\": 1}, \"14\": {\"In\": 1}, \"15\": {\"In\": 1}, \"16\": {\"O\": 1}, \"17\": {\"O\": 1}, \"18\": {\"O\": 1}, \"19\": {\"O\": 1}, \"20\": {\"O\": 1}, \"21\": {\"O\": 1}, \"22\": {\"O\": 1}, \"23\": {\"O\": 1}, \"24\": {\"O\": 1}, \"25\": {\"O\": 1}, \"26\": {\"O\": 1}, \"27\": {\"O\": 1}, \"28\": {\"O\": 1}, \"29\": {\"O\": 1}, \"30\": {\"O\": 1}, \"31\": {\"O\": 1}, \"32\": {\"O\": 1}, \"33\": {\"O\": 1}, \"34\": {\"O\": 1}, \"35\": {\"O\": 1}, \"36\": {\"O\": 1}, \"37\": {\"O\": 1}, \"38\": {\"O\": 1}, \"39\": {\"O\": 1}}" n_minim_iter=1 energy=-45149.731241804526 stress="0.0612868080702069 -6.522290674840024e-15 1.0125414845067822e-13 -6.522290674840024e-15 0.061286808069205376 4.97500444725449e-14 1.0125414845067822e-13 4.97500444725449e-14 0.06128680806955497" free_energy=-45149.731241804526 pbc="T T T"
In      -4.39926822       3.11075239       5.97403559        0       0.05167524      -0.03653991       0.06328898
In       7.49161750       1.26248991       1.60064226        1      -0.05167524       0.03653991      -0.06328898
In       1.30691893      -0.92413124       5.38798119        2      -0.05167524       0.03653991      -0.06328898
In      -1.54617464      -2.18662115       3.78733893        3      -0.00000000      -0.00000000       0.00000000
In      -1.30691894       4.20406297       3.49431173        4       0.05167524      -0.03653991      -0.06328898
In       4.87777963      -2.94157306       5.68100839        5       0.05167524       0.07307982      -0.00000000
In      -1.30691894       1.43166924       5.68100839        6       0.05167524       0.07307982      -0.00000000
In      -1.78543035       7.31481536       1.89366946        7      -0.05167524      -0.07307982       0.00000000
In       4.39926822       0.16917933       4.08036612        8      -0.05167524       0.03653991       0.06328898
In      -1.54617464       4.37324230      -0.00000000        9       0.00000000       0.00000000      -0.00000000
In       4.39926822       6.72904278       0.29302720       10      -0.05167524       0.03653991       0.06328898
In      -1.30691894      -2.35580048       7.28165065       11       0.05167524      -0.03653991      -0.06328898
In       4.39926822       2.94157306       1.89366946       12      -0.05167524      -0.07307982       0.00000000
In       1.78543035       5.29737354       2.18669666       13       0.05167524      -0.03653991       0.06328898
In       4.63852393       0.00000000      -0.00000000       14       0.00000000       0.00000000      -0.00000000
In       1.54617464       2.18662115       3.78733892       15       0.00000000      -0.00000000       0.00000000
O        0.96536743       4.37888448       4.10986615       16       0.02459101       0.00236067      -0.06363626
O       -2.12698185       3.55642741       5.51485851       17       0.02459101      -0.05629095       0.02977373
O       -0.44299183       2.36566664       0.00263880       18      -0.04264895      -0.00874511      -0.05257807
O       -0.96536743      -0.81117272       2.05004680       19      -0.02459101      -0.05393028      -0.03386252
O        4.06202586       5.18593853       2.04740800       20      -0.06126862       0.02357432       0.01871554
O        2.12267271       3.00648307       1.72751958       21       0.06126862      -0.00442098       0.02977373
O        2.12267271       6.55269776       0.31988842       22       0.06126862       0.02799530      -0.01105819
O       -2.37803584       6.18896460       3.78997773       23      -0.00597135       0.04312486      -0.05257807
O        3.53534111       2.00757566       7.57203905       24       0.04264895       0.00874511       0.05257807
O        5.47038512      -1.81572230       3.78470012       25       0.00597135      -0.04312486       0.05257807
O        6.62769040       3.37173974       1.73993092       26       0.04264895      -0.04990650      -0.01871554
O        3.80666273       2.37435584       4.10722735       27      -0.00597135      -0.06709637      -0.01105819
O        0.71431344       4.55640645       7.25215063       28      -0.00597135       0.02397151       0.06363626
O        2.37803584      -0.18316415       0.32252722       29       0.00597135      -0.02397151      -0.06363626
O       -3.53534112       1.00150256       5.83474693       30      -0.04264895       0.04990650       0.01871554
O        5.21933114       0.81681490       2.05981934       31      -0.02459101       0.05629095      -0.02977373
O        0.96967658       1.36675923       5.84715827       32      -0.06126862       0.00442098      -0.02977373
O        3.53534111      -1.00607310       5.83738573       33       0.04264895       0.04116139      -0.03386252
O        2.12698185      -0.00564217       3.46481170       34      -0.02459101      -0.00236067       0.06363626
O        0.96967658      -2.17945546       7.25478943       35      -0.06126862      -0.02799530       0.01105819
O       -0.71431345       1.99888646       3.46745050       36       0.00597135       0.06709637       0.01105819
O       -0.96967658      -0.81269623       5.52726985       37       0.06126862      -0.02357432      -0.01871554
O       -0.44299183       5.37931540       1.73729212       38      -0.04264895      -0.04116139       0.03386253
O        4.05771672       5.18441502       5.52463105       39       0.02459101       0.05393028       0.03386252
40
Lattice="9.277047855046716 7.271085955551373e-10 1.1102230246251569e-14 -3.0923492857010983 8.746484596685162 -1.2594072451577176e-09 -3.092349284672819 -4.373242297615459 7.574677855378241" Properties=species:S:1:pos:R:3:spacegroup_kinds:I:1:forces:R:3 spacegroup="P 1" unit_cell=conventional occupancy="_JSON {\"0\": {\"In\": 1}, \"1\": {\"In\": 1}, \"2\": {\"In\": 1}, \"3\": {\"In\": 1}, \"4\": {\"In\": 1}, \"5\": {\"In\": 1}, \"6\": {\"In\": 1}, \"7\": {\"In\": 1}, \"8\": {\"In\": 1}, \"9\": {\"In\": 1}, \"10\": {\"In\": 1}, \"11\": {\"In\": 1}, \"12\": {\"In\": 1}, \"13\": {\"In\": 1}, \"14\": {\"In\": 1}, \"15\": {\"In\": 1}, \"16\": {\"O\": 1}, \"17\": {\"O\": 1}, \"18\": {\"O\": 1}, \"19\": {\"O\": 1}, \"20\": {\"O\": 1}, \"21\": {\"O\": 1}, \"22\": {\"O\": 1}, \"23\": {\"O\": 1}, \"24\": {\"O\": 1}, \"25\": {\"O\": 1}, \"26\": {\"O\": 1}, \"27\": {\"O\": 1}, \"28\": {\"O\": 1}, \"29\": {\"O\": 1}, \"30\": {\"O\": 1}, \"31\": {\"O\": 1}, \"32\": {\"O\": 1}, \"33\": {\"O\": 1}, \"34\": {\"O\": 1}, \"35\": {\"O\": 1}, \"36\": {\"O\": 1}, \"37\": {\"O\": 1}, \"38\": {\"O\": 1}, \"39\": {\"O\": 1}}" n_minim_iter=2 energy=-45149.74158462211 stress="0.0601807278663207 -9.295765742942054e-14 -5.634746138685506e-13 -9.295765742942054e-14 0.060180727866344014 7.207937280919766e-14 -5.634746138685506e-13 7.207937280919766e-14 0.06018072786738041" free_energy=-45149.74158462211 pbc="T T T"
In      -4.39557713       3.10814240       5.97855623        0       0.02206241      -0.01560048       0.02702082
In       7.48792642       1.26509990       1.59612162        1      -0.02206241       0.01560048      -0.02702082
In       1.30322785      -0.92152125       5.38346055        2      -0.02206241       0.01560048      -0.02702082
In      -1.54617464      -2.18662115       3.78733893        3       0.00000000      -0.00000000      -0.00000000
In      -1.30322785       4.20145297       3.48979108        4       0.02206241      -0.01560048      -0.02702082
In       4.88147072      -2.93635307       5.68100839        5       0.02206241       0.03120096       0.00000000
In      -1.30322785       1.43688923       5.68100839        6       0.02206241       0.03120096      -0.00000000
In      -1.78912144       7.30959537       1.89366946        7      -0.02206241      -0.03120096      -0.00000000
In       4.39557713       0.17178933       4.08488677        8      -0.02206241       0.01560048       0.02702082
In      -1.54617464       4.37324230      -0.00000000        9      -0.00000000       0.00000000       0.00000000
In       4.39557713       6.73165278       0.29754784       10      -0.02206241       0.01560048       0.02702082
In      -1.30322785      -2.35841047       7.27713001       11       0.02206241      -0.01560048      -0.02702082
In       4.39557713       2.93635307       1.89366946       12      -0.02206241      -0.03120096       0.00000000
In       1.78912144       5.29476355       2.19121730       13       0.02206241      -0.01560048       0.02702082
In       4.63852393       0.00000000      -0.00000000       14      -0.00000000      -0.00000000       0.00000000
In       1.54617464       2.18662115       3.78733892       15       0.00000000       0.00000000      -0.00000000
O        0.96712393       4.37905310       4.10532070       16       0.02608595       0.00354161      -0.01621512
O       -2.12522535       3.55240662       5.51698520       17       0.02608595      -0.01581351       0.00504044
O       -0.44603818       2.36504199      -0.00111678       18      -0.00287475       0.00466479      -0.03042902
O       -0.96712394      -0.81502488       2.04762805       19      -0.02608595      -0.01227191      -0.01117468
O        4.05764953       5.18762241       2.04874483       20      -0.02360444      -0.00529630       0.01925434
O        2.12704904       3.00616729       1.72964628       21       0.02360444      -0.01932289       0.00504044
O        2.12704904       6.55469742       0.31909855       22       0.02360444       0.01402660       0.01421390
O       -2.37846237       6.19204495       3.78622215       23      -0.00535626       0.00115541      -0.03042902
O        3.53838747       2.00820031       7.57579463       24       0.00287475      -0.00466479       0.03042902
O        5.47081165      -1.81880265       3.78845570       25       0.00535626      -0.00115541       0.03042902
O        6.63073675       3.36817499       1.73859410       26       0.00287475      -0.02401991      -0.01925434
O        3.80623620       2.36956324       4.10643748       27      -0.00535626      -0.02693001       0.01421390
O        0.71388692       4.55811871       7.25669608       28      -0.00535626       0.02577460       0.01621512
O        2.37846236      -0.18487640       0.31798177       29       0.00535626      -0.02577460      -0.01621512
O       -3.53838747       1.00506731       5.83608375       30      -0.00287475       0.02401991       0.01925434
O        5.21757463       0.82083568       2.05769265       31      -0.02608595       0.01581351      -0.00504044
O        0.96530025       1.36707502       5.84503157       32      -0.02360444       0.01932289      -0.00504044
O        3.53838747      -1.00313300       5.83496698       33       0.00287475       0.02868470      -0.01117468
O        2.12522535      -0.00581079       3.46935715       34      -0.02608595      -0.00354161       0.01621512
O        0.96530025      -2.18145512       7.25557930       35      -0.02360444      -0.01402660      -0.01421390
O       -0.71388692       2.00367906       3.46824037       36       0.00535626       0.02693001      -0.01421390
O       -0.96530025      -0.81438011       5.52593302       37       0.02360444       0.00529630      -0.01925434
O       -0.44603818       5.37637530       1.73971087       38      -0.00287475      -0.02868470       0.01117468
O        4.05947322       5.18826718       5.52704980       39       0.02608595       0.01227191       0.01117468
40
Lattice="9.277047855046716 7.271085955551373e-10 1.1102230246251573e-14 -3.0923492857010983 8.746484596685162 -1.2594072451577176e-09 -3.092349284672819 -4.373242297615459 7.574677855378241" Properties=species:S:1:pos:R:3:spacegroup_kinds:I:1:forces:R:3 spacegroup="P 1" unit_cell=conventional occupancy="_JSON {\"0\": {\"In\": 1}, \"1\": {\"In\": 1}, \"2\": {\"In\": 1}, \"3\": {\"In\": 1}, \"4\": {\"In\": 1}, \"5\": {\"In\": 1}, \"6\": {\"In\": 1}, \"7\": {\"In\": 1}, \"8\": {\"In\": 1}, \"9\": {\"In\": 1}, \"10\": {\"In\": 1}, \"11\": {\"In\": 1}, \"12\": {\"In\": 1}, \"13\": {\"In\": 1}, \"14\": {\"In\": 1}, \"15\": {\"In\": 1}, \"16\": {\"O\": 1}, \"17\": {\"O\": 1}, \"18\": {\"O\": 1}, \"19\": {\"O\": 1}, \"20\": {\"O\": 1}, \"21\": {\"O\": 1}, \"22\": {\"O\": 1}, \"23\": {\"O\": 1}, \"24\": {\"O\": 1}, \"25\": {\"O\": 1}, \"26\": {\"O\": 1}, \"27\": {\"O\": 1}, \"28\": {\"O\": 1}, \"29\": {\"O\": 1}, \"30\": {\"O\": 1}, \"31\": {\"O\": 1}, \"32\": {\"O\": 1}, \"33\": {\"O\": 1}, \"34\": {\"O\": 1}, \"35\": {\"O\": 1}, \"36\": {\"O\": 1}, \"37\": {\"O\": 1}, \"38\": {\"O\": 1}, \"39\": {\"O\": 1}}" n_minim_iter=3 energy=-45149.74375576003 stress="0.05940166667224514 4.764838837495778e-13 2.7660184411115815e-13 4.764838837495778e-13 0.05940166667237883 -2.853156027765032e-13 2.7660184411115815e-13 -2.853156027765032e-13 0.059401666671247584" free_energy=-45149.74375576003 pbc="T T T"
In      -4.39307757       3.10637494       5.98161756        0       0.00246010      -0.00173956       0.00301300
In       7.48542685       1.26686736       1.59306029        1      -0.00246011       0.00173956      -0.00301300
In       1.30072828      -0.91975378       5.38039921        2      -0.00246011       0.00173956      -0.00301300
In      -1.54617464      -2.18662115       3.78733893        3      -0.00000000      -0.00000000      -0.00000000
In      -1.30072828       4.19968551       3.48672975        4       0.00246010      -0.00173956      -0.00301300
In       4.88397029      -2.93281815       5.68100839        5       0.00246011       0.00347911      -0.00000000
In      -1.30072828       1.44042415       5.68100839        6       0.00246011       0.00347911       0.00000000
In      -1.79162101       7.30606045       1.89366946        7      -0.00246011      -0.00347911      -0.00000000
In       4.39307756       0.17355679       4.08794810        8      -0.00246011       0.00173956       0.00301300
In      -1.54617464       4.37324230      -0.00000000        9       0.00000000       0.00000000       0.00000000
In       4.39307756       6.73342024       0.30060917       10      -0.00246011       0.00173956       0.00301300
In      -1.30072828      -2.36017793       7.27406868       11       0.00246011      -0.00173956      -0.00301300
In       4.39307756       2.93281815       1.89366946       12      -0.00246011      -0.00347911       0.00000000
In       1.79162100       5.29299609       2.19427863       13       0.00246011      -0.00173956       0.00301300
In       4.63852393       0.00000000      -0.00000000       14       0.00000000       0.00000000       0.00000000
In       1.54617464       2.18662115       3.78733892       15      -0.00000000      -0.00000000      -0.00000000
O        0.96867931       4.37922676       4.10249970       16       0.02554858       0.00280891       0.01365935
O       -2.12366998       3.54987674       5.51824531       17       0.02554858       0.01042489      -0.00926226
O       -0.44774120       2.36481613      -0.00384737       18       0.02099314       0.01364607      -0.01484152
O       -0.96867931      -0.81738110       2.04606716       19      -0.02554858       0.01323380       0.00439709
O        4.05474587       5.18840213       2.04991452       20       0.00131249      -0.02180256       0.01923861
O        2.12995270       3.00554416       1.73090638       21      -0.00131249      -0.02756240      -0.00926226
O        2.12995269       6.55610027       0.31900814       22      -0.00131249       0.00575984       0.02850087
O       -2.37881709       6.19372585       3.78349156       23      -0.00586793      -0.02434122      -0.01484152
O        3.54009048       2.00842618       7.57852522       24      -0.02099314      -0.01364607       0.01484152
O        5.47116637      -1.82048355       3.79118629       25       0.00586793       0.02434122       0.01484152
O        6.63243976       3.36569730       1.73742440       26      -0.02099314      -0.00603009      -0.01923861
O        3.80588148       2.36635803       4.10634707       27      -0.00586793      -0.00068252       0.02850087
O        0.71353219       4.55964301       7.25951707       28      -0.00586793       0.02502374      -0.01365935
O        2.37881709      -0.18640071       0.31516077       29       0.00586793      -0.02502374       0.01365935
O       -3.54009048       1.00754500       5.83725345       30       0.02099314       0.00603009       0.01923861
O        5.21601926       0.82336557       2.05643254       31      -0.02554858      -0.01042489       0.00926226
O        0.96239659       1.36769814       5.84377147       32       0.00131249       0.02756240       0.00926226
O        3.54009048      -1.00088117       5.83340608       33      -0.02099314       0.01967617       0.00439709
O        2.12366998      -0.00598446       3.47217815       34      -0.02554858      -0.00280891      -0.01365935
O        0.96239659      -2.18285796       7.25566971       35       0.00131249      -0.00575984      -0.02850087
O       -0.71353220       2.00688427       3.46833078       36       0.00586793       0.00068252      -0.02850087
O       -0.96239659      -0.81515983       5.52476333       37      -0.00131249       0.02180256      -0.01923861
O       -0.44774120       5.37412347       1.74127177       38       0.02099314      -0.01967617      -0.00439709
O        4.06102859       5.19062341       5.52861069       39       0.02554858      -0.01323380      -0.00439709
40
Lattice="9.277047855046721 7.271085955551376e-10 1.1102230246251578e-14 -3.0923492857010997 8.746484596685166 -1.259407245157718e-09 -3.0923492846728204 -4.373242297615461 7.574677855378244" Properties=species:S:1:pos:R:3:spacegroup_kinds:I:1:forces:R:3 spacegroup="P 1" unit_cell=conventional occupancy="_JSON {\"0\": {\"In\": 1}, \"1\": {\"In\": 1}, \"2\": {\"In\": 1}, \"3\": {\"In\": 1}, \"4\": {\"In\": 1}, \"5\": {\"In\": 1}, \"6\": {\"In\": 1}, \"7\": {\"In\": 1}, \"8\": {\"In\": 1}, \"9\": {\"In\": 1}, \"10\": {\"In\": 1}, \"11\": {\"In\": 1}, \"12\": {\"In\": 1}, \"13\": {\"In\": 1}, \"14\": {\"In\": 1}, \"15\": {\"In\": 1}, \"16\": {\"O\": 1}, \"17\": {\"O\": 1}, \"18\": {\"O\": 1}, \"19\": {\"O\": 1}, \"20\": {\"O\": 1}, \"21\": {\"O\": 1}, \"22\": {\"O\": 1}, \"23\": {\"O\": 1}, \"24\": {\"O\": 1}, \"25\": {\"O\": 1}, \"26\": {\"O\": 1}, \"27\": {\"O\": 1}, \"28\": {\"O\": 1}, \"29\": {\"O\": 1}, \"30\": {\"O\": 1}, \"31\": {\"O\": 1}, \"32\": {\"O\": 1}, \"33\": {\"O\": 1}, \"34\": {\"O\": 1}, \"35\": {\"O\": 1}, \"36\": {\"O\": 1}, \"37\": {\"O\": 1}, \"38\": {\"O\": 1}, \"39\": {\"O\": 1}}" n_minim_iter=4 energy=-45149.74543720093 stress="0.058583547889054274 4.5381225143649723e-13 -3.969994553405803e-14 4.5381225143649723e-13 0.058583547890109486 3.646085577211121e-13 -3.969994553405803e-14 3.646085577211121e-13 0.05858354788966071" free_energy=-45149.74543720093 pbc="T T T"
In      -4.39019373       3.10433576       5.98514952        0      -0.01558944       0.01102340      -0.01909309
In       7.48254302       1.26890654       1.58952833        1       0.01558944      -0.01102340       0.01909309
In       1.29784445      -0.91771461       5.37686726        2       0.01558944      -0.01102340       0.01909309
In      -1.54617464      -2.18662115       3.78733893        3       0.00000000      -0.00000000       0.00000000
In      -1.29784445       4.19764634       3.48319779        4      -0.01558944       0.01102340       0.01909309
In       4.88685412      -2.92873979       5.68100839        5      -0.01558944      -0.02204680      -0.00000000
In      -1.29784445       1.44450251       5.68100839        6      -0.01558944      -0.02204680       0.00000000
In      -1.79450484       7.30198209       1.89366946        7       0.01558944       0.02204680      -0.00000000
In       4.39019373       0.17559597       4.09148006        8       0.01558944      -0.01102340      -0.01909309
In      -1.54617464       4.37324230      -0.00000000        9       0.00000000      -0.00000000      -0.00000000
In       4.39019373       6.73545941       0.30414113       10       0.01558944      -0.01102340      -0.01909309
In      -1.29784445      -2.36221711       7.27053672       11      -0.01558944       0.01102340       0.01909309
In       4.39019373       2.92873980       1.89366946       12       0.01558944       0.02204680       0.00000000
In       1.79450484       5.29095691       2.19781059       13      -0.01558944       0.01102340      -0.01909309
In       4.63852393       0.00000000      -0.00000000       14      -0.00000000      -0.00000000      -0.00000000
In       1.54617464       2.18662115       3.78733892       15      -0.00000000      -0.00000000       0.00000000
O        0.97410770       4.37982100       4.10172994       16       0.01596940      -0.00202834       0.02517401
O       -2.11824158       3.54891299       5.51811556       17       0.01596940       0.02281550      -0.01083042
O       -0.44628011       2.36665769      -0.00883606       18       0.02492146       0.01648544       0.00013357
O       -0.97410771      -0.81775062       2.04516765       19      -0.01596940       0.02078717       0.01434360
O        4.05202777       5.18589142       2.05400370       20       0.01618753      -0.02071005       0.01421002
O        2.13267079       3.00074747       1.73077663       21      -0.01618753      -0.02266127      -0.01083042
O        2.13267079       6.55838625       0.32322707       22      -0.01618753       0.00195122       0.02504044
O       -2.38006631       6.19173447       3.77850287       23      -0.00723547      -0.02899133       0.00013357
O        3.53862939       2.00658461       7.58351390       24      -0.02492146      -0.01648544      -0.00013357
O        5.47241559      -1.81849217       3.79617498       25       0.00723547       0.02899133      -0.00013357
O        6.63097868       3.36229775       1.73333522       26      -0.02492146       0.00835840      -0.01421002
O        3.80463226       2.36303339       4.11056599       27      -0.00723547       0.01461134       0.02504044
O        0.71228298       4.56495903       7.26028683       28      -0.00723547       0.01437999      -0.02517401
O        2.38006630      -0.19171673       0.31439102       29       0.00723547      -0.01437999       0.02517401
O       -3.53862940       1.01094455       5.84134263       30       0.02492146      -0.00835840       0.01421002
O        5.21059086       0.82432932       2.05656229       31      -0.01596940      -0.02281550       0.01083042
O        0.95967849       1.37249483       5.84390121       32       0.01618753       0.02266127       0.01083042
O        3.53862939      -0.99564006       5.83250658       33      -0.02492146       0.00812704       0.01434360
O        2.11824158      -0.00657869       3.47294791       34      -0.01596940       0.00202834      -0.02517401
O        0.95967849      -2.18514395       7.25145078       35       0.01618753      -0.00195122      -0.02504044
O       -0.71228298       2.01020891       3.46411185       36       0.00723547      -0.01461134      -0.02504044
O       -0.95967849      -0.81264912       5.52067414       37      -0.01618753       0.02071005      -0.01421002
O       -0.44628011       5.36888236       1.74217127       38       0.02492146      -0.00812704      -0.01434360
O        4.06645699       5.19099292       5.52951020       39       0.01596940      -0.02078717      -0.01434360
40
Lattice="9.277047855046725 7.271085955551379e-10 1.1102230246251587e-14 -3.092349285701101 8.74648459668517 -1.2594072451577187e-09 -3.0923492846728218 -4.373242297615462 7.574677855378248" Properties=species:S:1:pos:R:3:spacegroup_kinds:I:1:forces:R:3 spacegroup="P 1" unit_cell=conventional occupancy="_JSON {\"0\": {\"In\": 1}, \"1\": {\"In\": 1}, \"2\": {\"In\": 1}, \"3\": {\"In\": 1}, \"4\": {\"In\": 1}, \"5\": {\"In\": 1}, \"6\": {\"In\": 1}, \"7\": {\"In\": 1}, \"8\": {\"In\": 1}, \"9\": {\"In\": 1}, \"10\": {\"In\": 1}, \"11\": {\"In\": 1}, \"12\": {\"In\": 1}, \"13\": {\"In\": 1}, \"14\": {\"In\": 1}, \"15\": {\"In\": 1}, \"16\": {\"O\": 1}, \"17\": {\"O\": 1}, \"18\": {\"O\": 1}, \"19\": {\"O\": 1}, \"20\": {\"O\": 1}, \"21\": {\"O\": 1}, \"22\": {\"O\": 1}, \"23\": {\"O\": 1}, \"24\": {\"O\": 1}, \"25\": {\"O\": 1}, \"26\": {\"O\": 1}, \"27\": {\"O\": 1}, \"28\": {\"O\": 1}, \"29\": {\"O\": 1}, \"30\": {\"O\": 1}, \"31\": {\"O\": 1}, \"32\": {\"O\": 1}, \"33\": {\"O\": 1}, \"34\": {\"O\": 1}, \"35\": {\"O\": 1}, \"36\": {\"O\": 1}, \"37\": {\"O\": 1}, \"38\": {\"O\": 1}, \"39\": {\"O\": 1}}" n_minim_iter=5 energy=-45149.747429550865 stress="0.05881812179067017 -2.250360531631297e-13 1.2100472661980265e-13 -2.250360531631297e-13 0.05881812179021217 -1.1905034251798357e-13 1.2100472661980265e-13 -1.1905034251798357e-13 0.05881812179088878" free_energy=-45149.747429550865 pbc="T T T"
In      -4.39055918       3.10459417       5.98470195        0      -0.00634219       0.00448460      -0.00776756
In       7.48290846       1.26864814       1.58997590        1       0.00634219      -0.00448460       0.00776756
In       1.29820989      -0.91797301       5.37731483        2       0.00634219      -0.00448460       0.00776756
In      -1.54617464      -2.18662115       3.78733893        3       0.00000000       0.00000000       0.00000000
In      -1.29820989       4.19790474       3.48364536        4      -0.00634219       0.00448460       0.00776756
In       4.88648868      -2.92925660       5.68100839        5      -0.00634219      -0.00896920       0.00000000
In      -1.29820989       1.44398569       5.68100839        6      -0.00634219      -0.00896920      -0.00000000
In      -1.79413940       7.30249891       1.89366946        7       0.00634219       0.00896920       0.00000000
In       4.39055917       0.17533756       4.09103248        8       0.00634219      -0.00448460      -0.00776756
In      -1.54617464       4.37324230      -0.00000000        9      -0.00000000       0.00000000      -0.00000000
In       4.39055917       6.73520101       0.30369356       10       0.00634219      -0.00448460      -0.00776756
In      -1.29820989      -2.36195871       7.27098429       11      -0.00634219       0.00448460       0.00776756
In       4.39055917       2.92925661       1.89366946       12       0.00634219       0.00896920       0.00000000
In       1.79413939       5.29121532       2.19736302       13      -0.00634219       0.00448460      -0.00776756
In       4.63852393       0.00000000      -0.00000000       14       0.00000000      -0.00000000      -0.00000000
In       1.54617464       2.18662115       3.78733892       15      -0.00000000      -0.00000000      -0.00000000
O        0.97869616       4.38021037       4.10511659       16       0.00503451      -0.00445665      -0.00752083
O       -2.11365312       3.55165122       5.51608503       17       0.00503451      -0.00428491       0.00761999
O       -0.44180189       2.36947388      -0.01100160       18      -0.00656345       0.00391609      -0.00658455
O       -0.97869616      -0.81462301       2.04652377       19      -0.00503451      -0.00874155       0.00009916
O        4.05307992       5.18151354       2.05752536       20      -0.00571802       0.00493996       0.00668370
O        2.13161865       2.99550869       1.72874611       21       0.00571802      -0.00331828       0.00761999
O        2.13161865       6.55924715       0.32877925       22       0.00571802       0.00825824      -0.00093628
O       -2.38122869       6.18657364       3.77633733       23      -0.00587994       0.00488272      -0.00658455
O        3.53415117       2.00376843       7.58567944       24       0.00656345      -0.00391609       0.00658455
O        5.47357797      -1.81333134       3.79834052       25       0.00587994      -0.00488272       0.00658455
O        6.62650046       3.36183043       1.72981356       26       0.00656345      -0.00374434      -0.00668370
O        3.80346988       2.36373840       4.11611818       27      -0.00587994      -0.00814374      -0.00093628
O        0.71112060       4.56941486       7.25690019       28      -0.00587994       0.00326103       0.00752083
O        2.38122869      -0.19617256       0.31777766       29       0.00587994      -0.00326103      -0.00752083
O       -3.53415117       1.01141187       5.84486429       30      -0.00656345       0.00374434       0.00668370
O        5.20600241       0.82159108       2.05859282       31      -0.00503451       0.00428491      -0.00761999
O        0.96073064       1.37773362       5.84593174       32      -0.00571802       0.00331828      -0.00761999
O        3.53415117      -0.99235655       5.83386270       33       0.00656345       0.00766043       0.00009916
O        2.11365312      -0.00696806       3.46956126       34      -0.00503451       0.00445665       0.00752083
O        0.96073064      -2.18600485       7.24589860       35      -0.00571802      -0.00825824       0.00093628
O       -0.71112060       2.00950390       3.45855967       36       0.00587994       0.00814374       0.00093628
O       -0.96073064      -0.80827124       5.51715249       37       0.00571802      -0.00493996      -0.00668370
O       -0.44180189       5.36559885       1.74081515       38      -0.00656345      -0.00766043      -0.00009916
O        4.07104545       5.18786531       5.52815408       39       0.00503451       0.00874155      -0.00009916
40