40
Lattice="8.531557204244338 6.686793341259545e-10 6.217248937900877e-15 -2.843852402045219 8.043629270713259 -1.1582113046415543e-09 -2.843852401099565 -4.02181463468793 6.965987287833914" Properties=species:S:1:pos:R:3:spacegroup_kinds:I:1:forces:R:3 spacegroup="P 1" unit_cell=conventional occupancy="_JSON {\"0\": {\"In\": 1}, \"1\": {\"In\": 1}, \"2\": {\"In\": 1}, \"3\": {\"In\": 1}, \"4\": {\"In\": 1}, \"5\": {\"In\": 1}, \"6\": {\"In\": 1}, \"7\": {\"In\": 1}, \"8\": {\"In\": 1}, \"9\": {\"In\": 1}, \"10\": {\"In\": 1}, \"11\": {\"In\": 1}, \"12\": {\"In\": 1}, \"13\": {\"In\": 1}, \"14\": {\"In\": 1}, \"15\": {\"In\": 1}, \"16\": {\"O\": 1}, \"17\": {\"O\": 1}, \"18\": {\"O\": 1}, \"19\": {\"O\": 1}, \"20\": {\"O\": 1}, \"21\": {\"O\": 1}, \"22\": {\"O\": 1}, \"23\": {\"O\": 1}, \"24\": {\"O\": 1}, \"25\": {\"O\": 1}, \"26\": {\"O\": 1}, \"27\": {\"O\": 1}, \"28\": {\"O\": 1}, \"29\": {\"O\": 1}, \"30\": {\"O\": 1}, \"31\": {\"O\": 1}, \"32\": {\"O\": 1}, \"33\": {\"O\": 1}, \"34\": {\"O\": 1}, \"35\": {\"O\": 1}, \"36\": {\"O\": 1}, \"37\": {\"O\": 1}, \"38\": {\"O\": 1}, \"39\": {\"O\": 1}}" n_minim_iter=1 energy=-45148.62167092505 stress="-0.12112400361431251 -5.391898434230647e-13 7.929275108472188e-13 -5.391898434230647e-13 -0.12112400361558207 1.374182345457676e-12 7.929275108472188e-13 1.374182345457676e-12 -0.12112400361572398" free_energy=-45148.62167092505 pbc="T T T"
In      -4.07082941       2.87851108       5.46325349        0      -0.01137025       0.00803998      -0.01392565
In       6.91468181       1.14330356       1.50273379        1       0.01137025      -0.00803998       0.01392565
In       1.22697700      -0.86760376       4.98572743        2       0.01137025      -0.00803998       0.01392565
In      -1.42192620      -2.01090732       3.48299364        3      -0.00000000      -0.00000000       0.00000000
In      -1.22697701       3.88396474       3.24423061        4      -0.01137025       0.00803998       0.01392565
In       4.46072780      -2.74066118       5.22449046        5      -0.01137025      -0.01607996      -0.00000000
In      -1.22697701       1.28115346       5.22449046        6      -0.01137025      -0.01607996       0.00000000
In      -1.61687540       6.76247582       1.74149682        7       0.01137025       0.01607996      -0.00000000
In       4.07082940       0.13784990       3.72175667        8       0.01137025      -0.00803998      -0.01392565
In      -1.42192620       4.02181464      -0.00000000        9       0.00000000      -0.00000000      -0.00000000
In       4.07082940       6.17057185       0.23876303       10       0.01137025      -0.00803998      -0.01392565
In      -1.22697701      -2.14875721       6.72722426       11      -0.01137025       0.00803998       0.01392565
In       4.07082940       2.74066118       1.74149682       12       0.01137025       0.01607996      -0.00000000
In       1.61687540       4.88941840       1.98025985       13      -0.01137025       0.00803998      -0.01392565
In       4.26577860       0.00000000      -0.00000000       14      -0.00000000      -0.00000000      -0.00000000
In       1.42192620       2.01090732       3.48299364       15       0.00000000       0.00000000      -0.00000000
O        0.82879282       4.01871159       3.80555450       16      -0.01329840      -0.00077688       0.04275145
O       -2.01505958       3.29725840       5.06589736       17      -0.01329840       0.03741228      -0.02070293
O       -0.40977948       2.16215396       0.06596863       18       0.03010739       0.00671975       0.03245809
O       -0.82879283      -0.72765929       1.90546457       19       0.01329840       0.03663541       0.02204852
O        3.78037155       4.78756094       1.83949593       20       0.03970544      -0.01789572      -0.01040957
O        1.90733325       2.81163758       1.58290371       21      -0.03970544       0.00006709      -0.02070293
O        1.90733325       5.99773800       0.25659222       22      -0.03970544      -0.01796281       0.01029336
O       -2.17509146       5.69834777       3.54896228       23       0.00370036      -0.03062544       0.03245809
O        3.25363188       1.85966068       6.90001865       24      -0.03010739      -0.00671975      -0.03245809
O        5.01894386      -1.67653313       3.41702501       25      -0.00370036       0.03062544      -0.03245809
O        6.09748428       3.14911481       1.64349770       26      -0.03010739       0.03146941       0.01040957
O        3.51261334       2.23522493       3.73958586       27       0.00370036       0.04342225       0.01029336
O        0.66876094       4.13187122       6.64342643       28       0.00370036      -0.01279681      -0.04275145
O        2.17509146      -0.11005658       0.32256085       29      -0.00370036       0.01279681       0.04275145
O       -3.25363188       0.87269983       5.32248958       30       0.03010739      -0.03146941      -0.01040957
O        4.85891198       0.72455624       1.90008993       31       0.01329840      -0.03741228       0.02070293
O        0.93651915       1.21017706       5.38308357       32       0.03970544      -0.00006709       0.02070293
O        3.25363188      -0.98696085       5.38845821       33      -0.03010739      -0.02474966       0.02204852
O        2.01505958       0.00310305       3.16043279       34       0.01329840       0.00077688      -0.04275145
O        0.93651915      -1.97592336       6.70939506       35       0.03970544       0.01796281      -0.01029336
O       -0.66876094       1.78658971       3.22640142       36      -0.00370036      -0.04342225      -0.01029336
O       -0.93651916      -0.76574630       5.12649135       37      -0.03970544       0.01789572       0.01040957
O       -0.40977948       5.00877549       1.57752907       38       0.03010739       0.02474966      -0.02204852
O        3.67264522       4.74947393       5.06052271       39      -0.01329840      -0.03663541      -0.02204852
40
Lattice="8.531557204244335 6.686793341259543e-10 6.2172489379008656e-15 -2.843852402045218 8.043629270713256 -1.1582113046415539e-09 -2.8438524010995643 -4.021814634687928 6.965987287833913" Properties=species:S:1:pos:R:3:spacegroup_kinds:I:1:forces:R:3 spacegroup="P 1" unit_cell=conventional occupancy="_JSON {\"0\": {\"In\": 1}, \"1\": {\"In\": 1}, \"2\": {\"In\": 1}, \"3\": {\"In\": 1}, \"4\": {\"In\": 1}, \"5\": {\"In\": 1}, \"6\": {\"In\": 1}, \"7\": {\"In\": 1}, \"8\": {\"In\": 1}, \"9\": {\"In\": 1}, \"10\": {\"In\": 1}, \"11\": {\"In\": 1}, \"12\": {\"In\": 1}, \"13\": {\"In\": 1}, \"14\": {\"In\": 1}, \"15\": {\"In\": 1}, \"16\": {\"O\": 1}, \"17\": {\"O\": 1}, \"18\": {\"O\": 1}, \"19\": {\"O\": 1}, \"20\": {\"O\": 1}, \"21\": {\"O\": 1}, \"22\": {\"O\": 1}, \"23\": {\"O\": 1}, \"24\": {\"O\": 1}, \"25\": {\"O\": 1}, \"26\": {\"O\": 1}, \"27\": {\"O\": 1}, \"28\": {\"O\": 1}, \"29\": {\"O\": 1}, \"30\": {\"O\": 1}, \"31\": {\"O\": 1}, \"32\": {\"O\": 1}, \"33\": {\"O\": 1}, \"34\": {\"O\": 1}, \"35\": {\"O\": 1}, \"36\": {\"O\": 1}, \"37\": {\"O\": 1}, \"38\": {\"O\": 1}, \"39\": {\"O\": 1}}" n_minim_iter=2 energy=-45148.62295504929 stress="-0.12092008704341048 6.540170993367428e-14 2.3518160497827017e-13 6.540170993367428e-14 -0.12092008704210763 -3.3656428837855874e-13 2.3518160497827017e-13 -3.3656428837855874e-13 -0.1209200870410867" free_energy=-45148.62295504929 pbc="T T T"
In      -4.07138274       2.87890235       5.46257580        0       0.01718634      -0.01215257       0.02104888
In       6.91523514       1.14291229       1.50341148        1      -0.01718634       0.01215257      -0.02104888
In       1.22753034      -0.86799502       4.98640513        2      -0.01718634       0.01215257      -0.02104888
In      -1.42192620      -2.01090732       3.48299364        3       0.00000000       0.00000000      -0.00000000
In      -1.22753034       3.88435600       3.24490830        4       0.01718634      -0.01215257      -0.02104888
In       4.46017446      -2.74144371       5.22449046        5       0.01718634       0.02430515       0.00000000
In      -1.22753034       1.28037093       5.22449046        6       0.01718634       0.02430515      -0.00000000
In      -1.61632207       6.76325835       1.74149682        7      -0.01718634      -0.02430515       0.00000000
In       4.07138274       0.13745864       3.72107898        8      -0.01718634       0.01215257       0.02104888
In      -1.42192620       4.02181464      -0.00000000        9      -0.00000000      -0.00000000       0.00000000
In       4.07138274       6.17018059       0.23808533       10      -0.01718634       0.01215257       0.02104888
In      -1.22753034      -2.14836595       6.72790195       11       0.01718634      -0.01215257      -0.02104888
In       4.07138274       2.74144371       1.74149682       12      -0.01718634      -0.02430515      -0.00000000
In       1.61632206       4.88980966       1.97958215       13       0.01718634      -0.01215257       0.02104888
In       4.26577860       0.00000000      -0.00000000       14      -0.00000000      -0.00000000       0.00000000
In       1.42192620       2.01090732       3.48299364       15      -0.00000000       0.00000000      -0.00000000
O        0.82814566       4.01867378       3.80763500       16      -0.02083993      -0.01368115       0.00011863
O       -2.01570675       3.29907907       5.06488985       17      -0.02083993       0.00694332       0.01178891
O       -0.40831431       2.16248098       0.06754821       18      -0.01329914       0.00161117       0.02102445
O       -0.82814566      -0.72587642       1.90653756       19       0.02083993      -0.00673784       0.01190754
O        3.78230382       4.78669004       1.83898935       20       0.01349286       0.01887631      -0.00911691
O        1.90540098       2.81164084       1.58189620       21      -0.01349286       0.01733363       0.01178891
O        1.90540098       5.99686384       0.25709314       22      -0.01349286       0.00154268      -0.02090582
O       -2.17491138       5.69685738       3.55054185       23      -0.00595207       0.01200149       0.02102445
O        3.25216670       1.85933366       6.89843908       24       0.01329914      -0.00161117      -0.02102445
O        5.01876378      -1.67504274       3.41544543       25       0.00595207      -0.01200149      -0.02102445
O        6.09601911       3.15064627       1.64400429       26       0.01329914       0.01901330       0.00911691
O        3.51279342       2.23733807       3.74008679       27      -0.00595207       0.01220697      -0.02090582
O        0.66894102       4.13124846       6.64134593       28      -0.00595207      -0.02420846      -0.00011863
O        2.17491138      -0.10943382       0.32464135       29       0.00595207       0.02420846       0.00011863
O       -3.25216671       0.87116837       5.32198300       30      -0.01329914      -0.01901330      -0.00911691
O        4.85955914       0.72273557       1.90109743       31       0.02083993      -0.00694332      -0.01178891
O        0.93845142       1.21017380       5.38409108       32       0.01349286      -0.01733363      -0.01178891
O        3.25216670      -0.98816529       5.38953120       33       0.01329914      -0.01740213       0.01190754
O        2.01570674       0.00314086       3.15835228       34       0.02083993       0.01368115      -0.00011863
O        0.93845142      -1.97504920       6.70889414       35       0.01349286      -0.00154268       0.02090582
O       -0.66894102       1.78447657       3.22590049       36       0.00595207      -0.01220697       0.02090582
O       -0.93845142      -0.76487540       5.12699793       37      -0.01349286      -0.01887631       0.00911691
O       -0.40831431       5.00997993       1.57645608       38      -0.01329914       0.01740213      -0.01190754
O        3.67199806       4.74769106       5.05944972       39      -0.02083993       0.00673784      -0.01190754
40
Lattice="8.531557204244338 6.686793341259547e-10 6.21724893790087e-15 -2.84385240204522 8.043629270713259 -1.1582113046415545e-09 -2.843852401099566 -4.02181463468793 6.965987287833917" Properties=species:S:1:pos:R:3:spacegroup_kinds:I:1:forces:R:3 spacegroup="P 1" unit_cell=conventional occupancy="_JSON {\"0\": {\"In\": 1}, \"1\": {\"In\": 1}, \"2\": {\"In\": 1}, \"3\": {\"In\": 1}, \"4\": {\"In\": 1}, \"5\": {\"In\": 1}, \"6\": {\"In\": 1}, \"7\": {\"In\": 1}, \"8\": {\"In\": 1}, \"9\": {\"In\": 1}, \"10\": {\"In\": 1}, \"11\": {\"In\": 1}, \"12\": {\"In\": 1}, \"13\": {\"In\": 1}, \"14\": {\"In\": 1}, \"15\": {\"In\": 1}, \"16\": {\"O\": 1}, \"17\": {\"O\": 1}, \"18\": {\"O\": 1}, \"19\": {\"O\": 1}, \"20\": {\"O\": 1}, \"21\": {\"O\": 1}, \"22\": {\"O\": 1}, \"23\": {\"O\": 1}, \"24\": {\"O\": 1}, \"25\": {\"O\": 1}, \"26\": {\"O\": 1}, \"27\": {\"O\": 1}, \"28\": {\"O\": 1}, \"29\": {\"O\": 1}, \"30\": {\"O\": 1}, \"31\": {\"O\": 1}, \"32\": {\"O\": 1}, \"33\": {\"O\": 1}, \"34\": {\"O\": 1}, \"35\": {\"O\": 1}, \"36\": {\"O\": 1}, \"37\": {\"O\": 1}, \"38\": {\"O\": 1}, \"39\": {\"O\": 1}}" n_minim_iter=3 energy=-45148.623851685064 stress="-0.12075154312281647 -1.1039136797189654e-13 -3.049809984785198e-13 -1.1039136797189654e-13 -0.12075154312478906 3.832790655597938e-13 -3.049809984785198e-13 3.832790655597938e-13 -0.12075154312545192" free_energy=-45148.623851685064 pbc="T T T"
In      -4.07056163       2.87832173       5.46358145        0       0.00140347      -0.00099240       0.00171889
In       6.91441403       1.14349291       1.50240583        1      -0.00140347       0.00099240      -0.00171889
In       1.22670923      -0.86741441       4.98539948        2      -0.00140347       0.00099240      -0.00171889
In      -1.42192620      -2.01090732       3.48299364        3       0.00000000      -0.00000000      -0.00000000
In      -1.22670923       3.88377539       3.24390266        4       0.00140347      -0.00099240      -0.00171889
In       4.46099557      -2.74028248       5.22449046        5       0.00140347       0.00198481       0.00000000
In      -1.22670923       1.28153215       5.22449046        6       0.00140347       0.00198481      -0.00000000
In      -1.61714317       6.76209712       1.74149682        7      -0.00140347      -0.00198481      -0.00000000
In       4.07056163       0.13803925       3.72208463        8      -0.00140347       0.00099240       0.00171889
In      -1.42192620       4.02181464      -0.00000000        9       0.00000000       0.00000000       0.00000000
In       4.07056163       6.17076120       0.23909098       10      -0.00140347       0.00099240       0.00171889
In      -1.22670923      -2.14894656       6.72689630       11       0.00140347      -0.00099240      -0.00171889
In       4.07056163       2.74028249       1.74149682       12      -0.00140347      -0.00198481       0.00000000
In       1.61714317       4.88922905       1.98058780       13       0.00140347      -0.00099240       0.00171889
In       4.26577860       0.00000000      -0.00000000       14      -0.00000000       0.00000000       0.00000000
In       1.42192620       2.01090732       3.48299364       15       0.00000000       0.00000000      -0.00000000
O        0.82622941       4.01768610       3.80909635       16      -0.00256406       0.00704514       0.00013540
O       -2.01762299       3.30083847       5.06501453       17      -0.00256406      -0.00340531      -0.00616897
O       -0.40822546       2.16282257       0.07012861       18       0.00257698      -0.00704057       0.00012749
O       -0.82622941      -0.72510470       1.90812359       19       0.00256406       0.00363983      -0.00603357
O        3.78460135       4.78740811       1.83799498       20      -0.00235587      -0.00356622      -0.00616106
O        1.90310345       2.81286103       1.58202088       21       0.00235587       0.00355253      -0.00616897
O        1.90310345       5.99636172       0.25597409       22       0.00235587      -0.00711875       0.00000791
O       -2.17520383       5.69665976       3.55312225       23       0.00749691      -0.00008274       0.00012749
O        3.25207786       1.85899207       6.89585868       24      -0.00257698       0.00704057      -0.00012749
O        5.01905623      -1.67484512       3.41286503       25      -0.00749691       0.00008274      -0.00012749
O        6.09593026       3.15305176       1.64499866       26      -0.00257698      -0.00340987       0.00616106
O        3.51250098       2.23967158       3.73896774       27       0.00749691       0.00015178       0.00000791
O        0.66864857       4.12911258       6.63988458       28       0.00749691      -0.00006904      -0.00013540
O        2.17520382      -0.10729794       0.32610270       29      -0.00749691       0.00006904       0.00013540
O       -3.25207786       0.86876288       5.32098862       30       0.00257698       0.00340987      -0.00616106
O        4.86147539       0.72097617       1.90097276       31       0.00256406       0.00340531       0.00616897
O        0.94074895       1.20895361       5.38396640       32      -0.00235587      -0.00355253       0.00616897
O        3.25207786      -0.99022919       5.39111723       33      -0.00257698      -0.00363070      -0.00603357
O        2.01762299       0.00412854       3.15689094       34       0.00256406      -0.00704514      -0.00013540
O        0.94074895      -1.97454708       6.71001319       35      -0.00235587       0.00711875      -0.00000791
O       -0.66864858       1.78214306       3.22701954       36      -0.00749691      -0.00015178      -0.00000791
O       -0.94074895      -0.76559347       5.12799230       37       0.00235587       0.00356622       0.00616106
O       -0.40822546       5.01204383       1.57487005       38       0.00257698       0.00363070       0.00603357
O        3.67008181       4.74691934       5.05786369       39      -0.00256406      -0.00363983       0.00603357
