40
Lattice="9.41249831804756 7.377245481166028e-10 1.1102230246251565e-14 -3.13749944004472 8.87418851788529 -1.2777938707131398e-09 -3.1374994390014295 -4.43709425820491 7.685272695312692" Properties=species:S:1:pos:R:3:spacegroup_kinds:I:1:forces:R:3 spacegroup="P 1" unit_cell=conventional occupancy="_JSON {\"0\": {\"In\": 1}, \"1\": {\"In\": 1}, \"2\": {\"In\": 1}, \"3\": {\"In\": 1}, \"4\": {\"In\": 1}, \"5\": {\"In\": 1}, \"6\": {\"In\": 1}, \"7\": {\"In\": 1}, \"8\": {\"In\": 1}, \"9\": {\"In\": 1}, \"10\": {\"In\": 1}, \"11\": {\"In\": 1}, \"12\": {\"In\": 1}, \"13\": {\"In\": 1}, \"14\": {\"In\": 1}, \"15\": {\"In\": 1}, \"16\": {\"O\": 1}, \"17\": {\"O\": 1}, \"18\": {\"O\": 1}, \"19\": {\"O\": 1}, \"20\": {\"O\": 1}, \"21\": {\"O\": 1}, \"22\": {\"O\": 1}, \"23\": {\"O\": 1}, \"24\": {\"O\": 1}, \"25\": {\"O\": 1}, \"26\": {\"O\": 1}, \"27\": {\"O\": 1}, \"28\": {\"O\": 1}, \"29\": {\"O\": 1}, \"30\": {\"O\": 1}, \"31\": {\"O\": 1}, \"32\": {\"O\": 1}, \"33\": {\"O\": 1}, \"34\": {\"O\": 1}, \"35\": {\"O\": 1}, \"36\": {\"O\": 1}, \"37\": {\"O\": 1}, \"38\": {\"O\": 1}, \"39\": {\"O\": 1}}" n_minim_iter=1 energy=-45147.81560017424 stress="0.08408693551009093 -6.086288167043267e-13 1.580330725371612e-13 -6.086288167043267e-13 0.08408693551018095 -3.245813191998599e-13 1.580330725371612e-13 -3.245813191998599e-13 0.08408693551076898" free_energy=-45147.81560017424 pbc="T T T"
In      -4.44486667       3.14299536       6.08408138        0       0.07275938      -0.05144865       0.08911168
In       7.58236611       1.29409890       1.60119131        1      -0.07275938       0.05144865      -0.08911168
In       1.30736723      -0.92444823       5.44382765        2      -0.07275938       0.05144865      -0.08911168
In      -1.56874972      -2.21854713       3.84263635        3       0.00000000      -0.00000000      -0.00000000
In      -1.30736723       4.25226893       3.52250948        4       0.07275938      -0.05144865      -0.08911168
In       4.96763165      -2.95817003       5.76395452        5       0.07275938       0.10289730      -0.00000000
In      -1.30736723       1.47892423       5.76395452        6       0.07275938       0.10289730      -0.00000000
In      -1.83013221       7.39526429       1.92131817        7      -0.07275938      -0.10289730       0.00000000
In       4.44486667       0.18482533       4.16276321        8      -0.07275938       0.05144865       0.08911168
In      -1.56874972       4.43709426      -0.00000000        9       0.00000000      -0.00000000      -0.00000000
In       4.44486667       6.84046672       0.32012686       10      -0.07275938       0.05144865       0.08911168
In      -1.30736723      -2.40337246       7.36514583       11       0.07275938      -0.05144865      -0.08911168
In       4.44486667       2.95817003       1.92131817       12      -0.07275938      -0.10289730       0.00000000
In       1.83013221       5.36154249       2.24144504       13       0.07275938      -0.05144865       0.08911168
In       4.70624916       0.00000000      -0.00000000       14       0.00000000       0.00000000       0.00000000
In       1.56874972       2.21854713       3.84263634       15      -0.00000000      -0.00000000      -0.00000000
O        1.00948289       4.44527040       4.15967984       16       0.02781231       0.00065274      -0.04955592
O       -2.12801655       3.59830035       5.59835203       17       0.02781231      -0.04324306       0.02421267
O       -0.44661965       2.40937320      -0.02763844       18      -0.03088377      -0.00173867      -0.04767505
O       -1.00948290      -0.83061777       2.07275918       19      -0.02781231      -0.04259032      -0.02534326
O        4.10184895       5.25175498       2.10039762       20      -0.05004072       0.01506511       0.02233179
O        2.17314993       3.02542692       1.75571568       21       0.05004072      -0.01180734       0.02421267
O        2.17314993       6.66342232       0.34468193       22       0.05004072       0.02687246      -0.00188087
O       -2.42045206       6.27359404       3.81499790       23      -0.00865536       0.02969705      -0.04767505
O        3.58411909       2.02772106       7.71291113       24       0.03088377       0.00173867       0.04767505
O        5.55795150      -1.83649977       3.87027478       25       0.00865536      -0.02969705       0.04767505
O        6.72161853       3.39929814       1.74223872       26       0.03088377      -0.04215714      -0.02233179
O        3.85454682       2.38563522       4.18731828       27      -0.00865536      -0.05613633      -0.00188087
O        0.71704738       4.65205353       7.36822920       28      -0.00865536       0.02643928       0.04955592
O        2.42045206      -0.21495927       0.31704349       29       0.00865536      -0.02643928      -0.04955592
O       -3.58411909       1.03779612       5.94303397       30      -0.03088377       0.04215714       0.02233179
O        5.26551598       0.83879391       2.08692066       31      -0.02781231       0.04324306      -0.02421267
O        0.96434951       1.41166734       5.92955701       32      -0.05004072       0.01180734      -0.02421267
O        3.58411909      -0.98992493       5.91539553       33       0.03088377       0.04041847      -0.02534326
O        2.12801654      -0.00817613       3.52559285       34      -0.02781231      -0.00065274       0.04955592
O        0.96434951      -2.22632805       7.34059076       35      -0.05004072      -0.02687246       0.00188087
O       -0.71704738       2.05145904       3.49795441       36       0.00865536       0.05613633       0.00188087
O       -0.96434951      -0.81466071       5.58487507       37       0.05004072      -0.01506511      -0.02233179
O       -0.44661965       5.42701920       1.76987716       38      -0.03088377      -0.04041847       0.02534326
O        4.14698233       5.26771204       5.61251351       39       0.02781231       0.04259032       0.02534326
40
Lattice="9.412498318047563 7.377245481166031e-10 1.1102230246251578e-14 -3.137499440044721 8.874188517885292 -1.2777938707131404e-09 -3.137499439001431 -4.437094258204911 7.685272695312696" Properties=species:S:1:pos:R:3:spacegroup_kinds:I:1:forces:R:3 spacegroup="P 1" unit_cell=conventional occupancy="_JSON {\"0\": {\"In\": 1}, \"1\": {\"In\": 1}, \"2\": {\"In\": 1}, \"3\": {\"In\": 1}, \"4\": {\"In\": 1}, \"5\": {\"In\": 1}, \"6\": {\"In\": 1}, \"7\": {\"In\": 1}, \"8\": {\"In\": 1}, \"9\": {\"In\": 1}, \"10\": {\"In\": 1}, \"11\": {\"In\": 1}, \"12\": {\"In\": 1}, \"13\": {\"In\": 1}, \"14\": {\"In\": 1}, \"15\": {\"In\": 1}, \"16\": {\"O\": 1}, \"17\": {\"O\": 1}, \"18\": {\"O\": 1}, \"19\": {\"O\": 1}, \"20\": {\"O\": 1}, \"21\": {\"O\": 1}, \"22\": {\"O\": 1}, \"23\": {\"O\": 1}, \"24\": {\"O\": 1}, \"25\": {\"O\": 1}, \"26\": {\"O\": 1}, \"27\": {\"O\": 1}, \"28\": {\"O\": 1}, \"29\": {\"O\": 1}, \"30\": {\"O\": 1}, \"31\": {\"O\": 1}, \"32\": {\"O\": 1}, \"33\": {\"O\": 1}, \"34\": {\"O\": 1}, \"35\": {\"O\": 1}, \"36\": {\"O\": 1}, \"37\": {\"O\": 1}, \"38\": {\"O\": 1}, \"39\": {\"O\": 1}}" n_minim_iter=2 energy=-45147.83515007485 stress="0.08109519470061187 -2.3436187739593515e-13 -2.9116602413353016e-13 -2.3436187739593515e-13 0.08109519469947125 2.6457645349063806e-13 -2.9116602413353016e-13 2.6457645349063806e-13 0.08109519470107127" free_energy=-45147.83515007485 pbc="T T T"
In      -4.43421430       3.13546300       6.09712782        0       0.00457999      -0.00323854       0.00560932
In       7.57171373       1.30163127       1.58814486        1      -0.00457999       0.00323854      -0.00560932
In       1.29671485      -0.91691586       5.43078121        2      -0.00457999       0.00323854      -0.00560932
In      -1.56874972      -2.21854713       3.84263635        3      -0.00000000      -0.00000000      -0.00000000
In      -1.29671486       4.24473656       3.50946304        4       0.00457999      -0.00323854      -0.00560932
In       4.97828402      -2.94310530       5.76395452        5       0.00457999       0.00647709      -0.00000000
In      -1.29671486       1.49398896       5.76395452        6       0.00457999       0.00647709      -0.00000000
In      -1.84078459       7.38019956       1.92131817        7      -0.00457999      -0.00647709       0.00000000
In       4.43421429       0.19235770       4.17580965        8      -0.00457999       0.00323854       0.00560932
In      -1.56874972       4.43709426      -0.00000000        9       0.00000000      -0.00000000       0.00000000
In       4.43421429       6.84799909       0.33317330       10      -0.00457999       0.00323854       0.00560932
In      -1.29671486      -2.41090483       7.35209939       11       0.00457999      -0.00323854      -0.00560932
In       4.43421429       2.94310530       1.92131817       12      -0.00457999      -0.00647709       0.00000000
In       1.84078458       5.35401013       2.25449148       13       0.00457999      -0.00323854       0.00560932
In       4.70624916       0.00000000      -0.00000000       14      -0.00000000       0.00000000       0.00000000
In       1.56874972       2.21854713       3.84263634       15      -0.00000000       0.00000000       0.00000000
O        1.01355477       4.44536596       4.15242458       16       0.02224621      -0.01421625       0.02540800
O       -2.12394467       3.59196933       5.60189690       17       0.02224621       0.02911210      -0.00039236
O       -0.45114121       2.40911865      -0.03461833       18       0.02145934       0.02966850      -0.00135608
O       -1.01355477      -0.83685323       2.06904879       19      -0.02224621       0.01489584       0.02501564
O        4.09452271       5.25396059       2.10366712       20       0.02003175      -0.01567878       0.02637172
O        2.18047616       3.02369826       1.75926055       21      -0.02003175      -0.03067796      -0.00039236
O        2.18047616       6.66735659       0.34440656       22      -0.02003175       0.01499919       0.02676408
O       -2.42171925       6.27794185       3.80801801       23      -0.02081862      -0.03012156      -0.00135608
O        3.58864064       2.02797561       7.71989102       24      -0.02145934      -0.02966850       0.00135608
O        5.55921869      -1.84084758       3.87725467       25       0.02081862       0.03012156       0.00135608
O        6.72614008       3.39312611       1.73896923       26      -0.02145934       0.01365985      -0.02637172
O        3.85327963       2.37741655       4.18704291       27      -0.02081862       0.01388638       0.02676408
O        0.71578019       4.65592439       7.37548446       28      -0.02081862       0.01623518      -0.02540800
O        2.42171925      -0.21883012       0.30978823       29       0.02081862      -0.01623518       0.02540800
O       -3.58864065       1.04396816       5.94630346       30       0.02145934      -0.01365985       0.02637172
O        5.26144411       0.84512494       2.08337579       31      -0.02224621      -0.02911210       0.00039236
O        0.95702327       1.41339600       5.92601214       32       0.02003175       0.03067796       0.00039236
O        3.58864064      -0.98400745       5.91168513       33      -0.02145934       0.01600865       0.02501564
O        2.12394467      -0.00827170       3.53284811       34      -0.02224621       0.01421625      -0.02540800
O        0.95702327      -2.23026233       7.34086613       35       0.02003175      -0.01499919      -0.02676408
O       -0.71578019       2.05967771       3.49822978       36       0.02081862      -0.01388638      -0.02676408
O       -0.95702328      -0.81686633       5.58160557       37      -0.02003175       0.01567878      -0.02637172
O       -0.45114121       5.42110171       1.77358755       38       0.02145934      -0.01600865      -0.02501564
O        4.15105421       5.27394750       5.61622390       39       0.02224621      -0.01489584      -0.02501564
40
Lattice="9.412498318047572 7.377245481166035e-10 1.1102230246251611e-14 -3.1374994400447234 8.874188517885298 -1.277793870713141e-09 -3.137499439001433 -4.4370942582049135 7.685272695312701" Properties=species:S:1:pos:R:3:spacegroup_kinds:I:1:forces:R:3 spacegroup="P 1" unit_cell=conventional occupancy="_JSON {\"0\": {\"In\": 1}, \"1\": {\"In\": 1}, \"2\": {\"In\": 1}, \"3\": {\"In\": 1}, \"4\": {\"In\": 1}, \"5\": {\"In\": 1}, \"6\": {\"In\": 1}, \"7\": {\"In\": 1}, \"8\": {\"In\": 1}, \"9\": {\"In\": 1}, \"10\": {\"In\": 1}, \"11\": {\"In\": 1}, \"12\": {\"In\": 1}, \"13\": {\"In\": 1}, \"14\": {\"In\": 1}, \"15\": {\"In\": 1}, \"16\": {\"O\": 1}, \"17\": {\"O\": 1}, \"18\": {\"O\": 1}, \"19\": {\"O\": 1}, \"20\": {\"O\": 1}, \"21\": {\"O\": 1}, \"22\": {\"O\": 1}, \"23\": {\"O\": 1}, \"24\": {\"O\": 1}, \"25\": {\"O\": 1}, \"26\": {\"O\": 1}, \"27\": {\"O\": 1}, \"28\": {\"O\": 1}, \"29\": {\"O\": 1}, \"30\": {\"O\": 1}, \"31\": {\"O\": 1}, \"32\": {\"O\": 1}, \"33\": {\"O\": 1}, \"34\": {\"O\": 1}, \"35\": {\"O\": 1}, \"36\": {\"O\": 1}, \"37\": {\"O\": 1}, \"38\": {\"O\": 1}, \"39\": {\"O\": 1}}" n_minim_iter=3 energy=-45147.83743480989 stress="0.08111686935895467 -6.305935220305069e-13 -1.826860065007581e-13 -6.305935220305069e-13 0.08111686935868716 -3.5264484542304935e-13 -1.826860065007581e-13 -3.5264484542304935e-13 0.08111686935907567" free_energy=-45147.83743480989 pbc="T T T"
In      -4.43360800       3.13503428       6.09787038        0       0.00604117      -0.00427175       0.00739889
In       7.57110744       1.30205998       1.58740231        1      -0.00604117       0.00427175      -0.00739889
In       1.29610856      -0.91648715       5.43003866        2      -0.00604117       0.00427175      -0.00739889
In      -1.56874972      -2.21854713       3.84263635        3      -0.00000000      -0.00000000       0.00000000
In      -1.29610856       4.24430785       3.50872048        4       0.00604117      -0.00427175      -0.00739889
In       4.97889032      -2.94224787       5.76395452        5       0.00604117       0.00854350      -0.00000000
In      -1.29610856       1.49484639       5.76395452        6       0.00604117       0.00854350      -0.00000000
In      -1.84139088       7.37934213       1.92131817        7      -0.00604117      -0.00854350       0.00000000
In       4.43360800       0.19278641       4.17655221        8      -0.00604117       0.00427175       0.00739889
In      -1.56874972       4.43709426      -0.00000000        9       0.00000000      -0.00000000      -0.00000000
In       4.43360800       6.84842780       0.33391586       10      -0.00604117       0.00427175       0.00739889
In      -1.29610856      -2.41133354       7.35135683       11       0.00604117      -0.00427175      -0.00739889
In       4.43360800       2.94224787       1.92131817       12      -0.00604117      -0.00854350       0.00000000
In       1.84139088       5.35358141       2.25523403       13       0.00604117      -0.00427175       0.00739889
In       4.70624916       0.00000000      -0.00000000       14       0.00000000       0.00000000      -0.00000000
In       1.56874972       2.21854713       3.84263634       15       0.00000000       0.00000000      -0.00000000
O        1.01662799       4.44339478       4.15596663       16       0.01425182       0.01432952      -0.00595048
O       -2.12087145       3.59602242       5.60183296       17       0.01425182      -0.01231803      -0.00943448
O       -0.44815395       2.41323253      -0.03478755       18       0.00664705      -0.00694065      -0.01874838
O       -1.01662799      -0.83477131       2.07252690       19      -0.01425182       0.00201149      -0.01538497
O        4.09731960       5.25178098       2.10731445       20      -0.01636415      -0.01283587       0.00336341
O        2.17767928       3.01944977       1.75919661       21       0.01636415      -0.00933073      -0.00943448
O        2.17767927       6.66942547       0.34811783       22       0.01636415      -0.00350514       0.01279789
O       -2.42460210       6.27375414       3.80784880       23       0.00875939      -0.00395335      -0.01874838
O        3.58565338       2.02386173       7.72006024       24      -0.00664705       0.00694065       0.01874838
O        5.56210154      -1.83665988       3.87742389       25      -0.00875939       0.00395335       0.01874838
O        6.72315282       3.39503650       1.73532189       26      -0.00664705      -0.01970690      -0.00336341
O        3.85039678       2.37936386       4.19075418       27       0.00875939      -0.01425989       0.01279789
O        0.71289734       4.65816479       7.37194240       28       0.00875939       0.01821325       0.00595048
O        2.42460210      -0.22107052       0.31333028       29      -0.00875939      -0.01821325      -0.00595048
O       -3.58565339       1.04205777       5.94995080       30       0.00664705       0.01970690       0.00336341
O        5.25837089       0.84107184       2.08343973       31      -0.01425182       0.01231803       0.00943448
O        0.95982016       1.41764450       5.92607607       32      -0.01636415       0.00933073       0.00943448
O        3.58565338      -0.98180396       5.91516325       33      -0.00664705       0.01276625      -0.01538497
O        2.12087145      -0.00630052       3.52930606       34      -0.01425182      -0.01432952       0.00595048
O        0.95982016      -2.23233120       7.33715486       35      -0.01636415       0.00350514      -0.01279789
O       -0.71289734       2.05773041       3.49451851       36      -0.00875939       0.01425989      -0.01279789
O       -0.95982016      -0.81468671       5.57795824       37       0.01636415       0.01283587      -0.00336341
O       -0.44815395       5.41889822       1.77010944       38       0.00664705      -0.01276624       0.01538497
O        4.15412743       5.27186558       5.61274579       39       0.01425182      -0.00201149       0.01538497
40
Lattice="9.412498318047572 7.377245481166037e-10 1.110223024625161e-14 -3.137499440044724 8.874188517885301 -1.2777938707131412e-09 -3.1374994390014335 -4.437094258204915 7.685272695312703" Properties=species:S:1:pos:R:3:spacegroup_kinds:I:1:forces:R:3 spacegroup="P 1" unit_cell=conventional occupancy="_JSON {\"0\": {\"In\": 1}, \"1\": {\"In\": 1}, \"2\": {\"In\": 1}, \"3\": {\"In\": 1}, \"4\": {\"In\": 1}, \"5\": {\"In\": 1}, \"6\": {\"In\": 1}, \"7\": {\"In\": 1}, \"8\": {\"In\": 1}, \"9\": {\"In\": 1}, \"10\": {\"In\": 1}, \"11\": {\"In\": 1}, \"12\": {\"In\": 1}, \"13\": {\"In\": 1}, \"14\": {\"In\": 1}, \"15\": {\"In\": 1}, \"16\": {\"O\": 1}, \"17\": {\"O\": 1}, \"18\": {\"O\": 1}, \"19\": {\"O\": 1}, \"20\": {\"O\": 1}, \"21\": {\"O\": 1}, \"22\": {\"O\": 1}, \"23\": {\"O\": 1}, \"24\": {\"O\": 1}, \"25\": {\"O\": 1}, \"26\": {\"O\": 1}, \"27\": {\"O\": 1}, \"28\": {\"O\": 1}, \"29\": {\"O\": 1}, \"30\": {\"O\": 1}, \"31\": {\"O\": 1}, \"32\": {\"O\": 1}, \"33\": {\"O\": 1}, \"34\": {\"O\": 1}, \"35\": {\"O\": 1}, \"36\": {\"O\": 1}, \"37\": {\"O\": 1}, \"38\": {\"O\": 1}, \"39\": {\"O\": 1}}" n_minim_iter=4 energy=-45147.83788334923 stress="0.08073325054023345 -1.4311464450666886e-13 -9.083353951900159e-15 -1.4311464450666886e-13 0.0807332505411276 7.909122850281223e-14 -9.083353951900159e-15 7.909122850281223e-14 0.08073325054135311" free_energy=-45147.83788334923 pbc="T T T"
In      -4.43224981       3.13407390       6.09953381        0      -0.00209911       0.00148430      -0.00257088
In       7.56974925       1.30302036       1.58573888        1       0.00209911      -0.00148430       0.00257088
In       1.29475037      -0.91552677       5.42837522        2       0.00209911      -0.00148430       0.00257088
In      -1.56874972      -2.21854713       3.84263635        3       0.00000000      -0.00000000      -0.00000000
In      -1.29475037       4.24334746       3.50705705        4      -0.00209911       0.00148430       0.00257088
In       4.98024850      -2.94032710       5.76395452        5      -0.00209911      -0.00296860       0.00000000
In      -1.29475037       1.49676716       5.76395452        6      -0.00209911      -0.00296860       0.00000000
In      -1.84274907       7.37742136       1.92131817        7       0.00209911       0.00296860       0.00000000
In       4.43224981       0.19374680       4.17821564        8       0.00209911      -0.00148430      -0.00257088
In      -1.56874972       4.43709426      -0.00000000        9      -0.00000000       0.00000000       0.00000000
In       4.43224981       6.84938819       0.33557929       10       0.00209911      -0.00148430      -0.00257088
In      -1.29475037      -2.41229392       7.34969340       11      -0.00209911       0.00148430       0.00257088
In       4.43224981       2.94032710       1.92131817       12       0.00209911       0.00296860       0.00000000
In       1.84274906       5.35262103       2.25689747       13      -0.00209911       0.00148430      -0.00257088
In       4.70624916       0.00000000      -0.00000000       14      -0.00000000      -0.00000000      -0.00000000
In       1.56874972       2.21854713       3.84263634       15       0.00000000      -0.00000000       0.00000000
O        1.01778532       4.44328560       4.15566618       16       0.01186325       0.01464673      -0.00157569
O       -2.11971412       3.59581681       5.60207774       17       0.01186325      -0.00868795      -0.01189660
O       -0.44806496       2.41378235      -0.03585122       18       0.00957241      -0.00706808      -0.01470229
O       -1.01778532      -0.83508610       2.07247123       19      -0.01186325       0.00595878      -0.01347229
O        4.09673997       5.25148166       2.10832244       20      -0.01214550      -0.01444715       0.00123001
O        2.17825891       3.01842716       1.75944139       21       0.01214550      -0.00828880      -0.01189660
O        2.17825890       6.67014876       0.34888104       22       0.01214550      -0.00615836       0.01312661
O       -2.42509081       6.27348697       3.80678513       23       0.00985465      -0.00666893      -0.01470229
O        3.58556440       2.02331191       7.72112391       24      -0.00957241       0.00706808       0.01470229
O        5.56259025      -1.83639270       3.87848756       25      -0.00985465       0.00666893       0.01470229
O        6.72306383       3.39439024       1.73431390       26      -0.00957241      -0.01626660      -0.00123001
O        3.84990806       2.37857628       4.19151739       27       0.00985465      -0.00939810       0.01312661
O        0.71240862       4.65921954       7.37224286       28       0.00985465       0.01606702       0.00157569
O        2.42509081      -0.22212527       0.31302983       29      -0.00985465      -0.01606702      -0.00157569
O       -3.58556440       1.04270402       5.95095879       30       0.00957241       0.01626660       0.00123001
O        5.25721355       0.84127745       2.08319495       31      -0.01186325       0.00868795       0.01189660
O        0.95924053       1.41866710       5.92583129       32      -0.01214550       0.00828880       0.01189660
O        3.58556440      -0.98060789       5.91510757       33      -0.00957241       0.00919852      -0.01347229
O        2.11971411      -0.00619134       3.52960651       34      -0.01186325      -0.01464673       0.00157569
O        0.95924053      -2.23305449       7.33639164       35      -0.01214550       0.00615836      -0.01312661
O       -0.71240863       2.05851798       3.49375530       36      -0.00985465       0.00939810      -0.01312661
O       -0.95924053      -0.81438740       5.57695025       37       0.01214550       0.01444715      -0.00123001
O       -0.44806496       5.41770215       1.77016512       38       0.00957241      -0.00919852       0.01347229
O        4.15528476       5.27218037       5.61280146       39       0.01186325      -0.00595878       0.01347229
40
Lattice="9.412498318047573 7.37724548116604e-10 1.1102230246251627e-14 -3.1374994400447243 8.874188517885303 -1.2777938707131414e-09 -3.137499439001434 -4.437094258204916 7.685272695312705" Properties=species:S:1:pos:R:3:spacegroup_kinds:I:1:forces:R:3 spacegroup="P 1" unit_cell=conventional occupancy="_JSON {\"0\": {\"In\": 1}, \"1\": {\"In\": 1}, \"2\": {\"In\": 1}, \"3\": {\"In\": 1}, \"4\": {\"In\": 1}, \"5\": {\"In\": 1}, \"6\": {\"In\": 1}, \"7\": {\"In\": 1}, \"8\": {\"In\": 1}, \"9\": {\"In\": 1}, \"10\": {\"In\": 1}, \"11\": {\"In\": 1}, \"12\": {\"In\": 1}, \"13\": {\"In\": 1}, \"14\": {\"In\": 1}, \"15\": {\"In\": 1}, \"16\": {\"O\": 1}, \"17\": {\"O\": 1}, \"18\": {\"O\": 1}, \"19\": {\"O\": 1}, \"20\": {\"O\": 1}, \"21\": {\"O\": 1}, \"22\": {\"O\": 1}, \"23\": {\"O\": 1}, \"24\": {\"O\": 1}, \"25\": {\"O\": 1}, \"26\": {\"O\": 1}, \"27\": {\"O\": 1}, \"28\": {\"O\": 1}, \"29\": {\"O\": 1}, \"30\": {\"O\": 1}, \"31\": {\"O\": 1}, \"32\": {\"O\": 1}, \"33\": {\"O\": 1}, \"34\": {\"O\": 1}, \"35\": {\"O\": 1}, \"36\": {\"O\": 1}, \"37\": {\"O\": 1}, \"38\": {\"O\": 1}, \"39\": {\"O\": 1}}" n_minim_iter=5 energy=-45147.83817211567 stress="0.08033248176588795 1.739702983188573e-13 1.246858760346025e-13 1.739702983188573e-13 0.0803324817661083 2.549960881161634e-13 1.246858760346025e-13 2.549960881161634e-13 0.08033248176727603" free_energy=-45147.83817211567 pbc="T T T"
In      -4.43095134       3.13315574       6.10112412        0      -0.01014124       0.00717094      -0.01242043
In       7.56845077       1.30393853       1.58414857        1       0.01014124      -0.00717094       0.01242043
In       1.29345189      -0.91460860       5.42678492        2       0.01014124      -0.00717094       0.01242043
In      -1.56874972      -2.21854713       3.84263635        3      -0.00000000      -0.00000000       0.00000000
In      -1.29345190       4.24242930       3.50546675        4      -0.01014124       0.00717094       0.01242043
In       4.98154698      -2.93849078       5.76395452        5      -0.01014124      -0.01434188       0.00000000
In      -1.29345190       1.49860348       5.76395452        6      -0.01014124      -0.01434188       0.00000000
In      -1.84404755       7.37558504       1.92131817        7       0.01014124       0.01434188      -0.00000000
In       4.43095133       0.19466496       4.17980594        8       0.01014124      -0.00717094      -0.01242043
In      -1.56874972       4.43709426      -0.00000000        9       0.00000000       0.00000000      -0.00000000
In       4.43095133       6.85030635       0.33716959       10       0.01014124      -0.00717094      -0.01242043
In      -1.29345190      -2.41321209       7.34810309       11      -0.01014124       0.00717094       0.01242043
In       4.43095133       2.93849078       1.92131817       12       0.01014124       0.01434188      -0.00000000
In       1.84404754       5.35170287       2.25848777       13      -0.01014124       0.00717094      -0.01242043
In       4.70624916       0.00000000      -0.00000000       14      -0.00000000       0.00000000      -0.00000000
In       1.56874972       2.21854713       3.84263634       15       0.00000000      -0.00000000       0.00000000
O        1.01971019       4.44364405       4.15560272       16       0.00832698       0.01038270       0.00123187
O       -2.11778925       3.59558263       5.60179904       17       0.00832698      -0.00412452      -0.00960762
O       -0.44730617       2.41437272      -0.03755807       18       0.00867593      -0.00437126      -0.00918025
O       -1.01971020      -0.83496183       2.07212907       19      -0.00832698       0.00625818      -0.00837575
O        4.09587756       5.25037193       2.10968714       20      -0.00666429      -0.01155840       0.00080450
O        2.17912131       3.01669044       1.75916269       21       0.00666429      -0.00647592      -0.00960762
O        2.17912131       6.67077576       0.35052444       22       0.00666429      -0.00508248       0.01041212
O       -2.42539449       6.27257478       3.80507828       23       0.00701324      -0.00672266      -0.00918025
O        3.58480561       2.02272154       7.72283076       24      -0.00867593       0.00437126       0.00918025
O        5.56289392      -1.83548052       3.88019441       25      -0.00701324       0.00672266       0.00918025
O        6.72230504       3.39320725       1.73294920       26      -0.00867593      -0.01013596      -0.00080450
O        3.84960439       2.37755419       4.19316079       27       0.00701324      -0.00458900       0.01041212
O        0.71210495       4.66115381       7.37230631       28       0.00701324       0.01131166      -0.00123187
O        2.42539448      -0.22405954       0.31296638       29      -0.00701324      -0.01131166       0.00123187
O       -3.58480561       1.04388701       5.95232349       30       0.00867593       0.01013596       0.00080450
O        5.25528868       0.84151163       2.08347365       31      -0.00832698       0.00412452       0.00960762
O        0.95837812       1.42040383       5.92611000       32      -0.00666429       0.00647592       0.00960762
O        3.58480561      -0.97883453       5.91476542       33      -0.00867593       0.00576469      -0.00837575
O        2.11778924      -0.00654979       3.52966997       34      -0.00832698      -0.01038270      -0.00123187
O        0.95837812      -2.23368149       7.33474825       35      -0.00666429       0.00508248      -0.01041212
O       -0.71210495       2.05954007       3.49211190       36      -0.00701324       0.00458900      -0.01041212
O       -0.95837813      -0.81327767       5.57558555       37       0.00666429       0.01155840      -0.00080450
O       -0.44730617       5.41592879       1.77050727       38       0.00867593      -0.00576469       0.00837575
O        4.15720963       5.27205610       5.61314362       39       0.00832698      -0.00625818       0.00837575
40