40
Lattice="9.20781357440797 7.216857176057924e-10 -8.950108298897565e-16 -3.0692711921497353 8.681209890913323 -1.249997185327267e-09 -3.0692711911291193 -4.3406049447349755 7.518148301949014" Properties=species:S:1:pos:R:3:spacegroup_kinds:I:1:forces:R:3 spacegroup="P 1" unit_cell=conventional occupancy="_JSON {\"0\": {\"In\": 1}, \"1\": {\"In\": 1}, \"2\": {\"In\": 1}, \"3\": {\"In\": 1}, \"4\": {\"In\": 1}, \"5\": {\"In\": 1}, \"6\": {\"In\": 1}, \"7\": {\"In\": 1}, \"8\": {\"In\": 1}, \"9\": {\"In\": 1}, \"10\": {\"In\": 1}, \"11\": {\"In\": 1}, \"12\": {\"In\": 1}, \"13\": {\"In\": 1}, \"14\": {\"In\": 1}, \"15\": {\"In\": 1}, \"16\": {\"O\": 1}, \"17\": {\"O\": 1}, \"18\": {\"O\": 1}, \"19\": {\"O\": 1}, \"20\": {\"O\": 1}, \"21\": {\"O\": 1}, \"22\": {\"O\": 1}, \"23\": {\"O\": 1}, \"24\": {\"O\": 1}, \"25\": {\"O\": 1}, \"26\": {\"O\": 1}, \"27\": {\"O\": 1}, \"28\": {\"O\": 1}, \"29\": {\"O\": 1}, \"30\": {\"O\": 1}, \"31\": {\"O\": 1}, \"32\": {\"O\": 1}, \"33\": {\"O\": 1}, \"34\": {\"O\": 1}, \"35\": {\"O\": 1}, \"36\": {\"O\": 1}, \"37\": {\"O\": 1}, \"38\": {\"O\": 1}, \"39\": {\"O\": 1}}" n_minim_iter=7 energy=-45151.047373680805 stress="0.03706916073527268 -2.388196893189289e-13 3.783064908079398e-13 -2.388196893189289e-13 0.03706916073587816 -2.285847542147335e-13 3.783064908079398e-13 -2.285847542147335e-13 0.037069160734776764" free_energy=-45151.047373680805 pbc="T T T"
In      -4.37642110       3.09459704       5.91722316        0      -0.00324271       0.00229295      -0.00397150
In       7.44569229       1.24600791       1.60092514        1       0.00324271      -0.00229295       0.00397150
In       1.30714990      -0.92429456       5.35999929        2       0.00324271      -0.00229295       0.00397150
In      -1.53463560      -2.17030247       3.75907415        3      -0.00000000      -0.00000000      -0.00000000
In      -1.30714991       4.17974827       3.48046222        4      -0.00324271       0.00229295       0.00397150
In       4.83139248      -2.93374036       5.63861122        5      -0.00324271      -0.00458589      -0.00000000
In      -1.30714991       1.40686459       5.63861122        6      -0.00324271      -0.00458589       0.00000000
In      -1.76212129       7.27434531       1.87953707        7       0.00324271       0.00458589      -0.00000000
In       4.37642110       0.16085668       4.03768608        8       0.00324271      -0.00229295      -0.00397150
In      -1.53463560       4.34060495      -0.00000000        9      -0.00000000      -0.00000000      -0.00000000
In       4.37642110       6.67176409       0.27861193       10       0.00324271      -0.00229295      -0.00397150
In      -1.30714991      -2.33115914       7.23953637       11      -0.00324271       0.00229295       0.00397150
In       4.37642110       2.93374036       1.87953707       12       0.00324271       0.00458589      -0.00000000
In       1.76212128       5.26489951       2.15814900       13      -0.00324271       0.00229295      -0.00397150
In       4.60390679       0.00000000      -0.00000000       14      -0.00000000      -0.00000000      -0.00000000
In       1.53463559       2.17030247       3.75907415       15       0.00000000      -0.00000000      -0.00000000
O        0.94288288       4.34558744       4.08213691       16       0.00266718       0.00352862      -0.00572634
O       -2.12638831       3.53274303       5.47276488       17       0.00266718      -0.00672346      -0.00019270
O       -0.44266769       2.34217276       0.01674477       18      -0.00212307      -0.00333624      -0.00605953
O       -0.94288288      -0.80287943       2.03675350       19      -0.00266718      -0.00319485      -0.00591904
O        4.03949817       5.15315198       2.02000872       20      -0.00722800      -0.00030363       0.00014049
O        2.09904421       2.99749959       1.71369073       21       0.00722800      -0.00027349      -0.00019270
O        2.09904421       6.49625733       0.30631799       22       0.00722800      -0.00003014       0.00033320
O       -2.35577756       6.14753427       3.77581892       23       0.00243775       0.00311373      -0.00605953
O        3.51193888       1.99843219       7.50140353       24       0.00212307       0.00333625       0.00605953
O        5.42504874      -1.80692932       3.74232938       25      -0.00243775      -0.00311373       0.00605953
O        6.58121007       3.35589025       1.73906542       26       0.00212307      -0.00691583      -0.00014049
O        3.78276483       2.36649045       4.06539214       27       0.00243775      -0.00680458       0.00033320
O        0.71349364       4.50779013       7.19508553       28       0.00243775       0.00369084       0.00572634
O        2.35577755      -0.16718518       0.32306276       29      -0.00243775      -0.00369084      -0.00572634
O       -3.51193889       0.98471470       5.77908287       30      -0.00212307       0.00691583       0.00014049
O        5.19565950       0.80786192       2.04538342       31      -0.00266718       0.00672346       0.00019270
O        0.97022698       1.34310536       5.80445757       32      -0.00722800       0.00027349       0.00019270
O        3.51193888      -1.01371749       5.79582765       33       0.00212307       0.00357959      -0.00591904
O        2.12638831      -0.00498249       3.43601138       34      -0.00266718      -0.00352862       0.00572634
O        0.97022698      -2.15565238       7.21183031       35      -0.00722800       0.00003014      -0.00033320
O       -0.71349364       1.97411450       3.45275615       36      -0.00243775       0.00680458      -0.00033320
O       -0.97022698      -0.81254703       5.49813957       37       0.00722800       0.00030363      -0.00014049
O       -0.44266769       5.35432244       1.72232065       38      -0.00212307      -0.00357959       0.00591904
O        4.01215407       5.14348438       5.48139480       39       0.00266718       0.00319485       0.00591904
