40
Lattice="9.066132371561887 7.105809274321473e-10 -3.552713678800501e-15 -3.0220441245239043 8.547631571851522 -1.2307581620518704e-09 -3.0220441235189894 -4.273815785215182 7.402466084233838" Properties=species:S:1:pos:R:3:spacegroup_kinds:I:1:forces:R:3 spacegroup="P 1" unit_cell=conventional occupancy="_JSON {\"0\": {\"In\": 1}, \"1\": {\"In\": 1}, \"2\": {\"In\": 1}, \"3\": {\"In\": 1}, \"4\": {\"In\": 1}, \"5\": {\"In\": 1}, \"6\": {\"In\": 1}, \"7\": {\"In\": 1}, \"8\": {\"In\": 1}, \"9\": {\"In\": 1}, \"10\": {\"In\": 1}, \"11\": {\"In\": 1}, \"12\": {\"In\": 1}, \"13\": {\"In\": 1}, \"14\": {\"In\": 1}, \"15\": {\"In\": 1}, \"16\": {\"O\": 1}, \"17\": {\"O\": 1}, \"18\": {\"O\": 1}, \"19\": {\"O\": 1}, \"20\": {\"O\": 1}, \"21\": {\"O\": 1}, \"22\": {\"O\": 1}, \"23\": {\"O\": 1}, \"24\": {\"O\": 1}, \"25\": {\"O\": 1}, \"26\": {\"O\": 1}, \"27\": {\"O\": 1}, \"28\": {\"O\": 1}, \"29\": {\"O\": 1}, \"30\": {\"O\": 1}, \"31\": {\"O\": 1}, \"32\": {\"O\": 1}, \"33\": {\"O\": 1}, \"34\": {\"O\": 1}, \"35\": {\"O\": 1}, \"36\": {\"O\": 1}, \"37\": {\"O\": 1}, \"38\": {\"O\": 1}, \"39\": {\"O\": 1}}" n_minim_iter=1 energy=-45151.46844624976 stress="0.026625079216145327 3.815076521586797e-13 1.0378435286957044e-12 3.815076521586797e-13 0.026625079215152073 8.077331964808938e-14 1.0378435286957044e-12 8.077331964808938e-14 0.026625079215976954" free_energy=-45151.46844624976 pbc="T T T"
In      -4.32417805       3.05765563       5.80768423        0       0.04136965      -0.02925276       0.05066726
In       7.34622217       1.21616016       1.59478185        1      -0.04136965       0.02925276      -0.05066726
In       1.30213393      -0.92074773       5.29601489        2      -0.04136965       0.02925276      -0.05066726
In      -1.51102206      -2.13690789       3.70123304        3      -0.00000000      -0.00000000      -0.00000000
In      -1.30213393       4.12610957       3.44539837        4       0.04136965      -0.02925276      -0.05066726
In       4.74195432      -2.90994941       5.55184956        5       0.04136965       0.05850552      -0.00000000
In      -1.30213393       1.36386638       5.55184956        6       0.04136965       0.05850552      -0.00000000
In      -1.71991020       7.18376520       1.85061652        7      -0.04136965      -0.05850552       0.00000000
In       4.32417805       0.14770622       3.95706771        8      -0.04136965       0.02925276       0.05066726
In      -1.51102206       4.27381579      -0.00000000        9       0.00000000      -0.00000000      -0.00000000
In       4.32417805       6.55842990       0.25583467       10      -0.04136965       0.02925276       0.05066726
In      -1.30213393      -2.28461411       7.14663141       11       0.04136965      -0.02925276      -0.05066726
In       4.32417805       2.90994941       1.85061652       12      -0.04136965      -0.05850552       0.00000000
In       1.71991019       5.19456352       2.10645119       13       0.04136965      -0.02925276       0.05066726
In       4.53306618       0.00000000      -0.00000000       14       0.00000000      -0.00000000      -0.00000000
In       1.51102206       2.13690790       3.70123304       15       0.00000000       0.00000000      -0.00000000
O        0.90244103       4.27633866       4.02376411       16       0.01477920       0.00140687      -0.04440875
O       -2.11960309       3.48342050       5.38839915       17       0.01477920      -0.03916254       0.02098599
O       -0.44199956       2.29717567       0.04056940       18      -0.03066999      -0.00702511      -0.03467767
O       -0.90244104      -0.78787241       2.00969718       19      -0.01477920      -0.03775567      -0.02342276
O        3.99073471       5.08511095       1.96912778       20      -0.04184920       0.01773451       0.01125491
O        2.05335354       2.97414869       1.68716611       21       0.04184920      -0.00087979       0.02098599
O        2.05335354       6.38477805       0.28196167       22       0.04184920       0.01861429      -0.00973108
O       -2.31313117       6.06171963       3.74180244       23      -0.00359999       0.03125764      -0.03467767
O        3.46404368       1.97664012       7.36189668       24       0.03066999       0.00702511       0.03467767
O        5.33517529      -1.78790384       3.66066364       25       0.00359999      -0.03125764       0.03467767
O        6.48608780       3.32062986       1.73210525       26       0.03066999      -0.03354430      -0.01125491
O        3.73095707       2.34654405       3.98319471       27      -0.00359999      -0.04566057      -0.00973108
O        0.70891295       4.41318368       7.07993501       28      -0.00359999       0.01440292       0.04440875
O        2.31313117      -0.13936789       0.32253107       29       0.00359999      -0.01440292      -0.04440875
O       -3.46404368       0.95318593       5.67036082       30      -0.03066999       0.03354430       0.01125491
O        5.14164721       0.79039529       2.01406693       31      -0.01477920       0.03916254      -0.02098599
O        0.96869058       1.29966710       5.71529997       32      -0.04184920       0.00087979      -0.02098599
O        3.46404368      -1.02345419       5.71093022       33       0.03066999       0.02651919      -0.02342276
O        2.11960309      -0.00252287       3.37870197       34      -0.01477920      -0.00140687       0.04440875
O        0.96869058      -2.11096226       7.12050441       35      -0.04184920      -0.01861429       0.00973108
O       -0.70891295       1.92727174       3.41927137       36       0.00359999       0.04566057       0.00973108
O       -0.96869059      -0.81129516       5.43333830       37       0.04184920      -0.01773451      -0.01125491
O       -0.44199956       5.29726998       1.69153586       38      -0.03066999      -0.02651919       0.02342276
O        3.92448516       5.06168820       5.39276890       39       0.01477920       0.03775567       0.02342276
40
Lattice="9.066132371561887 7.105809274321473e-10 -3.552713678800501e-15 -3.0220441245239043 8.547631571851522 -1.2307581620518704e-09 -3.0220441235189894 -4.273815785215182 7.402466084233838" Properties=species:S:1:pos:R:3:spacegroup_kinds:I:1:forces:R:3 spacegroup="P 1" unit_cell=conventional occupancy="_JSON {\"0\": {\"In\": 1}, \"1\": {\"In\": 1}, \"2\": {\"In\": 1}, \"3\": {\"In\": 1}, \"4\": {\"In\": 1}, \"5\": {\"In\": 1}, \"6\": {\"In\": 1}, \"7\": {\"In\": 1}, \"8\": {\"In\": 1}, \"9\": {\"In\": 1}, \"10\": {\"In\": 1}, \"11\": {\"In\": 1}, \"12\": {\"In\": 1}, \"13\": {\"In\": 1}, \"14\": {\"In\": 1}, \"15\": {\"In\": 1}, \"16\": {\"O\": 1}, \"17\": {\"O\": 1}, \"18\": {\"O\": 1}, \"19\": {\"O\": 1}, \"20\": {\"O\": 1}, \"21\": {\"O\": 1}, \"22\": {\"O\": 1}, \"23\": {\"O\": 1}, \"24\": {\"O\": 1}, \"25\": {\"O\": 1}, \"26\": {\"O\": 1}, \"27\": {\"O\": 1}, \"28\": {\"O\": 1}, \"29\": {\"O\": 1}, \"30\": {\"O\": 1}, \"31\": {\"O\": 1}, \"32\": {\"O\": 1}, \"33\": {\"O\": 1}, \"34\": {\"O\": 1}, \"35\": {\"O\": 1}, \"36\": {\"O\": 1}, \"37\": {\"O\": 1}, \"38\": {\"O\": 1}, \"39\": {\"O\": 1}}" n_minim_iter=2 energy=-45151.47317415601 stress="0.025972495528493143 6.288749819396702e-13 3.8724392103766953e-13 6.288749819396702e-13 0.025972495527775325 -2.4085613527726723e-13 3.8724392103766953e-13 -2.4085613527726723e-13 0.02597249552904618" free_energy=-45151.47317415601 pbc="T T T"
In      -4.32122308       3.05556614       5.81130332        0       0.00572052      -0.00404502       0.00700618
In       7.34326720       1.21824965       1.59116276        1      -0.00572052       0.00404502      -0.00700618
In       1.29917895      -0.91865825       5.29239580        2      -0.00572052       0.00404502      -0.00700618
In      -1.51102206      -2.13690789       3.70123304        3       0.00000000       0.00000000       0.00000000
In      -1.29917896       4.12402009       3.44177928        4       0.00572052      -0.00404502      -0.00700618
In       4.74490929      -2.90577044       5.55184956        5       0.00572052       0.00809004      -0.00000000
In      -1.29917896       1.36804534       5.55184956        6       0.00572052       0.00809004       0.00000000
In      -1.72286517       7.17958623       1.85061652        7      -0.00572052      -0.00809004       0.00000000
In       4.32122308       0.14979570       3.96068680        8      -0.00572052       0.00404502       0.00700618
In      -1.51102206       4.27381579      -0.00000000        9      -0.00000000      -0.00000000       0.00000000
In       4.32122308       6.56051938       0.25945376       10      -0.00572052       0.00404502       0.00700618
In      -1.29917896      -2.28670359       7.14301232       11       0.00572052      -0.00404502      -0.00700618
In       4.32122308       2.90577045       1.85061652       12      -0.00572052      -0.00809004      -0.00000000
In       1.72286517       5.19247404       2.11007028       13       0.00572052      -0.00404502       0.00700618
In       4.53306618       0.00000000      -0.00000000       14       0.00000000      -0.00000000       0.00000000
In       1.51102206       2.13690790       3.70123304       15      -0.00000000      -0.00000000       0.00000000
O        0.90349669       4.27643915       4.02059205       16       0.02318063       0.01150617      -0.00101326
O       -2.11854743       3.48062318       5.38989815       17       0.02318063      -0.00663059      -0.00945800
O       -0.44419027       2.29667387       0.03809242       18       0.01232361       0.00104648      -0.02275508
O       -0.90349669      -0.79056924       2.00802413       19      -0.02318063       0.00487557      -0.01047126
O        3.98774548       5.08637770       1.96993170       20      -0.01397826      -0.01801323       0.01228382
O        2.05634277       2.97408584       1.68866511       21       0.01397826      -0.01964471      -0.00945800
O        2.05634277       6.38610765       0.28126659       22       0.01397826       0.00163149       0.02174182
O       -2.31338832       6.06395232       3.73932546       23       0.00312124      -0.01196764      -0.02275508
O        3.46623439       1.97714192       7.36437366       24      -0.01232361      -0.00104648       0.02275508
O        5.33543244      -1.79013653       3.66314062       25      -0.00312124       0.01196764       0.02275508
O        6.48827851       3.31823384       1.73130133       26      -0.01232361      -0.01918324      -0.01228382
O        3.73069993       2.34328258       3.98249963       27       0.00312124      -0.01372266       0.02174182
O        0.70865581       4.41421246       7.08310706       28       0.00312124       0.02569030       0.00101326
O        2.31338831      -0.14039667       0.31935901       29      -0.00312124      -0.02569030      -0.00101326
O       -3.46623439       0.95558195       5.67116475       30       0.01232361       0.01918324       0.01228382
O        5.14059156       0.79319261       2.01256793       31      -0.02318063       0.00663059       0.00945800
O        0.96570135       1.29972995       5.71380097       32      -0.01397826       0.01964471       0.00945800
O        3.46623439      -1.02155996       5.70925717       33      -0.01232361       0.02022972      -0.01047126
O        2.11854743      -0.00262336       3.38187402       34      -0.02318063      -0.01150617       0.00101326
O        0.96570135      -2.11229186       7.12119949       35      -0.01397826      -0.00163149      -0.02174182
O       -0.70865581       1.93053321       3.41996645       36      -0.00312124       0.01372266      -0.02174182
O       -0.96570136      -0.81256191       5.43253438       37       0.01397826       0.01801323      -0.01228382
O       -0.44419027       5.29537575       1.69320891       38       0.01232361      -0.02022972       0.01047126
O        3.92554081       5.06438503       5.39444195       39       0.02318063      -0.00487557       0.01047126
40
Lattice="9.066132371561885 7.105809274321472e-10 -3.5527136788005e-15 -3.022044124523904 8.54763157185152 -1.2307581620518702e-09 -3.022044123518989 -4.273815785215181 7.402466084233837" Properties=species:S:1:pos:R:3:spacegroup_kinds:I:1:forces:R:3 spacegroup="P 1" unit_cell=conventional occupancy="_JSON {\"0\": {\"In\": 1}, \"1\": {\"In\": 1}, \"2\": {\"In\": 1}, \"3\": {\"In\": 1}, \"4\": {\"In\": 1}, \"5\": {\"In\": 1}, \"6\": {\"In\": 1}, \"7\": {\"In\": 1}, \"8\": {\"In\": 1}, \"9\": {\"In\": 1}, \"10\": {\"In\": 1}, \"11\": {\"In\": 1}, \"12\": {\"In\": 1}, \"13\": {\"In\": 1}, \"14\": {\"In\": 1}, \"15\": {\"In\": 1}, \"16\": {\"O\": 1}, \"17\": {\"O\": 1}, \"18\": {\"O\": 1}, \"19\": {\"O\": 1}, \"20\": {\"O\": 1}, \"21\": {\"O\": 1}, \"22\": {\"O\": 1}, \"23\": {\"O\": 1}, \"24\": {\"O\": 1}, \"25\": {\"O\": 1}, \"26\": {\"O\": 1}, \"27\": {\"O\": 1}, \"28\": {\"O\": 1}, \"29\": {\"O\": 1}, \"30\": {\"O\": 1}, \"31\": {\"O\": 1}, \"32\": {\"O\": 1}, \"33\": {\"O\": 1}, \"34\": {\"O\": 1}, \"35\": {\"O\": 1}, \"36\": {\"O\": 1}, \"37\": {\"O\": 1}, \"38\": {\"O\": 1}, \"39\": {\"O\": 1}}" n_minim_iter=3 energy=-45151.47371202829 stress="0.02567020785750242 -1.9912046812659956e-13 -6.444354265522004e-13 -1.9912046812659956e-13 0.025670207857750094 4.841547184526704e-13 -6.444354265522004e-13 4.841547184526704e-13 0.025670207858303068" free_energy=-45151.47371202829 pbc="T T T"
In      -4.31991885       3.05464391       5.81290067        0      -0.00786204       0.00555930      -0.00962899
In       7.34196297       1.21917188       1.58956541        1       0.00786204      -0.00555930       0.00962899
In       1.29787472      -0.91773602       5.29079845        2       0.00786204      -0.00555930       0.00962899
In      -1.51102206      -2.13690789       3.70123304        3       0.00000000      -0.00000000      -0.00000000
In      -1.29787473       4.12309786       3.44018193        4      -0.00786204       0.00555930       0.00962899
In       4.74621352      -2.90392598       5.55184956        5      -0.00786204      -0.01111860       0.00000000
In      -1.29787473       1.36988981       5.55184956        6      -0.00786204      -0.01111860      -0.00000000
In      -1.72416940       7.17774177       1.85061652        7       0.00786204       0.01111860      -0.00000000
In       4.31991885       0.15071793       3.96228415        8       0.00786204      -0.00555930      -0.00962899
In      -1.51102206       4.27381579      -0.00000000        9       0.00000000      -0.00000000      -0.00000000
In       4.31991885       6.56144161       0.26105111       10       0.00786204      -0.00555930      -0.00962899
In      -1.29787472      -2.28762582       7.14141497       11      -0.00786204       0.00555930       0.00962899
In       4.31991885       2.90392598       1.85061652       12       0.00786204       0.01111860      -0.00000000
In       1.72416940       5.19155181       2.11166763       13      -0.00786204       0.00555930      -0.00962899
In       4.53306618       0.00000000      -0.00000000       14      -0.00000000       0.00000000      -0.00000000
In       1.51102206       2.13690790       3.70123304       15      -0.00000000       0.00000000       0.00000000
O        0.90468254       4.27686878       4.01936665       16       0.02466432       0.00998039       0.01491861
O       -2.11736158       3.47934714       5.39013879       17       0.02466432       0.00792970      -0.01610257
O       -0.44459299       2.29652113       0.03638745       18       0.02510723       0.00761651      -0.01556012
O       -0.90468255      -0.79141566       2.00703936       19      -0.02466432       0.01791009      -0.00118397
O        3.98614713       5.08623976       1.97065190       20      -0.00074525      -0.02689372       0.01437615
O        2.05794111       2.97339316       1.68890574       21       0.00074525      -0.02589697      -0.01610257
O        2.05794111       6.38666238       0.28174616       22       0.00074525      -0.00099675       0.03047872
O       -2.31337855       6.06438293       3.73762049       23       0.00118816      -0.02621016      -0.01556012
O        3.46663711       1.97729466       7.36607863       24      -0.02510723      -0.00761651       0.01556012
O        5.33542267      -1.79056714       3.66484558       25      -0.00118816       0.02621016       0.01556012
O        6.48868124       3.31668092       1.73058113       26      -0.02510723      -0.00966720      -0.01437615
O        3.73070970       2.34159073       3.98297920       27       0.00118816      -0.00037038       0.03047872
O        0.70866558       4.41547370       7.08433247       28       0.00118816       0.02658054      -0.01491861
O        2.31337854      -0.14165791       0.31813361       29      -0.00118816      -0.02658054       0.01491861
O       -3.46663712       0.95713487       5.67188495       30       0.02510723       0.00966720       0.01437615
O        5.13940570       0.79446865       2.01232729       31      -0.02466432      -0.00792970       0.01610257
O        0.96410301       1.30042263       5.71356033       32      -0.00074525       0.02589697       0.01610257
O        3.46663711      -1.02015979       5.70827240       33      -0.02510723       0.01728371      -0.00118397
O        2.11736158      -0.00305299       3.38309942       34      -0.02466432      -0.00998039      -0.01491861
O        0.96410301      -2.11284659       7.12071992       35      -0.00074525       0.00099675      -0.03047872
O       -0.70866558       1.93222506       3.41948688       36      -0.00118816       0.00037038      -0.03047872
O       -0.96410301      -0.81242396       5.43181417       37       0.00074525       0.02689372      -0.01437615
O       -0.44459299       5.29397558       1.69419368       38       0.02510723      -0.01728371       0.00118397
O        3.92672667       5.06523145       5.39542672       39       0.02466432      -0.01791009       0.00118397
40
Lattice="9.066132371561881 7.10580927432147e-10 -3.552713678800503e-15 -3.022044124523903 8.547631571851516 -1.2307581620518698e-09 -3.022044123518988 -4.273815785215179 7.402466084233835" Properties=species:S:1:pos:R:3:spacegroup_kinds:I:1:forces:R:3 spacegroup="P 1" unit_cell=conventional occupancy="_JSON {\"0\": {\"In\": 1}, \"1\": {\"In\": 1}, \"2\": {\"In\": 1}, \"3\": {\"In\": 1}, \"4\": {\"In\": 1}, \"5\": {\"In\": 1}, \"6\": {\"In\": 1}, \"7\": {\"In\": 1}, \"8\": {\"In\": 1}, \"9\": {\"In\": 1}, \"10\": {\"In\": 1}, \"11\": {\"In\": 1}, \"12\": {\"In\": 1}, \"13\": {\"In\": 1}, \"14\": {\"In\": 1}, \"15\": {\"In\": 1}, \"16\": {\"O\": 1}, \"17\": {\"O\": 1}, \"18\": {\"O\": 1}, \"19\": {\"O\": 1}, \"20\": {\"O\": 1}, \"21\": {\"O\": 1}, \"22\": {\"O\": 1}, \"23\": {\"O\": 1}, \"24\": {\"O\": 1}, \"25\": {\"O\": 1}, \"26\": {\"O\": 1}, \"27\": {\"O\": 1}, \"28\": {\"O\": 1}, \"29\": {\"O\": 1}, \"30\": {\"O\": 1}, \"31\": {\"O\": 1}, \"32\": {\"O\": 1}, \"33\": {\"O\": 1}, \"34\": {\"O\": 1}, \"35\": {\"O\": 1}, \"36\": {\"O\": 1}, \"37\": {\"O\": 1}, \"38\": {\"O\": 1}, \"39\": {\"O\": 1}}" n_minim_iter=4 energy=-45151.47541657439 stress="0.025565446857245825 -2.279951568519954e-13 -4.532966536527819e-14 -2.279951568519954e-13 0.025565446857760757 -1.8464819017867075e-13 -4.532966536527819e-14 -1.8464819017867075e-13 0.025565446857896305" free_energy=-45151.47541657439 pbc="T T T"
In      -4.31953172       3.05437017       5.81337480        0      -0.00331616       0.00234488      -0.00406145
In       7.34157584       1.21944562       1.58909128        1       0.00331616      -0.00234488       0.00406145
In       1.29748760      -0.91746228       5.29032432        2       0.00331616      -0.00234488       0.00406145
In      -1.51102206      -2.13690789       3.70123304        3      -0.00000000      -0.00000000       0.00000000
In      -1.29748760       4.12282412       3.43970780        4      -0.00331616       0.00234488       0.00406145
In       4.74660065      -2.90337850       5.55184956        5      -0.00331616      -0.00468975       0.00000000
In      -1.29748760       1.37043728       5.55184956        6      -0.00331616      -0.00468975       0.00000000
In      -1.72455653       7.17719429       1.85061652        7       0.00331616       0.00468975      -0.00000000
In       4.31953172       0.15099167       3.96275828        8       0.00331616      -0.00234488      -0.00406145
In      -1.51102206       4.27381579      -0.00000000        9       0.00000000      -0.00000000      -0.00000000
In       4.31953172       6.56171535       0.26152524       10       0.00331616      -0.00234488      -0.00406145
In      -1.29748760      -2.28789956       7.14094084       11      -0.00331616       0.00234488       0.00406145
In       4.31953172       2.90337851       1.85061652       12       0.00331616       0.00468975      -0.00000000
In       1.72455652       5.19127807       2.11214176       13      -0.00331616       0.00234488      -0.00406145
In       4.53306618       0.00000000      -0.00000000       14      -0.00000000       0.00000000      -0.00000000
In       1.51102206       2.13690790       3.70123304       15      -0.00000000      -0.00000000       0.00000000
O        0.90805997       4.27829809       4.01972364       16       0.01670379      -0.00936907       0.00750230
O       -2.11398415       3.47894164       5.38872247       17       0.01670379       0.01118172       0.00436270
O       -0.44250192       2.29702522       0.03339568       18       0.00727691       0.01784753      -0.00718282
O       -0.90805997      -0.79039184       2.00598003       19      -0.01670379       0.00181265       0.01186501
O        3.98463901       5.08348864       1.97258435       20       0.00497430      -0.00595965       0.01904783
O        2.05944923       2.97034405       1.68748943       21      -0.00497430      -0.01947573       0.00436270
O        2.05944923       6.38696037       0.28509491       22      -0.00497430       0.01351608       0.01468512
O       -2.31315679       6.06224342       3.73462872       23      -0.01440118      -0.01280992      -0.00718282
O        3.46454604       1.97679057       7.36907040       24      -0.00727691      -0.01784753       0.00718282
O        5.33520091      -1.78842763       3.66783736       25       0.01440118       0.01280992       0.00718282
O        6.48659017       3.31434201       1.72864869       26      -0.00727691       0.00270326      -0.01904783
O        3.73093146       2.34006953       3.98632796       27      -0.01440118       0.00018445       0.01468512
O        0.70888734       4.41913441       7.08397548       28      -0.01440118       0.01262546      -0.00750230
O        2.31315678      -0.14531862       0.31849060       29       0.01440118      -0.01262546       0.00750230
O       -3.46454605       0.95947378       5.67381739       30       0.00727691      -0.00270326       0.01904783
O        5.13602827       0.79487415       2.01374360       31      -0.01670379      -0.01118172      -0.00436270
O        0.96259489       1.30347174       5.71497665       32       0.00497430       0.01947573      -0.00436270
O        3.46454604      -1.01731679       5.70721307       33      -0.00727691       0.01514427       0.01186501
O        2.11398415      -0.00448230       3.38274244       34      -0.01670379       0.00936907      -0.00750230
O        0.96259489      -2.11314458       7.11737116       35       0.00497430      -0.01351608      -0.01468512
O       -0.70888734       1.93374626       3.41613812       36       0.01440118      -0.00018446      -0.01468512
O       -0.96259489      -0.80967285       5.42988173       37      -0.00497430       0.00595965      -0.01904783
O       -0.44250192       5.29113258       1.69525301       38       0.00727691      -0.01514427      -0.01186501
O        3.93010409       5.06420763       5.39648605       39       0.01670379      -0.00181265      -0.01186501
40
Lattice="9.066132371561883 7.105809274321471e-10 -3.552713678800511e-15 -3.0220441245239034 8.547631571851515 -1.2307581620518698e-09 -3.0220441235189885 -4.273815785215178 7.402466084233835" Properties=species:S:1:pos:R:3:spacegroup_kinds:I:1:forces:R:3 spacegroup="P 1" unit_cell=conventional occupancy="_JSON {\"0\": {\"In\": 1}, \"1\": {\"In\": 1}, \"2\": {\"In\": 1}, \"3\": {\"In\": 1}, \"4\": {\"In\": 1}, \"5\": {\"In\": 1}, \"6\": {\"In\": 1}, \"7\": {\"In\": 1}, \"8\": {\"In\": 1}, \"9\": {\"In\": 1}, \"10\": {\"In\": 1}, \"11\": {\"In\": 1}, \"12\": {\"In\": 1}, \"13\": {\"In\": 1}, \"14\": {\"In\": 1}, \"15\": {\"In\": 1}, \"16\": {\"O\": 1}, \"17\": {\"O\": 1}, \"18\": {\"O\": 1}, \"19\": {\"O\": 1}, \"20\": {\"O\": 1}, \"21\": {\"O\": 1}, \"22\": {\"O\": 1}, \"23\": {\"O\": 1}, \"24\": {\"O\": 1}, \"25\": {\"O\": 1}, \"26\": {\"O\": 1}, \"27\": {\"O\": 1}, \"28\": {\"O\": 1}, \"29\": {\"O\": 1}, \"30\": {\"O\": 1}, \"31\": {\"O\": 1}, \"32\": {\"O\": 1}, \"33\": {\"O\": 1}, \"34\": {\"O\": 1}, \"35\": {\"O\": 1}, \"36\": {\"O\": 1}, \"37\": {\"O\": 1}, \"38\": {\"O\": 1}, \"39\": {\"O\": 1}}" n_minim_iter=5 energy=-45151.47607627921 stress="0.025455546579831238 2.425842349034528e-13 -1.457543363174074e-13 2.425842349034528e-13 0.025455546579506036 1.0375274813567478e-14 -1.457543363174074e-13 1.0375274813567478e-14 0.02545554657930889" free_energy=-45151.47607627921 pbc="T T T"
In      -4.31913873       3.05409229       5.81385612        0       0.00038716      -0.00027376       0.00047417
In       7.34118285       1.21972350       1.58860996        1      -0.00038716       0.00027376      -0.00047417
In       1.29709460      -0.91718439       5.28984300        2      -0.00038716       0.00027376      -0.00047417
In      -1.51102206      -2.13690789       3.70123304        3       0.00000000      -0.00000000       0.00000000
In      -1.29709461       4.12254623       3.43922648        4       0.00038716      -0.00027376      -0.00047417
In       4.74699364      -2.90282272       5.55184956        5       0.00038716       0.00054752      -0.00000000
In      -1.29709461       1.37099306       5.55184956        6       0.00038716       0.00054752       0.00000000
In      -1.72494952       7.17663852       1.85061652        7      -0.00038716      -0.00054752      -0.00000000
In       4.31913873       0.15126956       3.96323960        8      -0.00038716       0.00027376       0.00047417
In      -1.51102206       4.27381579      -0.00000000        9      -0.00000000      -0.00000000       0.00000000
In       4.31913873       6.56199324       0.26200655       10      -0.00038716       0.00027376       0.00047417
In      -1.29709461      -2.28817745       7.14045952       11       0.00038716      -0.00027376      -0.00047417
In       4.31913873       2.90282273       1.85061652       12      -0.00038716      -0.00054752       0.00000000
In       1.72494952       5.19100018       2.11262307       13       0.00038716      -0.00027376       0.00047417
In       4.53306618       0.00000000      -0.00000000       14       0.00000000       0.00000000      -0.00000000
In       1.51102206       2.13690790       3.70123304       15      -0.00000000      -0.00000000       0.00000000
O        0.91129960       4.27924746       4.02003348       16       0.00903146      -0.02168841       0.00177389
O       -2.11074452       3.47873529       5.38774537       17       0.00903146       0.01238044       0.01789576
O       -0.44072153       2.29785070       0.03063139       18      -0.00576515       0.02284322      -0.00022631
O       -0.91129960      -0.78964883       2.00531277       19      -0.00903146      -0.00930797       0.01966966
O        3.98336458       5.08114966       1.97468138       20       0.00866190       0.00917731       0.01989597
O        2.06072366       2.96735849       1.68651233       21      -0.00866190      -0.01264176       0.01789576
O        2.06072366       6.38760696       0.28816904       22      -0.00866190       0.02181907       0.00200020
O       -2.31334159       6.06028969       3.73186444       23      -0.02345851      -0.00217897      -0.00022631
O        3.46276565       1.97596509       7.37183468       24       0.00576515      -0.02284322       0.00022631
O        5.33538571      -1.78647390       3.67060164       25       0.02345851       0.00217897       0.00022631
O        6.48480977       3.31236081       1.72655166       26       0.00576515       0.01122562      -0.01989597
O        3.73074666       2.33865246       3.98940208       27      -0.02345851       0.00089350       0.00200020
O        0.70870253       4.42250522       7.08366564       28      -0.02345851       0.00128548      -0.00177389
O        2.31334159      -0.14868943       0.31880044       29       0.02345851      -0.00128548       0.00177389
O       -3.46276565       0.96145498       5.67591442       30      -0.00576515      -0.01122562       0.01989597
O        5.13278865       0.79508050       2.01472070       31      -0.00903146      -0.01238044      -0.01789576
O        0.96132046       1.30645730       5.71595375       32       0.00866190       0.01264176      -0.01789576
O        3.46276565      -1.01451011       5.70654582       33       0.00576515       0.01161760       0.01966966
O        2.11074452      -0.00543167       3.38243260       34      -0.00903146       0.02168841      -0.00177389
O        0.96132046      -2.11379117       7.11429704       35       0.00866190      -0.02181907      -0.00200020
O       -0.70870254       1.93516333       3.41306400       36       0.02345851      -0.00089350      -0.00200020
O       -0.96132046      -0.80733387       5.42778470       37      -0.00866190      -0.00917731      -0.01989597
O       -0.44072153       5.28832590       1.69592026       38      -0.00576515      -0.01161760      -0.01966966
O        3.93334372       5.06346462       5.39715330       39       0.00903146       0.00930797      -0.01966966
40