80
Lattice="11.75492882491623 0.007220022793484481 0.004985324283341549 6.456222217403249 9.82321731853084 0.004985324283340559 6.456222217403252 3.485089318207366 9.184213400431164" Properties=species:S:1:pos:R:3:spacegroup_kinds:I:1:forces:R:3 spacegroup="P 1" unit_cell=conventional occupancy="_JSON {\"0\": {\"In\": 1}, \"1\": {\"In\": 1}, \"2\": {\"In\": 1}, \"3\": {\"In\": 1}, \"4\": {\"O\": 1}, \"5\": {\"O\": 1}, \"6\": {\"O\": 1}, \"7\": {\"O\": 1}, \"8\": {\"O\": 1}, \"9\": {\"O\": 1}}" n_minim_iter=4 energy=-90301.49304231527 stress="-3.508375745656885e-05 2.874336506307549e-05 1.2191145960339592e-05 2.874336506307549e-05 -2.3860302862956582e-05 -2.994220739988133e-06 1.2191145960339592e-05 -2.994220739988133e-06 -4.668284118777748e-05" free_energy=-11287.686681406734 pbc="T T T"
In      10.57279541       5.70722864       3.94076118        0       0.00684993       0.00362560       0.00294649
In      16.45025982       5.71083865       3.94325384        0       0.00625705       0.00374106       0.00307613
In      13.80090652      10.61883730       3.94325384        0       0.00560333       0.00272768       0.00170205
In      19.67837093      10.62244731       3.94574650        0       0.00680128       0.00356649       0.00245266
In      13.80090652       7.44977330       8.53286788        0      -0.00498184      -0.01173819       0.00507533
In      19.67837093       7.45338331       8.53536054        0       0.00762216       0.00278491       0.00271035
In      17.02901763      12.36138196       8.53536054        0       0.01014209       0.01032454       0.00470178
In      22.90648204      12.36499197       8.53785320        0       0.00630406       0.00353680       0.00252352
In       7.92773455       4.27941636       2.95487686        1      -0.00432721      -0.00193032       0.00271685
In      13.80519896       4.28302637       2.95736952        1      -0.00674430      -0.00406356      -0.00250221
In      11.15584566       9.19102502       2.95736952        1      -0.00575529      -0.00049025      -0.00656441
In      17.03331007       9.19463503       2.95986218        1      -0.00667573      -0.00361298      -0.00250570
In      11.15584566       6.02196102       7.54698356        1      -0.01502349      -0.01342149      -0.00374807
In      17.03331007       6.02557103       7.54947622        1      -0.00415597      -0.00389764      -0.00366535
In      14.38395677      10.93356968       7.54947622        1      -0.00606955      -0.00194032      -0.00312610
In      20.26142118      10.93717969       7.55196888        1      -0.00720240      -0.00294371      -0.00219323
In       4.40595209       2.37834698       1.64221517        2      -0.01104834      -0.00356308       0.01276280
In      10.28341650       2.38195699       1.64470783        2       0.00931858       0.00300956       0.00354192
In       7.63406320       7.28995564       1.64470783        2       0.00766138       0.00679944       0.00346855
In      13.51152761       7.29356565       1.64720049        2       0.00631541       0.00397746       0.00235666
In       7.63406320       4.12089164       6.23432187        2       0.00677906       0.00359800       0.00263688
In      13.51152761       4.12450165       6.23681453        2       0.00443294       0.00264001       0.00455905
In      10.86217431       9.03250030       6.23681453        2       0.00548254       0.00472827       0.00068771
In      16.73963872       9.03611031       6.23930719        2       0.00674681       0.00367586       0.00242336
In       1.76089123       0.95053470       0.65633085        3      -0.00272372      -0.00310200      -0.00286475
In       7.63835564       0.95414471       0.65882351        3      -0.00976654      -0.01482801      -0.00108022
In       4.98900234       5.86214336       0.65882351        3      -0.01047374       0.00093129      -0.00182113
In      10.86646675       5.86575337       0.66131617        3      -0.00661564      -0.00347108      -0.00246430
In       4.98900234       2.69307936       5.24843755        3      -0.00693593      -0.00401642      -0.00258054
In      10.86646675       2.69668937       5.25093021        3      -0.00610432      -0.00239891      -0.00048260
In       8.21711345       7.60468802       5.25093021        3      -0.00666444      -0.00361559      -0.00247022
In      14.09457786       7.60829803       5.25342287        3      -0.00596788      -0.00291083      -0.00522413
O        6.01634102       2.30276783       0.21585959        4       0.06197321       0.05158735      -0.02279078
O       11.89961828       2.31522217       0.21835674        4      -0.00130436      -0.00004900       0.00002501
O        9.25026498       7.22322082       0.21835674        4      -0.00110039      -0.00172959       0.00000202
O       15.12772939       7.22683083       0.22084940        4       0.00047696      -0.00085228       0.00002080
O        9.25026498       4.05415682       4.80797078        4      -0.00063205      -0.00030128      -0.00087152
O       15.12772939       4.05776683       4.81046344        4      -0.00001526       0.00002609       0.00003218
O       12.47837609       8.96576548       4.81046344        4       0.00008368      -0.00067071       0.00090523
O       18.35584050       8.96937549       4.81295610        4      -0.00005979       0.00004164       0.00003443
O        7.09667996       5.12154309       1.15176567        5      -0.00353456      -0.01093538      -0.00483629
O       12.97414437       5.12515310       1.15425833        5       0.00016757       0.00012169       0.00005391
O       10.32479107      10.03315175       1.15425833        5      -0.00859912      -0.00784271       0.00439467
O       16.20225548      10.03676176       1.15675099        5       0.00026839       0.00068853       0.00002103
O       10.32479107       6.86408775       5.74387237        5       0.00030951       0.00066875      -0.00024076
O       16.20225548       6.86769776       5.74636503        5      -0.00021536       0.00008386       0.00033272
O       13.55290218      11.77569641       5.74636503        5       0.00015636       0.00012929      -0.00015701
O       19.43036659      11.77930642       5.74885769        5       0.00016961      -0.00016178      -0.00036062
O        8.17573888       2.18339157       2.51191743        6      -0.00193804       0.00304708      -0.00437919
O       14.05320329       2.18700158       2.51441009        6      -0.00099992       0.00047387       0.00092068
O       11.40384999       7.09500023       2.51441009        6      -0.00006816      -0.00087851       0.00059626
O       17.28131440       7.09861024       2.51690275        6       0.00021431      -0.00056857      -0.00021216
O       11.40384999       3.92593623       7.10402413        6      -0.00192056      -0.00370801      -0.00822352
O       17.28131440       3.92954624       7.10651679        6      -0.00006935       0.00022931       0.00016043
O       14.63196110       8.83754489       7.10651679        6      -0.00096659      -0.00131642       0.00152841
O       20.50942551       8.84115490       7.10900945        6       0.00021524       0.00003769       0.00005073
O        4.15794775       4.47437177       2.08517460        7       0.00253140       0.00032866      -0.00145768
O       10.03541216       4.47798178       2.08766726        7      -0.00198649      -0.00080719      -0.00090438
O        7.38605886       9.38598043       2.08766726        7      -0.00006512      -0.00009920       0.00013684
O       13.26352327       9.38959044       2.09015992        7       0.00254500      -0.00306281       0.00339621
O        7.38605886       6.21691643       6.67728130        7      -0.00029013      -0.00000711      -0.00014194
O       13.26352327       6.22052644       6.67977396        7       0.00084788       0.00374495       0.00756213
O       10.61416997      11.12852509       6.67977396        7       0.00018632      -0.00019626       0.00003655
O       16.49163438      11.13213510       6.68226662        7      -0.00029054      -0.00067250      -0.00056291
O        6.31153277       4.34615118       4.38122795        8       0.00016294      -0.00013389      -0.00096241
O       12.18899718       4.34976119       4.38372061        8       0.00018914       0.00018346      -0.00002555
O        9.53964388       9.25775984       4.38372061        8      -0.00044999      -0.00040081       0.00066394
O       15.41710829       9.26136985       4.38621327        8       0.00013829       0.00003851       0.00008604
O        9.53964388       6.08869584       8.97333465        8      -0.00932824       0.00506927      -0.00209245
O       15.41710829       6.09230585       8.97582731        8      -0.01395606       0.00200460       0.00229560
O       12.76775499      11.00030450       8.97582731        8       0.00021403      -0.00037265       0.00016013
O       18.64521940      11.00391451       8.97831997        8       0.00014770      -0.00187814      -0.00021992
O        5.23700668       1.53622025       3.44532636        9       0.00036373       0.00112798       0.00376922
O       11.11447109       1.53983026       3.44781902        9       0.00004179      -0.00004853      -0.00011925
O        8.46511779       6.44782891       3.44781902        9      -0.00027256      -0.00070193      -0.00046297
O       14.34258220       6.45143892       3.45031168        9       0.00007331       0.00000620       0.00007829
O        8.46511779       3.27876491       8.03743306        9      -0.00228025      -0.00114368      -0.00096500
O       14.34258220       3.28237492       8.03992572        9       0.00313315      -0.00068703      -0.00158284
O       11.69322890       8.19037357       8.03992572        9       0.00745086      -0.00777716       0.00700214
O       17.57069331       8.19398358       8.04241838        9      -0.00079773      -0.00035821       0.00025439
