80
Lattice="11.75492882491623 0.007220022793484481 0.004985324283341549 6.456222217403249 9.82321731853084 0.004985324283340559 6.456222217403252 3.485089318207366 9.184213400431164" Properties=species:S:1:pos:R:3:spacegroup_kinds:I:1:forces:R:3 spacegroup="P 1" unit_cell=conventional occupancy="_JSON {\"0\": {\"In\": 1}, \"1\": {\"In\": 1}, \"2\": {\"In\": 1}, \"3\": {\"In\": 1}, \"4\": {\"O\": 1}, \"5\": {\"O\": 1}, \"6\": {\"O\": 1}, \"7\": {\"O\": 1}, \"8\": {\"O\": 1}, \"9\": {\"O\": 1}}" n_minim_iter=4 energy=-90301.49345125411 stress="-1.9141955159619928e-05 1.0215973626039362e-05 7.052986294857469e-06 1.0215973626039362e-05 -3.255228118930181e-05 3.80735578427065e-06 7.052986294857469e-06 3.80735578427065e-06 -3.543689252669532e-05" free_energy=-11287.686681406734 pbc="T T T"
In      10.57279541       5.70722864       3.94076118        0       0.00669820       0.00361576       0.00249659
In      16.45025982       5.71083865       3.94325384        0       0.00669820       0.00361576       0.00249659
In      13.80090652      10.61883730       3.94325384        0       0.00669820       0.00361576       0.00249659
In      19.67837093      10.62244731       3.94574650        0       0.00669820       0.00361576       0.00249659
In      13.80090652       7.44977330       8.53286788        0       0.00669820       0.00361576       0.00249659
In      19.67837093       7.45338331       8.53536054        0       0.00669820       0.00361576       0.00249659
In      17.02901763      12.36138196       8.53536054        0       0.00669820       0.00361576       0.00249659
In      22.90648204      12.36499197       8.53785320        0       0.00669820       0.00361576       0.00249659
In       7.92773455       4.27941636       2.95487686        1      -0.00669832      -0.00361569      -0.00249655
In      13.80519896       4.28302637       2.95736952        1      -0.00669832      -0.00361569      -0.00249655
In      11.15584566       9.19102502       2.95736952        1      -0.00669832      -0.00361569      -0.00249655
In      17.03331007       9.19463503       2.95986218        1      -0.00669832      -0.00361569      -0.00249655
In      11.15584566       6.02196102       7.54698356        1      -0.00669832      -0.00361569      -0.00249655
In      17.03331007       6.02557103       7.54947622        1      -0.00669832      -0.00361569      -0.00249655
In      14.38395677      10.93356968       7.54947622        1      -0.00669832      -0.00361569      -0.00249655
In      20.26142118      10.93717969       7.55196888        1      -0.00669832      -0.00361569      -0.00249655
In       4.40595209       2.37834698       1.64221517        2       0.00669830       0.00361569       0.00249655
In      10.28341650       2.38195699       1.64470783        2       0.00669830       0.00361569       0.00249655
In       7.63406320       7.28995564       1.64470783        2       0.00669830       0.00361569       0.00249655
In      13.51152761       7.29356565       1.64720049        2       0.00669830       0.00361569       0.00249655
In       7.63406320       4.12089164       6.23432187        2       0.00669830       0.00361569       0.00249655
In      13.51152761       4.12450165       6.23681453        2       0.00669830       0.00361569       0.00249655
In      10.86217431       9.03250030       6.23681453        2       0.00669830       0.00361569       0.00249655
In      16.73963872       9.03611031       6.23930719        2       0.00669830       0.00361569       0.00249655
In       1.76089123       0.95053470       0.65633085        3      -0.00669822      -0.00361577      -0.00249658
In       7.63835564       0.95414471       0.65882351        3      -0.00669822      -0.00361577      -0.00249658
In       4.98900234       5.86214336       0.65882351        3      -0.00669822      -0.00361577      -0.00249658
In      10.86646675       5.86575337       0.66131617        3      -0.00669822      -0.00361577      -0.00249658
In       4.98900234       2.69307936       5.24843755        3      -0.00669822      -0.00361577      -0.00249658
In      10.86646675       2.69668937       5.25093021        3      -0.00669822      -0.00361577      -0.00249658
In       8.21711345       7.60468802       5.25093021        3      -0.00669822      -0.00361577      -0.00249658
In      14.09457786       7.60829803       5.25342287        3      -0.00669822      -0.00361577      -0.00249658
O        6.02215387       2.31161216       0.21586408        4      -0.00000007      -0.00000554       0.00000808
O       11.89961828       2.31522217       0.21835674        4      -0.00000007      -0.00000554       0.00000808
O        9.25026498       7.22322082       0.21835674        4      -0.00000007      -0.00000554       0.00000808
O       15.12772939       7.22683083       0.22084940        4      -0.00000007      -0.00000554       0.00000808
O        9.25026498       4.05415682       4.80797078        4      -0.00000007      -0.00000554       0.00000808
O       15.12772939       4.05776683       4.81046344        4      -0.00000007      -0.00000554       0.00000808
O       12.47837609       8.96576548       4.81046344        4      -0.00000007      -0.00000554       0.00000808
O       18.35584050       8.96937549       4.81295610        4      -0.00000007      -0.00000554       0.00000808
O        7.09667996       5.12154309       1.15176567        5       0.00000465      -0.00000859       0.00000003
O       12.97414437       5.12515310       1.15425833        5       0.00000465      -0.00000859       0.00000003
O       10.32479107      10.03315175       1.15425833        5       0.00000465      -0.00000859       0.00000003
O       16.20225548      10.03676176       1.15675099        5       0.00000465      -0.00000859       0.00000003
O       10.32479107       6.86408775       5.74387237        5       0.00000465      -0.00000859       0.00000003
O       16.20225548       6.86769776       5.74636503        5       0.00000465      -0.00000859       0.00000003
O       13.55290218      11.77569641       5.74636503        5       0.00000465      -0.00000859       0.00000003
O       19.43036659      11.77930642       5.74885769        5       0.00000465      -0.00000859       0.00000003
O        8.17573888       2.18339157       2.51191743        6      -0.00000462       0.00000309       0.00000807
O       14.05320329       2.18700158       2.51441009        6      -0.00000462       0.00000309       0.00000807
O       11.40384999       7.09500023       2.51441009        6      -0.00000462       0.00000309       0.00000807
O       17.28131440       7.09861024       2.51690275        6      -0.00000462       0.00000309       0.00000807
O       11.40384999       3.92593623       7.10402413        6      -0.00000462       0.00000309       0.00000807
O       17.28131440       3.92954624       7.10651679        6      -0.00000462       0.00000309       0.00000807
O       14.63196110       8.83754489       7.10651679        6      -0.00000462       0.00000309       0.00000807
O       20.50942551       8.84115490       7.10900945        6      -0.00000462       0.00000309       0.00000807
O        4.15794775       4.47437177       2.08517460        7       0.00000468      -0.00000309      -0.00000809
O       10.03541216       4.47798178       2.08766726        7       0.00000468      -0.00000309      -0.00000809
O        7.38605886       9.38598043       2.08766726        7       0.00000468      -0.00000309      -0.00000809
O       13.26352327       9.38959044       2.09015992        7       0.00000468      -0.00000309      -0.00000809
O        7.38605886       6.21691643       6.67728130        7       0.00000468      -0.00000309      -0.00000809
O       13.26352327       6.22052644       6.67977396        7       0.00000468      -0.00000309      -0.00000809
O       10.61416997      11.12852509       6.67977396        7       0.00000468      -0.00000309      -0.00000809
O       16.49163438      11.13213510       6.68226662        7       0.00000468      -0.00000309      -0.00000809
O        6.31153277       4.34615118       4.38122795        8       0.00000007       0.00000554      -0.00000808
O       12.18899718       4.34976119       4.38372061        8       0.00000007       0.00000554      -0.00000808
O        9.53964388       9.25775984       4.38372061        8       0.00000007       0.00000554      -0.00000808
O       15.41710829       9.26136985       4.38621327        8       0.00000007       0.00000554      -0.00000808
O        9.53964388       6.08869584       8.97333465        8       0.00000007       0.00000554      -0.00000808
O       15.41710829       6.09230585       8.97582731        8       0.00000007       0.00000554      -0.00000808
O       12.76775499      11.00030450       8.97582731        8       0.00000007       0.00000554      -0.00000808
O       18.64521940      11.00391451       8.97831997        8       0.00000007       0.00000554      -0.00000808
O        5.23700668       1.53622025       3.44532636        9      -0.00000467       0.00000860      -0.00000002
O       11.11447109       1.53983026       3.44781902        9      -0.00000467       0.00000860      -0.00000002
O        8.46511779       6.44782891       3.44781902        9      -0.00000467       0.00000860      -0.00000002
O       14.34258220       6.45143892       3.45031168        9      -0.00000467       0.00000860      -0.00000002
O        8.46511779       3.27876491       8.03743306        9      -0.00000467       0.00000860      -0.00000002
O       14.34258220       3.28237492       8.03992572        9      -0.00000467       0.00000860      -0.00000002
O       11.69322890       8.19037357       8.03992572        9      -0.00000467       0.00000860      -0.00000002
O       17.57069331       8.19398358       8.04241838        9      -0.00000467       0.00000860      -0.00000002
