20
Lattice="5.53848268648899 5.570063840719214e-60 1.5813958951007422e-42 -5.279078132363098e-59 5.569084346439782 1.6527213320386606e-16 -2.2009097561754924e-42 -2.287537740742674e-16 7.708190350605489" Properties=species:S:1:pos:R:3:spacegroup_kinds:I:1:forces:R:3 spacegroup="P 1" unit_cell=conventional occupancy="_JSON {\"0\": {\"In\": 1}, \"1\": {\"In\": 1}, \"2\": {\"In\": 1}, \"3\": {\"In\": 1}, \"4\": {\"In\": 1}, \"5\": {\"In\": 1}, \"6\": {\"In\": 1}, \"7\": {\"In\": 1}, \"8\": {\"O\": 1}, \"9\": {\"O\": 1}, \"10\": {\"O\": 1}, \"11\": {\"O\": 1}, \"12\": {\"O\": 1}, \"13\": {\"O\": 1}, \"14\": {\"O\": 1}, \"15\": {\"O\": 1}, \"16\": {\"O\": 1}, \"17\": {\"O\": 1}, \"18\": {\"O\": 1}, \"19\": {\"O\": 1}}" n_minim_iter=1 energy=-22575.12787157235 stress="0.010263979615425132 2.2868251070306316e-12 -4.4961707561110793e-13 2.2868251070306316e-12 0.018683462426430805 -1.9011505939419665e-12 -4.4961707561110793e-13 -1.9011505939419665e-12 0.01786431531921325" free_energy=-22575.12787157235 pbc="T T T"
In       1.37073669       2.95742586       0.92442844        0      -0.04280688      -0.03448053       0.20446185
In       1.39850465       0.17288369       2.92966674        1       0.04280688      -0.03448053      -0.20446185
In       1.39850465       2.61165849       4.77852361        2       0.04280688       0.03448053       0.20446185
In       1.37073669       5.39620066       6.78376191        3      -0.04280688       0.03448053      -0.20446185
In       4.16774600       2.61165849       6.78376191        4       0.04280688       0.03448053      -0.20446185
In       4.13997803       5.39620066       4.77852361        5      -0.04280688       0.03448053       0.20446185
In       4.13997803       2.95742586       2.92966674        6      -0.04280688      -0.03448053      -0.20446185
In       4.16774600       0.17288369       0.92442844        7       0.04280688      -0.03448053       0.20446185
O        2.16864123       3.35906268       6.56920843        8       0.03823313      -0.05628124      -0.04229077
O        0.60060011       0.57452051       4.99307710        9      -0.03823313      -0.05628124       0.04229077
O        0.60060011       2.21002167       2.71511325       10      -0.03823313       0.05628124      -0.04229077
O        2.16864123       4.99456384       1.13898192       11       0.03823313       0.05628124       0.04229077
O        3.36984146       2.21002167       1.13898192       12      -0.03823313       0.05628124       0.04229077
O        4.93788257       4.99456384       2.71511325       13       0.03823313       0.05628124      -0.04229077
O        4.93788257       3.35906268       4.99307710       14       0.03823313      -0.05628124       0.04229077
O        3.36984146       0.57452051       6.56920843       15      -0.03823313      -0.05628124      -0.04229077
O        5.29260203       4.17681326      -0.00000000       16      -0.05653138       0.00000000       0.00000000
O        3.01512200       1.39227109       3.85409518       17       0.05653138       0.00000000       0.00000000
O        0.24588066       1.39227109      -0.00000000       18       0.05653138      -0.00000000      -0.00000000
O        2.52336069       4.17681326       3.85409518       19      -0.05653138       0.00000000      -0.00000000
20
Lattice="5.557985126065462 5.971575401424987e-60 1.5919968369246715e-42 -5.218138349397798e-59 5.557806445230476 1.6503018615826983e-16 -2.1907121394854117e-42 -2.2828528994216355e-16 7.696729622006582" Properties=species:S:1:pos:R:3:spacegroup_kinds:I:1:forces:R:3 spacegroup="P 1" unit_cell=conventional occupancy="_JSON {\"0\": {\"In\": 1}, \"1\": {\"In\": 1}, \"2\": {\"In\": 1}, \"3\": {\"In\": 1}, \"4\": {\"In\": 1}, \"5\": {\"In\": 1}, \"6\": {\"In\": 1}, \"7\": {\"In\": 1}, \"8\": {\"O\": 1}, \"9\": {\"O\": 1}, \"10\": {\"O\": 1}, \"11\": {\"O\": 1}, \"12\": {\"O\": 1}, \"13\": {\"O\": 1}, \"14\": {\"O\": 1}, \"15\": {\"O\": 1}, \"16\": {\"O\": 1}, \"17\": {\"O\": 1}, \"18\": {\"O\": 1}, \"19\": {\"O\": 1}}" n_minim_iter=2 energy=-22575.131824399097 stress="0.01756106699451603 -5.109609380050204e-13 5.456266728297101e-13 -5.109609380050204e-13 0.016536639258219462 2.395844556908265e-12 5.456266728297101e-13 2.395844556908265e-12 0.015530334661530793" free_energy=-22575.131824399097 pbc="T T T"
In       1.37544448       2.95134153       0.92361922        0      -0.02021052      -0.04758367       0.21738870
In       1.40354809       0.17243831       2.92474559        1       0.02021052      -0.04758367      -0.21738870
In       1.40354809       2.60646491       4.77198403        2       0.02021052       0.04758367       0.21738870
In       1.37544448       5.38536814       6.77311040        3      -0.02021052       0.04758367      -0.21738870
In       4.18254065       2.60646491       6.77311040        4       0.02021052       0.04758367      -0.21738870
In       4.15443704       5.38536814       4.77198403        5      -0.02021052       0.04758367       0.21738870
In       4.15443704       2.95134153       2.92474559        6      -0.02021052      -0.04758367      -0.21738870
In       4.18254065       0.17243831       0.92361922        7       0.02021052      -0.04758367       0.21738870
O        2.17638381       3.35210476       6.55932425        8       0.04636530      -0.06416975      -0.03043106
O        0.60260875       0.57320154       4.98577018        9      -0.04636530      -0.06416975       0.03043106
O        0.60260875       2.20570168       2.71095944       10      -0.04636530       0.06416975      -0.03043106
O        2.17638381       4.98460490       1.13740537       11       0.04636530       0.06416975       0.03043106
O        3.38160132       2.20570168       1.13740537       12      -0.04636530       0.06416975       0.03043106
O        4.95537637       4.98460490       2.71095944       13       0.04636530       0.06416975      -0.03043106
O        4.95537637       3.35210476       4.98577018       14       0.04636530      -0.06416975       0.03043106
O        3.38160132       0.57320154       6.55932425       15      -0.04636530      -0.06416975      -0.03043106
O        5.31108159       4.16835483      -0.00000000       16      -0.05256086      -0.00000000      -0.00000000
O        3.02589610       1.38945161       3.84836481       17       0.05256086       0.00000000      -0.00000000
O        0.24690353       1.38945161      -0.00000000       18       0.05256086       0.00000000       0.00000000
O        2.53208903       4.16835483       3.84836481       19      -0.05256086       0.00000000       0.00000000
20
Lattice="5.5592762069667065 8.429077651046002e-60 1.5896360334086458e-42 -4.553921111781824e-59 5.546092005533098 1.627948301321919e-16 -2.1986478990340454e-42 -2.313133701100224e-16 7.71119537581992" Properties=species:S:1:pos:R:3:spacegroup_kinds:I:1:forces:R:3 spacegroup="P 1" unit_cell=conventional occupancy="_JSON {\"0\": {\"In\": 1}, \"1\": {\"In\": 1}, \"2\": {\"In\": 1}, \"3\": {\"In\": 1}, \"4\": {\"In\": 1}, \"5\": {\"In\": 1}, \"6\": {\"In\": 1}, \"7\": {\"In\": 1}, \"8\": {\"O\": 1}, \"9\": {\"O\": 1}, \"10\": {\"O\": 1}, \"11\": {\"O\": 1}, \"12\": {\"O\": 1}, \"13\": {\"O\": 1}, \"14\": {\"O\": 1}, \"15\": {\"O\": 1}, \"16\": {\"O\": 1}, \"17\": {\"O\": 1}, \"18\": {\"O\": 1}, \"19\": {\"O\": 1}}" n_minim_iter=3 energy=-22575.137766743308 stress="0.01872727241253792 7.746804408357437e-13 -2.3550926534451912e-12 7.746804408357437e-13 0.01570362665297128 7.247651522401058e-13 -2.3550926534451912e-12 7.247651522401058e-13 0.020420448138576085" free_energy=-22575.137766743308 pbc="T T T"
In       1.37534787       2.94434474       0.92905525        0      -0.01918642      -0.03318776       0.16208813
In       1.40429024       0.17129874       2.92654244        1       0.01918642      -0.03318776      -0.16208813
In       1.40429024       2.60174726       4.78465294        2       0.01918642       0.03318776       0.16208813
In       1.37534787       5.37479327       6.78214012        3      -0.01918642       0.03318776      -0.16208813
In       4.18392834       2.60174726       6.78214012        4       0.01918642       0.03318776      -0.16208813
In       4.15498597       5.37479327       4.78465294        5      -0.01918642       0.03318776       0.16208813
In       4.15498597       2.94434474       2.92654244        6      -0.01918642      -0.03318776      -0.16208813
In       4.18392834       0.17129874       0.92905525        7       0.01918642      -0.03318776       0.16208813
O        2.17766883       3.34396439       6.57109454        8       0.03312234      -0.05073794       0.00029267
O        0.60196928       0.57091839       4.99569853        9      -0.03312234      -0.05073794      -0.00029267
O        0.60196928       2.20212761       2.71549685       10      -0.03312234       0.05073794       0.00029267
O        2.17766883       4.97517362       1.14010084       11       0.03312234       0.05073794      -0.00029267
O        3.38160738       2.20212761       1.14010084       12      -0.03312234       0.05073794      -0.00029267
O        4.95730693       4.97517362       2.71549685       13       0.03312234       0.05073794       0.00029267
O        4.95730693       3.34396439       4.99569853       14       0.03312234      -0.05073794      -0.00029267
O        3.38160738       0.57091839       6.57109454       15      -0.03312234      -0.05073794       0.00029267
O        5.31139318       4.15956900      -0.00000000       16      -0.03816664      -0.00000000      -0.00000000
O        3.02752113       1.38652300       3.85559769       17       0.03816664       0.00000000       0.00000000
O        0.24788303       1.38652300      -0.00000000       18       0.03816664       0.00000000       0.00000000
O        2.53175508       4.15956900       3.85559769       19      -0.03816664      -0.00000000      -0.00000000
20
Lattice="5.561516378287691 1.533739011603982e-59 1.606609184725595e-42 -3.702752615614685e-59 5.557507614269241 1.5614192058184789e-16 -2.2110400949623298e-42 -2.4035615550246256e-16 7.692256224257501" Properties=species:S:1:pos:R:3:spacegroup_kinds:I:1:forces:R:3 spacegroup="P 1" unit_cell=conventional occupancy="_JSON {\"0\": {\"In\": 1}, \"1\": {\"In\": 1}, \"2\": {\"In\": 1}, \"3\": {\"In\": 1}, \"4\": {\"In\": 1}, \"5\": {\"In\": 1}, \"6\": {\"In\": 1}, \"7\": {\"In\": 1}, \"8\": {\"O\": 1}, \"9\": {\"O\": 1}, \"10\": {\"O\": 1}, \"11\": {\"O\": 1}, \"12\": {\"O\": 1}, \"13\": {\"O\": 1}, \"14\": {\"O\": 1}, \"15\": {\"O\": 1}, \"16\": {\"O\": 1}, \"17\": {\"O\": 1}, \"18\": {\"O\": 1}, \"19\": {\"O\": 1}}" n_minim_iter=4 energy=-22575.145587489948 stress="0.02150471681047352 -5.925327221965551e-13 -3.060772693898073e-12 -5.925327221965551e-13 0.022597876149312687 -1.7212892187431228e-12 -3.060772693898073e-12 -1.7212892187431228e-12 0.01955980242383244" free_energy=-22575.145587489948 pbc="T T T"
In       1.37494681       2.94869232       0.93499189        0       0.01880533       0.06755332       0.05036685
In       1.40581138       0.16993852       2.91113622        1      -0.01880533       0.06755332      -0.05036685
In       1.40581138       2.60881529       4.78112001        2      -0.01880533      -0.06755332       0.05036685
In       1.37494681       5.38756910       6.75726433        3       0.01880533      -0.06755332      -0.05036685
In       4.18656957       2.60881529       6.75726433        4      -0.01880533      -0.06755332      -0.05036685
In       4.15570500       5.38756910       4.78112001        5       0.01880533      -0.06755332       0.05036685
In       4.15570500       2.94869232       2.91113622        6       0.01880533       0.06755332      -0.05036685
In       4.18656957       0.16993852       0.93499189        7      -0.01880533       0.06755332       0.05036685
O        2.18027028       3.34841873       6.55396152        8       0.03327388       0.00813968       0.11415050
O        0.60048791       0.56966492       4.98442282        9      -0.03327388       0.00813968      -0.11415050
O        0.60048791       2.20908888       2.70783341       10      -0.03327388      -0.00813968       0.11415050
O        2.18027028       4.98784269       1.13829471       11       0.03327388      -0.00813968      -0.11415050
O        3.38124609       2.20908888       1.13829471       12      -0.03327388      -0.00813968      -0.11415050
O        4.96102847       4.98784269       2.70783341       13       0.03327388      -0.00813968       0.11415050
O        4.96102847       3.34841873       4.98442282       14       0.03327388       0.00813968      -0.11415050
O        3.38124609       0.56966492       6.55396152       15      -0.03327388       0.00813968       0.11415050
O        5.31149481       4.16813071      -0.00000000       16      -0.01309231      -0.00000000       0.00000000
O        3.03077975       1.38937690       3.84612811       17       0.01309231      -0.00000000       0.00000000
O        0.25002156       1.38937690      -0.00000000       18       0.01309231      -0.00000000      -0.00000000
O        2.53073663       4.16813071       3.84612811       19      -0.01309231      -0.00000000      -0.00000000
20
Lattice="5.564402243622201 -8.579222893379442e-59 2.163632205787268e-42 -1.229853388702378e-58 5.544168476423704 1.5692812775907569e-16 -1.4410657599577235e-42 -2.390986772676324e-16 7.706764577773032" Properties=species:S:1:pos:R:3:spacegroup_kinds:I:1:forces:R:3 spacegroup="P 1" unit_cell=conventional occupancy="_JSON {\"0\": {\"In\": 1}, \"1\": {\"In\": 1}, \"2\": {\"In\": 1}, \"3\": {\"In\": 1}, \"4\": {\"In\": 1}, \"5\": {\"In\": 1}, \"6\": {\"In\": 1}, \"7\": {\"In\": 1}, \"8\": {\"O\": 1}, \"9\": {\"O\": 1}, \"10\": {\"O\": 1}, \"11\": {\"O\": 1}, \"12\": {\"O\": 1}, \"13\": {\"O\": 1}, \"14\": {\"O\": 1}, \"15\": {\"O\": 1}, \"16\": {\"O\": 1}, \"17\": {\"O\": 1}, \"18\": {\"O\": 1}, \"19\": {\"O\": 1}}" n_minim_iter=5 energy=-22575.150067289003 stress="0.023889665206970216 -2.854815724997995e-12 -2.10783572542966e-12 -2.854815724997995e-12 0.022341104151563155 -2.9439433001701047e-12 -2.10783572542966e-12 -2.9439433001701047e-12 0.02689168318356548" free_energy=-22575.150067289003 pbc="T T T"
In       1.37550853       2.94266935       0.94473858        0      -0.00033203       0.06699288      -0.00871565
In       1.40669259       0.17058511       2.90864371        1       0.00033203       0.06699288       0.00871565
In       1.40669259       2.60149912       4.79812087        2       0.00033203      -0.06699288      -0.00871565
In       1.37550853       5.37358336       6.76202599        3      -0.00033203      -0.06699288       0.00871565
In       4.18889372       2.60149912       6.76202599        4       0.00033203      -0.06699288       0.00871565
In       4.15770965       5.37358336       4.79812087        5      -0.00033203      -0.06699288      -0.00871565
In       4.15770965       2.94266935       2.90864371        6      -0.00033203       0.06699288       0.00871565
In       4.18889372       0.17058511       0.94473858        7       0.00033203       0.06699288      -0.00871565
O        2.18384124       3.33878905       6.56977521        8      -0.00331664       0.02061148       0.08862011
O        0.59835988       0.56670481       4.99037165        9       0.00331664       0.02061148      -0.08862011
O        0.59835988       2.20537943       2.71639293       10       0.00331664      -0.02061148       0.08862011
O        2.18384124       4.97746367       1.13698936       11      -0.00331664      -0.02061148      -0.08862011
O        3.38056100       2.20537943       1.13698936       12       0.00331664      -0.02061148      -0.08862011
O        4.96604236       4.97746367       2.71639293       13      -0.00331664      -0.02061148       0.08862011
O        4.96604236       3.33878905       4.99037165       14      -0.00331664       0.02061148      -0.08862011
O        3.38056100       0.56670481       6.56977521       15       0.00331664       0.02061148       0.08862011
O        5.31225456       4.15812636      -0.00000000       16      -0.01242071       0.00000000      -0.00000000
O        3.03434880       1.38604212       3.85338229       17       0.01242071       0.00000000      -0.00000000
O        0.25214768       1.38604212      -0.00000000       18       0.01242071       0.00000000       0.00000000
O        2.53005344       4.15812636       3.85338229       19      -0.01242071       0.00000000       0.00000000
20
Lattice="5.567370971242315 -7.125732757472743e-59 2.2573392077545562e-42 -1.2962459417164715e-58 5.560708034821016 1.7093895797739504e-16 -1.4307569328280993e-42 -2.195367861927934e-16 7.679744562455863" Properties=species:S:1:pos:R:3:spacegroup_kinds:I:1:forces:R:3 spacegroup="P 1" unit_cell=conventional occupancy="_JSON {\"0\": {\"In\": 1}, \"1\": {\"In\": 1}, \"2\": {\"In\": 1}, \"3\": {\"In\": 1}, \"4\": {\"In\": 1}, \"5\": {\"In\": 1}, \"6\": {\"In\": 1}, \"7\": {\"In\": 1}, \"8\": {\"O\": 1}, \"9\": {\"O\": 1}, \"10\": {\"O\": 1}, \"11\": {\"O\": 1}, \"12\": {\"O\": 1}, \"13\": {\"O\": 1}, \"14\": {\"O\": 1}, \"15\": {\"O\": 1}, \"16\": {\"O\": 1}, \"17\": {\"O\": 1}, \"18\": {\"O\": 1}, \"19\": {\"O\": 1}}" n_minim_iter=6 energy=-22575.156228959793 stress="0.026566547443908625 -8.336153677609419e-13 3.662775981547561e-12 -8.336153677609419e-13 0.026236629359235788 8.621869907551565e-13 3.662775981547561e-12 8.621869907551565e-13 0.025909956156979" free_energy=-22575.156228959793 pbc="T T T"
In       1.37658244       2.95682472       0.94853107        0      -0.01640852       0.04133723       0.01134923
In       1.40710304       0.17647070       2.89134121        1       0.01640852       0.04133723      -0.01134923
In       1.40710304       2.60388331       4.78840335        2       0.01640852      -0.04133723       0.01134923
In       1.37658244       5.38423733       6.73121349        3      -0.01640852      -0.04133723      -0.01134923
In       4.19078853       2.60388331       6.73121349        4       0.01640852      -0.04133723      -0.01134923
In       4.16026793       5.38423733       4.78840335        5      -0.01640852      -0.04133723       0.01134923
In       4.16026793       2.95682472       2.89134121        6      -0.01640852       0.04133723      -0.01134923
In       4.19078853       0.17647070       0.94853107        7       0.01640852       0.04133723       0.01134923
O        2.18752611       3.34865299       6.55557849        8      -0.03178558       0.01316560      -0.02501360
O        0.59615938       0.56829897       4.96403835        9       0.03178558       0.01316560       0.02501360
O        0.59615938       2.21205505       2.71570621       10       0.03178558      -0.01316560      -0.02501360
O        2.18752611       4.99240906       1.12416607       11      -0.03178558      -0.01316560       0.02501360
O        3.37984486       2.21205505       1.12416607       12       0.03178558      -0.01316560       0.02501360
O        4.97121160       4.99240906       2.71570621       13      -0.03178558      -0.01316560      -0.02501360
O        4.97121160       3.34865299       4.96403835       14      -0.03178558       0.01316560       0.02501360
O        3.37984486       0.56829897       6.55557849       15       0.03178558       0.01316560      -0.02501360
O        5.31253603       4.17053103      -0.00000000       16      -0.04192553       0.00000000      -0.00000000
O        3.03852043       1.39017701       3.83987228       17       0.04192553      -0.00000000       0.00000000
O        0.25483494       1.39017701      -0.00000000       18       0.04192553       0.00000000       0.00000000
O        2.52885055       4.17053103       3.83987228       19      -0.04192553      -0.00000000      -0.00000000
20
Lattice="5.561815951064468 -5.9021514842587284e-58 4.490709509345373e-42 -1.1541887203502276e-58 5.566005353689178 1.9285031290261502e-16 -3.938283948945575e-43 -1.8941481429091026e-16 7.680098601302231" Properties=species:S:1:pos:R:3:spacegroup_kinds:I:1:forces:R:3 spacegroup="P 1" unit_cell=conventional occupancy="_JSON {\"0\": {\"In\": 1}, \"1\": {\"In\": 1}, \"2\": {\"In\": 1}, \"3\": {\"In\": 1}, \"4\": {\"In\": 1}, \"5\": {\"In\": 1}, \"6\": {\"In\": 1}, \"7\": {\"In\": 1}, \"8\": {\"O\": 1}, \"9\": {\"O\": 1}, \"10\": {\"O\": 1}, \"11\": {\"O\": 1}, \"12\": {\"O\": 1}, \"13\": {\"O\": 1}, \"14\": {\"O\": 1}, \"15\": {\"O\": 1}, \"16\": {\"O\": 1}, \"17\": {\"O\": 1}, \"18\": {\"O\": 1}, \"19\": {\"O\": 1}}" n_minim_iter=7 energy=-22575.15791907335 stress="0.0257374724699357 -1.0978714017186548e-12 -1.2086380443391247e-12 -1.0978714017186548e-12 0.027238794710332647 -5.593316505154322e-12 -1.2086380443391247e-12 -5.593316505154322e-12 0.027231541070001163" free_energy=-22575.15791907335 pbc="T T T"
In       1.37401369       2.96408526       0.95150125        0       0.00055826       0.01013608      -0.00390568
In       1.40689428       0.18108258       2.88854805        1      -0.00055826       0.01013608       0.00390568
In       1.40689428       2.60192009       4.79155055        2      -0.00055826      -0.01013608      -0.00390568
In       1.37401369       5.38492277       6.72859735        3       0.00055826      -0.01013608       0.00390568
In       4.18780226       2.60192009       6.72859735        4      -0.00055826      -0.01013608       0.00390568
In       4.15492167       5.38492277       4.79155055        5       0.00055826      -0.01013608      -0.00390568
In       4.15492167       2.96408526       2.88854805        6       0.00055826       0.01013608       0.00390568
In       4.18780226       0.18108258       0.95150125        7      -0.00055826       0.01013608      -0.00390568
O        2.18374559       3.35271268       6.55654935        8      -0.00288223      -0.00164648      -0.01560043
O        0.59716239       0.56971000       4.96359855        9       0.00288223      -0.00164648       0.01560043
O        0.59716239       2.21329268       2.71650005       10       0.00288223       0.00164648      -0.01560043
O        2.18374559       4.99629535       1.12354925       11      -0.00288223       0.00164648       0.01560043
O        3.37807036       2.21329268       1.12354925       12       0.00288223       0.00164648       0.01560043
O        4.96465356       4.99629535       2.71650005       13      -0.00288223       0.00164648      -0.01560043
O        4.96465356       3.35271268       4.96359855       14      -0.00288223      -0.00164648       0.01560043
O        3.37807036       0.56971000       6.55654935       15       0.00288223      -0.00164648      -0.01560043
O        5.30343978       4.17450402      -0.00000000       16      -0.03565172      -0.00000000      -0.00000000
O        3.03928415       1.39150134       3.84004930       17       0.03565172       0.00000000       0.00000000
O        0.25837617       1.39150134      -0.00000000       18       0.03565172       0.00000000      -0.00000000
O        2.52253180       4.17450402       3.84004930       19      -0.03565172      -0.00000000       0.00000000
20
Lattice="5.563851374278457 -5.835676798086189e-58 4.4902017893821326e-42 -7.121063923815147e-59 5.565038067070645 2.0365343536020867e-16 -5.230228886483615e-43 -1.7437825105333437e-16 7.678623418901803" Properties=species:S:1:pos:R:3:spacegroup_kinds:I:1:forces:R:3 spacegroup="P 1" unit_cell=conventional occupancy="_JSON {\"0\": {\"In\": 1}, \"1\": {\"In\": 1}, \"2\": {\"In\": 1}, \"3\": {\"In\": 1}, \"4\": {\"In\": 1}, \"5\": {\"In\": 1}, \"6\": {\"In\": 1}, \"7\": {\"In\": 1}, \"8\": {\"O\": 1}, \"9\": {\"O\": 1}, \"10\": {\"O\": 1}, \"11\": {\"O\": 1}, \"12\": {\"O\": 1}, \"13\": {\"O\": 1}, \"14\": {\"O\": 1}, \"15\": {\"O\": 1}, \"16\": {\"O\": 1}, \"17\": {\"O\": 1}, \"18\": {\"O\": 1}, \"19\": {\"O\": 1}}" n_minim_iter=8 energy=-22575.158216673142 stress="0.026756488019314996 -1.6312793487314773e-12 7.829139125459835e-13 -1.6312793487314773e-12 0.027079285546031694 4.801942704619132e-12 7.829139125459835e-13 4.801942704619132e-12 0.02711159650845646" free_energy=-22575.158216673142 pbc="T T T"
In       1.37425707       2.96464544       0.95187169        0       0.01043821       0.00062580      -0.00654138
In       1.40766861       0.18212640       2.88744002        1      -0.01043821       0.00062580       0.00654138
In       1.40766861       2.60039263       4.79118340        2      -0.01043821      -0.00062580      -0.00654138
In       1.37425707       5.38291167       6.72675173        3       0.01043821      -0.00062580       0.00654138
In       4.18959430       2.60039263       6.72675173        4      -0.01043821      -0.00062580       0.00654138
In       4.15618276       5.38291167       4.79118340        5       0.01043821      -0.00062580      -0.00654138
In       4.15618276       2.96464544       2.88744002        6       0.01043821       0.00062580       0.00654138
In       4.18959430       0.18212640       0.95187169        7      -0.01043821       0.00062580      -0.00654138
O        2.18405610       3.35228624       6.55496119        8       0.00640548      -0.00582586      -0.00407691
O        0.59786959       0.56976720       4.96297394        9      -0.00640548      -0.00582586       0.00407691
O        0.59786959       2.21275183       2.71564948       10      -0.00640548       0.00582586      -0.00407691
O        2.18405610       4.99527086       1.12366223       11       0.00640548       0.00582586       0.00407691
O        3.37979528       2.21275183       1.12366223       12      -0.00640548       0.00582586       0.00407691
O        4.96598178       4.99527086       2.71564948       13       0.00640548       0.00582586      -0.00407691
O        4.96598178       3.35228624       4.96297394       14       0.00640548      -0.00582586       0.00407691
O        3.37979528       0.56976720       6.55496119       15      -0.00640548      -0.00582586      -0.00407691
O        5.30390742       4.17377855      -0.00000000       16      -0.02941340       0.00000000      -0.00000000
O        3.04186964       1.39125952       3.83931171       17       0.02941340       0.00000000      -0.00000000
O        0.25994396       1.39125952      -0.00000000       18       0.02941340      -0.00000000       0.00000000
O        2.52198173       4.17377855       3.83931171       19      -0.02941340       0.00000000       0.00000000
20
Lattice="5.56610490804276 -5.893051694149378e-58 4.3967464439733116e-42 -6.186209857179807e-59 5.564072884746546 1.8294747831805577e-16 -7.166374564636989e-43 -2.0294293678766789e-16 7.676846043025324" Properties=species:S:1:pos:R:3:spacegroup_kinds:I:1:forces:R:3 spacegroup="P 1" unit_cell=conventional occupancy="_JSON {\"0\": {\"In\": 1}, \"1\": {\"In\": 1}, \"2\": {\"In\": 1}, \"3\": {\"In\": 1}, \"4\": {\"In\": 1}, \"5\": {\"In\": 1}, \"6\": {\"In\": 1}, \"7\": {\"In\": 1}, \"8\": {\"O\": 1}, \"9\": {\"O\": 1}, \"10\": {\"O\": 1}, \"11\": {\"O\": 1}, \"12\": {\"O\": 1}, \"13\": {\"O\": 1}, \"14\": {\"O\": 1}, \"15\": {\"O\": 1}, \"16\": {\"O\": 1}, \"17\": {\"O\": 1}, \"18\": {\"O\": 1}, \"19\": {\"O\": 1}}" n_minim_iter=9 energy=-22575.15838110214 stress="0.027654749134843226 -1.3198620421676327e-12 -3.3625533360500174e-12 -1.3198620421676327e-12 0.026823832665265036 -1.54048270884237e-12 -3.3625533360500174e-12 -1.54048270884237e-12 0.026829962286272397" free_energy=-22575.15838110214 pbc="T T T"
In       1.37501412       2.96505190       0.95174014        0       0.01605792      -0.00714130      -0.00372092
In       1.40803833       0.18301546       2.88668289        1      -0.01605792      -0.00714130       0.00372092
In       1.40803833       2.59902098       4.79016316        2      -0.01605792       0.00714130      -0.00372092
In       1.37501412       5.38105743       6.72510591        3       0.01605792       0.00714130       0.00372092
In       4.19109079       2.59902098       6.72510591        4      -0.01605792       0.00714130       0.00372092
In       4.15806658       5.38105743       4.79016316        5       0.01605792       0.00714130      -0.00372092
In       4.15806658       2.96505190       2.88668289        6       0.01605792      -0.00714130       0.00372092
In       4.19109079       0.18301546       0.95174014        7      -0.01605792      -0.00714130      -0.00372092
O        2.18470781       3.35165321       6.55296024        8       0.00836123      -0.00697920       0.00692451
O        0.59834464       0.56961677       4.96230882        9      -0.00836123      -0.00697920      -0.00692451
O        0.59834464       2.21241967       2.71453722       10      -0.00836123       0.00697920       0.00692451
O        2.18470781       4.99445612       1.12388580       11       0.00836123       0.00697920      -0.00692451
O        3.38139709       2.21241967       1.12388580       12      -0.00836123       0.00697920      -0.00692451
O        4.96776027       4.99445612       2.71453722       13       0.00836123       0.00697920       0.00692451
O        4.96776027       3.35165321       4.96230882       14       0.00836123      -0.00697920      -0.00692451
O        3.38139709       0.56961677       6.55296024       15      -0.00836123      -0.00697920       0.00692451
O        5.30373150       4.17305466      -0.00000000       16      -0.01599647      -0.00000000       0.00000000
O        3.04542586       1.39101822       3.83842302       17       0.01599647      -0.00000000      -0.00000000
O        0.26237341       1.39101822      -0.00000000       18       0.01599647       0.00000000       0.00000000
O        2.52067905       4.17305466       3.83842302       19      -0.01599647       0.00000000       0.00000000
20