20
Lattice="5.711483179845006 -5.2847574532956635e-58 2.80163427216472e-43 4.284381456724932e-58 4.462417103788625 -3.167367653871756e-16 -4.081151531685902e-43 5.905388808953736e-16 8.319939743459939" Properties=species:S:1:pos:R:3:spacegroup_kinds:I:1:forces:R:3 spacegroup="P 1" unit_cell=conventional occupancy="_JSON {\"0\": {\"In\": 1}, \"1\": {\"In\": 1}, \"2\": {\"In\": 1}, \"3\": {\"In\": 1}, \"4\": {\"In\": 1}, \"5\": {\"In\": 1}, \"6\": {\"In\": 1}, \"7\": {\"In\": 1}, \"8\": {\"O\": 1}, \"9\": {\"O\": 1}, \"10\": {\"O\": 1}, \"11\": {\"O\": 1}, \"12\": {\"O\": 1}, \"13\": {\"O\": 1}, \"14\": {\"O\": 1}, \"15\": {\"O\": 1}, \"16\": {\"O\": 1}, \"17\": {\"O\": 1}, \"18\": {\"O\": 1}, \"19\": {\"O\": 1}}" n_minim_iter=1 energy=-22593.912179691553 stress="0.543470066775491 -2.136432609083217e-12 1.034678735366531e-12 -2.136432609083217e-12 0.5720599053112301 1.2269379505937271e-12 1.034678735366531e-12 1.2269379505937271e-12 0.5440464396539144" free_energy=-22593.912179691553 pbc="T T T"
In       1.90531172       2.09681672       1.75209771        0      -0.13409489      -0.28925943       0.62842882
In       0.95042987      -0.13439183       2.40787216        1       0.13409489      -0.28925943      -0.62842882
In       0.95042987       2.36560038       5.91206758        2       0.13409489       0.28925943       0.62842882
In       1.90531172       4.59680893       6.56784203        3      -0.13409489       0.28925943      -0.62842882
In       3.80617146       2.36560038       6.56784203        4       0.13409489       0.28925943      -0.62842882
In       4.76105331       4.59680893       5.91206758        5      -0.13409489       0.28925943       0.62842882
In       4.76105331       2.09681672       2.40787216        6      -0.13409489      -0.28925943      -0.62842882
In       3.80617146      -0.13439183       1.75209771        7       0.13409489      -0.28925943       0.62842882
O        2.04619202       2.91004474       7.30298738        8       0.63278756      -0.53925042       0.62586371
O        0.80954957       0.67883619       5.17692223        9      -0.63278756      -0.53925042      -0.62586371
O        0.80954957       1.55237236       3.14301751       10      -0.63278756       0.53925042       0.62586371
O        2.04619202       3.78358091       1.01695236       11       0.63278756       0.53925042      -0.62586371
O        3.66529116       1.55237236       1.01695236       12      -0.63278756       0.53925042      -0.62586371
O        4.90193361       3.78358091       3.14301751       13       0.63278756       0.53925042       0.62586371
O        4.90193361       2.91004474       5.17692223       14       0.63278756      -0.53925042      -0.62586371
O        3.66529116       0.67883619       7.30298738       15      -0.63278756      -0.53925042       0.62586371
O        4.76422355       3.34681283      -0.00000000       16      -0.32030003      -0.00000000       0.00000000
O        3.80300121       1.11560428       4.15996987       17       0.32030003       0.00000000      -0.00000000
O        0.94725962       1.11560428      -0.00000000       18       0.32030003       0.00000000      -0.00000000
O        1.90848196       3.34681283       4.15996987       19      -0.32030003       0.00000000       0.00000000
20
Lattice="5.73387374193835 -5.243941314246816e-58 2.462051305196199e-43 4.238210546634251e-58 4.428661154945118 -2.9532939967046614e-16 -4.067088617686849e-43 6.281227865038592e-16 8.350618937503306" Properties=species:S:1:pos:R:3:spacegroup_kinds:I:1:forces:R:3 spacegroup="P 1" unit_cell=conventional occupancy="_JSON {\"0\": {\"In\": 1}, \"1\": {\"In\": 1}, \"2\": {\"In\": 1}, \"3\": {\"In\": 1}, \"4\": {\"In\": 1}, \"5\": {\"In\": 1}, \"6\": {\"In\": 1}, \"7\": {\"In\": 1}, \"8\": {\"O\": 1}, \"9\": {\"O\": 1}, \"10\": {\"O\": 1}, \"11\": {\"O\": 1}, \"12\": {\"O\": 1}, \"13\": {\"O\": 1}, \"14\": {\"O\": 1}, \"15\": {\"O\": 1}, \"16\": {\"O\": 1}, \"17\": {\"O\": 1}, \"18\": {\"O\": 1}, \"19\": {\"O\": 1}}" n_minim_iter=2 energy=-22593.942753434 stress="0.5771089997122283 -1.849537795186905e-12 1.8191185424385136e-13 -1.849537795186905e-12 0.5532038918086047 -3.1016897232997724e-12 1.8191185424385136e-13 -3.1016897232997724e-12 0.567710321882054" free_energy=-22593.942753434 pbc="T T T"
In       1.91252557       2.08041053       1.75975553        0      -0.42098290      -0.38329638       0.79029967
In       0.95441130      -0.13392005       2.41555394        1       0.42098290      -0.38329638      -0.79029967
In       0.95441130       2.34825063       5.93506500        2       0.42098290       0.38329638       0.79029967
In       1.91252557       4.56258120       6.59086341        3      -0.42098290       0.38329638      -0.79029967
In       3.82134817       2.34825063       6.59086341        4       0.42098290       0.38329638      -0.79029967
In       4.77946244       4.56258120       5.93506500        5      -0.42098290       0.38329638       0.79029967
In       4.77946244       2.08041053       2.41555394        6      -0.42098290      -0.38329638      -0.79029967
In       3.82134817      -0.13392005       1.75975553        7       0.42098290      -0.38329638       0.79029967
O        2.05541931       2.88701602       7.33110883        8       0.49465034      -0.60620724       0.44412557
O        0.81151756       0.67268545       5.19481958        9      -0.49465034      -0.60620724      -0.44412557
O        0.81151756       1.54164513       3.15579936       10      -0.49465034       0.60620724       0.44412557
O        2.05541931       3.75597571       1.01951011       11       0.49465034       0.60620724      -0.44412557
O        3.67845443       1.54164513       1.01951011       12      -0.49465034       0.60620724      -0.44412557
O        4.92235618       3.75597571       3.15579936       13       0.49465034       0.60620724       0.44412557
O        4.92235618       2.88701602       5.19481958       14       0.49465034      -0.60620724      -0.44412557
O        3.67845443       0.67268545       7.33110883       15      -0.49465034      -0.60620724       0.44412557
O        4.78229033       3.32149587      -0.00000000       16      -0.18512121      -0.00000000       0.00000000
O        3.81852028       1.10716529       4.17530947       17       0.18512121      -0.00000000      -0.00000000
O        0.95158341       1.10716529      -0.00000000       18       0.18512121      -0.00000000       0.00000000
O        1.91535346       3.32149587       4.17530947       19      -0.18512121      -0.00000000       0.00000000
20
Lattice="5.7138393370161324 -5.209039209409502e-58 2.4616556300358776e-43 4.249770863056722e-58 4.423562887272287 -2.815611611485788e-16 -4.148705959186631e-43 6.562575482816769e-16 8.389556713255162" Properties=species:S:1:pos:R:3:spacegroup_kinds:I:1:forces:R:3 spacegroup="P 1" unit_cell=conventional occupancy="_JSON {\"0\": {\"In\": 1}, \"1\": {\"In\": 1}, \"2\": {\"In\": 1}, \"3\": {\"In\": 1}, \"4\": {\"In\": 1}, \"5\": {\"In\": 1}, \"6\": {\"In\": 1}, \"7\": {\"In\": 1}, \"8\": {\"O\": 1}, \"9\": {\"O\": 1}, \"10\": {\"O\": 1}, \"11\": {\"O\": 1}, \"12\": {\"O\": 1}, \"13\": {\"O\": 1}, \"14\": {\"O\": 1}, \"15\": {\"O\": 1}, \"16\": {\"O\": 1}, \"17\": {\"O\": 1}, \"18\": {\"O\": 1}, \"19\": {\"O\": 1}}" n_minim_iter=3 energy=-22593.99574291581 stress="0.5616938273517837 -1.8632128039538697e-12 -3.3561228074478256e-12 -1.8632128039538697e-12 0.575520690937496 9.192657572127047e-14 -3.3561228074478256e-12 9.192657572127047e-14 0.6078795011898229" free_energy=-22593.99574291581 pbc="T T T"
In       1.90360193       2.07548257       1.77341528        0      -0.47863594      -0.07609684       0.51010045
In       0.95331774      -0.13629887       2.42136308        1       0.47863594      -0.07609684      -0.51010045
In       0.95331774       2.34808032       5.96819364        2       0.47863594       0.07609684       0.51010045
In       1.90360193       4.55986176       6.61614143        3      -0.47863594       0.07609684      -0.51010045
In       3.81023741       2.34808032       6.61614143        4       0.47863594       0.07609684      -0.51010045
In       4.76052160       4.55986176       5.96819364        5      -0.47863594       0.07609684       0.51010045
In       4.76052160       2.07548257       2.42136308        6      -0.47863594      -0.07609684      -0.51010045
In       3.81023741      -0.13629887       1.77341528        7       0.47863594      -0.07609684       0.51010045
O        2.05239076       2.87942729       7.36923697        8       0.08119773      -0.16139846       0.04183106
O        0.80452890       0.66764585       5.21509810        9      -0.08119773      -0.16139846      -0.04183106
O        0.80452890       1.54413559       3.17445861       10      -0.08119773       0.16139846       0.04183106
O        2.05239076       3.75591704       1.02031975       11       0.08119773       0.16139846      -0.04183106
O        3.66144857       1.54413559       1.02031975       12      -0.08119773       0.16139846      -0.04183106
O        4.90931043       3.75591704       3.17445861       13       0.08119773       0.16139846       0.04183106
O        4.90931043       2.87942729       5.21509810       14       0.08119773      -0.16139846      -0.04183106
O        3.66144857       0.66764585       7.36923697       15      -0.08119773      -0.16139846       0.04183106
O        4.76375951       3.31767217      -0.00000000       16      -0.06932798       0.00000000      -0.00000000
O        3.80699950       1.10589072       4.19477836       17       0.06932798       0.00000000      -0.00000000
O        0.95007983       1.10589072      -0.00000000       18       0.06932798      -0.00000000      -0.00000000
O        1.90683984       3.31767217       4.19477836       19      -0.06932798       0.00000000      -0.00000000
20
Lattice="5.743549890637771 -5.271608997736787e-58 2.5301908647531374e-43 4.261179520343971e-58 4.426267055102034 -2.8226061790784366e-16 -4.365159792919489e-43 6.517863966377076e-16 8.34105977619749" Properties=species:S:1:pos:R:3:spacegroup_kinds:I:1:forces:R:3 spacegroup="P 1" unit_cell=conventional occupancy="_JSON {\"0\": {\"In\": 1}, \"1\": {\"In\": 1}, \"2\": {\"In\": 1}, \"3\": {\"In\": 1}, \"4\": {\"In\": 1}, \"5\": {\"In\": 1}, \"6\": {\"In\": 1}, \"7\": {\"In\": 1}, \"8\": {\"O\": 1}, \"9\": {\"O\": 1}, \"10\": {\"O\": 1}, \"11\": {\"O\": 1}, \"12\": {\"O\": 1}, \"13\": {\"O\": 1}, \"14\": {\"O\": 1}, \"15\": {\"O\": 1}, \"16\": {\"O\": 1}, \"17\": {\"O\": 1}, \"18\": {\"O\": 1}, \"19\": {\"O\": 1}}" n_minim_iter=4 energy=-22594.04793984318 stress="0.6017617490048778 -5.926226541058852e-13 -2.4969066780169937e-12 -5.926226541058852e-13 0.6042394424747622 1.5563464874667828e-12 -2.4969066780169937e-12 1.5563464874667828e-12 0.5994022901918373" free_energy=-22594.04793984318 pbc="T T T"
In       1.91036994       2.07410089       1.76952171        0      -0.27013628       0.24659243       0.47437671
In       0.96140501      -0.13903264       2.40100818        1       0.27013628       0.24659243      -0.47437671
In       0.96140501       2.35216617       5.94005160        2       0.27013628      -0.24659243       0.47437671
In       1.91036994       4.56529969       6.57153807        3      -0.27013628      -0.24659243      -0.47437671
In       3.83317995       2.35216617       6.57153807        4       0.27013628      -0.24659243      -0.47437671
In       4.78214488       4.56529969       5.94005160        5      -0.27013628      -0.24659243       0.47437671
In       4.78214488       2.07410089       2.40100818        6      -0.27013628       0.24659243      -0.47437671
In       3.83317995      -0.13903264       1.76952171        7       0.27013628       0.24659243       0.47437671
O        2.06738098       2.87665134       7.33063399        8       0.04409073       0.31230290      -0.37015038
O        0.80439396       0.66351782       5.18095567        9      -0.04409073       0.31230290       0.37015038
O        0.80439396       1.54961571       3.16010410       10      -0.04409073      -0.31230290      -0.37015038
O        2.06738098       3.76274924       1.01042578       11       0.04409073      -0.31230290       0.37015038
O        3.67616891       1.54961571       1.01042578       12      -0.04409073      -0.31230290       0.37015038
O        4.93915593       3.76274924       3.16010410       13       0.04409073      -0.31230290      -0.37015038
O        4.93915593       2.87665134       5.18095567       14       0.04409073       0.31230290       0.37015038
O        3.67616891       0.66351782       7.33063399       15      -0.04409073       0.31230290      -0.37015038
O        4.78656237       3.31970029      -0.00000000       16       0.14745388       0.00000000      -0.00000000
O        3.82876246       1.10656676       4.17052989       17      -0.14745388       0.00000000       0.00000000
O        0.95698752       1.10656676      -0.00000000       18      -0.14745388      -0.00000000      -0.00000000
O        1.91478743       3.31970029       4.17052989       19       0.14745388      -0.00000000       0.00000000
20
Lattice="5.774174163311764 -5.274757375766246e-58 2.4335028728151996e-43 4.2278373756604565e-58 4.398005369105112 -2.7316909862920673e-16 -4.29795110257347e-43 6.65326377463606e-16 8.350137178697675" Properties=species:S:1:pos:R:3:spacegroup_kinds:I:1:forces:R:3 spacegroup="P 1" unit_cell=conventional occupancy="_JSON {\"0\": {\"In\": 1}, \"1\": {\"In\": 1}, \"2\": {\"In\": 1}, \"3\": {\"In\": 1}, \"4\": {\"In\": 1}, \"5\": {\"In\": 1}, \"6\": {\"In\": 1}, \"7\": {\"In\": 1}, \"8\": {\"O\": 1}, \"9\": {\"O\": 1}, \"10\": {\"O\": 1}, \"11\": {\"O\": 1}, \"12\": {\"O\": 1}, \"13\": {\"O\": 1}, \"14\": {\"O\": 1}, \"15\": {\"O\": 1}, \"16\": {\"O\": 1}, \"17\": {\"O\": 1}, \"18\": {\"O\": 1}, \"19\": {\"O\": 1}}" n_minim_iter=5 energy=-22594.130890329525 stress="0.6292958647802176 -2.3224592558233537e-12 1.8911566454796872e-12 -2.3224592558233537e-12 0.6589234035529989 -6.287152013901303e-13 1.8911566454796872e-12 -6.287152013901303e-13 0.6402562158311006" free_energy=-22594.130890329525 pbc="T T T"
In       1.90585867       2.06432137       1.79780444        0       0.18338172       0.32172733      -0.20000001
In       0.98122841      -0.13468131       2.37726415        1      -0.18338172       0.32172733       0.20000001
In       0.98122841       2.33368400       5.97287303        2      -0.18338172      -0.32172733      -0.20000001
In       1.90585867       4.53268668       6.55233274        3       0.18338172      -0.32172733       0.20000001
In       3.86831549       2.33368400       6.55233274        4      -0.18338172      -0.32172733       0.20000001
In       4.79294576       4.53268668       5.97287303        5       0.18338172      -0.32172733      -0.20000001
In       4.79294576       2.06432137       2.37726415        6       0.18338172       0.32172733       0.20000001
In       3.86831549      -0.13468131       1.79780444        7      -0.18338172       0.32172733      -0.20000001
O        2.08673624       2.86081233       7.33269287        8       0.47186025       0.53824575       0.58215606
O        0.80035084       0.66180965       5.19251289        9      -0.47186025       0.53824575      -0.58215606
O        0.80035084       1.53719304       3.15762429       10      -0.47186025      -0.53824576       0.58215606
O        2.08673624       3.73619572       1.01744430       11       0.47186025      -0.53824576      -0.58215606
O        3.68743792       1.53719304       1.01744430       12      -0.47186025      -0.53824576      -0.58215606
O        4.97382332       3.73619572       3.15762429       13       0.47186025      -0.53824576       0.58215606
O        4.97382332       2.86081233       5.19251289       14       0.47186025       0.53824576      -0.58215606
O        3.68743792       0.66180965       7.33269287       15      -0.47186025       0.53824576       0.58215606
O        4.81392505       3.29850403      -0.00000000       16       0.08545715       0.00000000      -0.00000000
O        3.84733619       1.09950134       4.17506859       17      -0.08545715       0.00000000      -0.00000000
O        0.96024911       1.09950134      -0.00000000       18      -0.08545715       0.00000000       0.00000000
O        1.92683797       3.29850403       4.17506859       19       0.08545715      -0.00000000       0.00000000
20
Lattice="5.873036923368163 -5.553396331783582e-58 3.3405026558203277e-43 3.57759462769144e-58 4.325752672746906 -2.7486104832090424e-16 -1.1571294189843938e-43 6.53779515806885e-16 8.34670046851232" Properties=species:S:1:pos:R:3:spacegroup_kinds:I:1:forces:R:3 spacegroup="P 1" unit_cell=conventional occupancy="_JSON {\"0\": {\"In\": 1}, \"1\": {\"In\": 1}, \"2\": {\"In\": 1}, \"3\": {\"In\": 1}, \"4\": {\"In\": 1}, \"5\": {\"In\": 1}, \"6\": {\"In\": 1}, \"7\": {\"In\": 1}, \"8\": {\"O\": 1}, \"9\": {\"O\": 1}, \"10\": {\"O\": 1}, \"11\": {\"O\": 1}, \"12\": {\"O\": 1}, \"13\": {\"O\": 1}, \"14\": {\"O\": 1}, \"15\": {\"O\": 1}, \"16\": {\"O\": 1}, \"17\": {\"O\": 1}, \"18\": {\"O\": 1}, \"19\": {\"O\": 1}}" n_minim_iter=6 energy=-22594.26657516473 stress="0.7072795941296357 -2.7055652343139384e-12 9.060223347330468e-13 -2.7055652343139384e-12 0.7642652120055388 -2.220578275164024e-12 9.060223347330468e-13 -2.220578275164024e-12 0.7293257399152465" free_energy=-22594.26657516473 pbc="T T T"
In       1.91061665       2.04754371       1.84630356        0      -0.35990999      -0.57131787       0.41979421
In       1.02590181      -0.11533263       2.32704667        1       0.35990999      -0.57131787      -0.41979421
In       1.02590181       2.27820897       6.01965380        2       0.35990999       0.57131787       0.41979421
In       1.91061665       4.44108530       6.50039690        3      -0.35990999       0.57131787      -0.41979421
In       3.96242027       2.27820897       6.50039690        4       0.35990999       0.57131787      -0.41979421
In       4.84713511       4.44108530       6.01965380        5      -0.35990999       0.57131787       0.41979421
In       4.84713511       2.04754371       2.32704667        6      -0.35990999      -0.57131787      -0.41979421
In       3.96242027      -0.11533263       1.84630356        7       0.35990999      -0.57131787       0.41979421
O        2.16043149       2.83813461       7.34194588        8      -0.66050506      -0.34812123      -0.76832673
O        0.77608697       0.67525827       5.17810482        9       0.66050506      -0.34812123       0.76832673
O        0.77608697       1.48761807       3.16859565       10       0.66050506       0.34812123      -0.76832673
O        2.16043149       3.65049440       1.00475459       11      -0.66050506       0.34812123       0.76832673
O        3.71260543       1.48761807       1.00475459       12       0.66050506       0.34812123       0.76832673
O        5.09694995       3.65049440       3.16859565       13      -0.66050506       0.34812123      -0.76832673
O        5.09694995       2.83813461       5.17810482       14      -0.66050506      -0.34812123       0.76832673
O        3.71260543       0.67525827       7.34194588       15       0.66050506      -0.34812123      -0.76832673
O        4.90628962       3.24431450      -0.00000000       16       0.22283767      -0.00000000       0.00000000
O        3.90326576       1.08143817       4.17335023       17      -0.22283767      -0.00000000       0.00000000
O        0.96674730       1.08143817      -0.00000000       18      -0.22283767      -0.00000000       0.00000000
O        1.96977116       3.24431450       4.17335023       19       0.22283767       0.00000000       0.00000000
20
Lattice="7.092567017174164 -6.087600580660913e-58 2.8545720586154686e-44 1.0265550154570882e-58 3.4883857934860734 6.309734853439763e-15 -1.1541073152668427e-43 1.169735347108565e-14 8.5706012002749" Properties=species:S:1:pos:R:3:spacegroup_kinds:I:1:forces:R:3 spacegroup="P 1" unit_cell=conventional occupancy="_JSON {\"0\": {\"In\": 1}, \"1\": {\"In\": 1}, \"2\": {\"In\": 1}, \"3\": {\"In\": 1}, \"4\": {\"In\": 1}, \"5\": {\"In\": 1}, \"6\": {\"In\": 1}, \"7\": {\"In\": 1}, \"8\": {\"O\": 1}, \"9\": {\"O\": 1}, \"10\": {\"O\": 1}, \"11\": {\"O\": 1}, \"12\": {\"O\": 1}, \"13\": {\"O\": 1}, \"14\": {\"O\": 1}, \"15\": {\"O\": 1}, \"16\": {\"O\": 1}, \"17\": {\"O\": 1}, \"18\": {\"O\": 1}, \"19\": {\"O\": 1}}" n_minim_iter=7 energy=-22612.826510179657 stress="0.12871680033801067 -3.849839164729184e-12 -2.5489778829958815e-12 -3.849839164729184e-12 1.162450511016496 -9.902612331140712e-12 -2.5489778829958815e-12 -9.902612331140712e-12 0.5505296717575373" free_energy=-22612.826510179657 pbc="T T T"
In       1.94722382       1.72733436       2.40928358        0       0.15370989       2.27093179     -16.40529458
In       1.59905969      -0.01685854       1.87601702        1      -0.15370989       2.27093179      16.40529458
In       1.59905969       1.76105144       6.69458418        2      -0.15370989      -2.27093179     -16.40529458
In       1.94722382       3.50524433       6.16131762        3       0.15370989      -2.27093179      16.40529458
In       5.14534320       1.76105144       6.16131762        4      -0.15370989      -2.27093179      16.40529458
In       5.49350733       3.50524433       6.69458418        5       0.15370989      -2.27093179     -16.40529458
In       5.49350733       1.72733436       1.87601702        6       0.15370989       2.27093179      16.40529458
In       5.14534320      -0.01685854       2.40928358        7      -0.15370989       2.27093179     -16.40529458
O        2.96764942       2.42120514       7.59931653        8       6.90694538       4.64677478      -4.57037678
O        0.57863408       0.67701224       5.25658527        9      -6.90694538       4.64677478       4.57037678
O        0.57863408       1.06718066       3.31401593       10      -6.90694538      -4.64677478      -4.57037678
O        2.96764942       2.81137355       0.97128467       11       6.90694538      -4.64677478       4.57037678
O        4.12491759       1.06718066       0.97128467       12      -6.90694538      -4.64677478       4.57037678
O        6.51393293       2.81137355       3.31401593       13       6.90694538      -4.64677478      -4.57037678
O        6.51393293       2.42120514       5.25658527       14       6.90694538       4.64677478       4.57037678
O        4.12491759       0.67701224       7.59931653       15      -6.90694538       4.64677478      -4.57037678
O        6.04881470       2.61628935      -0.00000000       16      -1.77023512      -0.00000000       0.00000000
O        4.59003583       0.87209645       4.28530060       17       1.77023512      -0.00000000      -0.00000000
O        1.04375232       0.87209645      -0.00000000       18       1.77023512       0.00000000       0.00000000
O        2.50253119       2.61628935       4.28530060       19      -1.77023512       0.00000000      -0.00000000
20
Lattice="7.114596513468719 -6.136032511434723e-58 1.9427585409350204e-44 6.869312815094071e-59 3.476000565047119 1.5683252012623246e-14 -1.256699815973151e-43 2.922819349854336e-14 8.574506443595732" Properties=species:S:1:pos:R:3:spacegroup_kinds:I:1:forces:R:3 spacegroup="P 1" unit_cell=conventional occupancy="_JSON {\"0\": {\"In\": 1}, \"1\": {\"In\": 1}, \"2\": {\"In\": 1}, \"3\": {\"In\": 1}, \"4\": {\"In\": 1}, \"5\": {\"In\": 1}, \"6\": {\"In\": 1}, \"7\": {\"In\": 1}, \"8\": {\"O\": 1}, \"9\": {\"O\": 1}, \"10\": {\"O\": 1}, \"11\": {\"O\": 1}, \"12\": {\"O\": 1}, \"13\": {\"O\": 1}, \"14\": {\"O\": 1}, \"15\": {\"O\": 1}, \"16\": {\"O\": 1}, \"17\": {\"O\": 1}, \"18\": {\"O\": 1}, \"19\": {\"O\": 1}}" n_minim_iter=8 energy=-22612.84544189909 stress="0.12403797250202722 3.599653789187438e-12 -6.006118474063677e-13 3.599653789187438e-12 1.1545272512149292 -4.102036921367951e-12 -6.006118474063677e-13 -4.102036921367951e-12 0.5562737372526545" free_energy=-22612.84544189909 pbc="T T T"
In       1.94738325       1.72241973       2.41856491        0       0.36289263       2.38038873     -16.79623807
In       1.60991501      -0.01558056       1.86868831        1      -0.36289263       2.38038873      16.79623807
In       1.60991501       1.75358084       6.70581814        2      -0.36289263      -2.38038873     -16.79623807
In       1.94738325       3.49158112       6.15594153        3       0.36289263      -2.38038873      16.79623807
In       5.16721326       1.75358084       6.15594153        4      -0.36289263      -2.38038873      16.79623807
In       5.50468151       3.49158112       6.70581814        5       0.36289263      -2.38038873     -16.79623807
In       5.50468151       1.72241973       1.86868831        6       0.36289263       2.38038873      16.79623807
In       5.16721326      -0.01558056       2.41856491        7      -0.36289263       2.38038873     -16.79623807
O        2.98276408       2.41475390       7.60369607        8       6.90514384       4.64137630      -4.53392423
O        0.57453417       0.67675362       5.25806359        9      -6.90514384       4.64137630       4.53392423
O        0.57453417       1.06124666       3.31644285       10      -6.90514384      -4.64137630      -4.53392423
O        2.98276408       2.79924694       0.97081037       11       6.90514384      -4.64137630       4.53392423
O        4.13183243       1.06124666       0.97081037       12      -6.90514384      -4.64137630       4.53392423
O        6.54006234       2.79924694       3.31644285       13       6.90514384      -4.64137630      -4.53392423
O        6.54006234       2.41475390       5.25806359       14       6.90514384       4.64137630       4.53392423
O        4.13183243       0.67675362       7.60369607       15      -6.90514384       4.64137630      -4.53392423
O        6.06961487       2.60700042       0.00000000       16      -1.66995720       0.00000000       0.00000000
O        4.60227990       0.86900014       4.28725322       17       1.66995720       0.00000000      -0.00000000
O        1.04498165       0.86900014      -0.00000000       18       1.66995720      -0.00000000      -0.00000000
O        2.51231661       2.60700042       4.28725322       19      -1.66995720      -0.00000000      -0.00000000
20
Lattice="8.297398389176445 -2.40414972702862e-56 9.525721535597105e-42 -1.1092687760022305e-57 2.824810565737494 2.7157048841102073e-14 -2.787667044686059e-43 4.417150787447885e-14 9.047070465660063" Properties=species:S:1:pos:R:3:spacegroup_kinds:I:1:forces:R:3 spacegroup="P 1" unit_cell=conventional occupancy="_JSON {\"0\": {\"In\": 1}, \"1\": {\"In\": 1}, \"2\": {\"In\": 1}, \"3\": {\"In\": 1}, \"4\": {\"In\": 1}, \"5\": {\"In\": 1}, \"6\": {\"In\": 1}, \"7\": {\"In\": 1}, \"8\": {\"O\": 1}, \"9\": {\"O\": 1}, \"10\": {\"O\": 1}, \"11\": {\"O\": 1}, \"12\": {\"O\": 1}, \"13\": {\"O\": 1}, \"14\": {\"O\": 1}, \"15\": {\"O\": 1}, \"16\": {\"O\": 1}, \"17\": {\"O\": 1}, \"18\": {\"O\": 1}, \"19\": {\"O\": 1}}" n_minim_iter=9 energy=-22669.219060570606 stress="0.24978897552991408 -2.492618141549065e-12 1.293884670277745e-12 -2.492618141549065e-12 0.8082855266085778 2.2285616012445902e-12 1.293884670277745e-12 2.2285616012445902e-12 1.0677761584743215" free_energy=-22669.219060570606 pbc="T T T"
In       2.21576038       1.32441943       2.42732151        0      -0.89011919       0.18202159      -8.45333262
In       1.93293882      -0.08798585       2.09621373        1       0.89011919       0.18202159       8.45333262
In       1.93293882       1.50039113       6.95085674        2       0.89011919      -0.18202159      -8.45333262
In       2.21576038       2.91279642       6.61974896        3      -0.89011919      -0.18202159       8.45333262
In       6.08163801       1.50039113       6.61974896        4       0.89011919      -0.18202159       8.45333262
In       6.36445957       2.91279642       6.95085674        5      -0.89011919      -0.18202159      -8.45333262
In       6.36445957       1.32441943       2.09621373        6      -0.89011919       0.18202159       8.45333262
In       6.08163801      -0.08798585       2.42732151        7       0.89011919       0.18202159      -8.45333262
O        3.43758689       1.92998599       7.88450385        8      -1.81052218       1.61248851       4.22042057
O        0.71111231       0.51758071       5.68610185        9       1.81052218       1.61248851      -4.22042057
O        0.71111231       0.89482458       3.36096862       10       1.81052218      -1.61248851       4.22042057
O        3.43758689       2.30722986       1.16256661       11      -1.81052218      -1.61248851      -4.22042057
O        4.85981150       0.89482458       1.16256661       12       1.81052218      -1.61248851      -4.22042057
O        7.58628608       2.30722986       3.36096862       13      -1.81052218      -1.61248851       4.22042057
O        7.58628608       1.92998599       5.68610185       14      -1.81052218       1.61248851      -4.22042057
O        4.85981150       0.51758071       7.88450385       15       1.81052218       1.61248851       4.22042057
O        7.26436291       2.11860792       0.00000000       16      -2.16986722      -0.00000000       0.00000000
O        5.18173467       0.70620264       4.52353523       17       2.16986722       0.00000000      -0.00000000
O        1.03303547       0.70620264       0.00000000       18       2.16986722      -0.00000000      -0.00000000
O        3.11566372       2.11860792       4.52353523       19      -2.16986722      -0.00000000       0.00000000
20