20
Lattice="5.76543836734391 -4.645277273531304e-58 5.726466246099666e-44 3.090524316606047e-58 4.576034567197838 9.893946317126197e-17 -8.530500962024018e-43 3.8652612536936247e-16 8.524555031582299" Properties=species:S:1:pos:R:3:spacegroup_kinds:I:1:forces:R:3 spacegroup="P 1" unit_cell=conventional occupancy="_JSON {\"0\": {\"In\": 1}, \"1\": {\"In\": 1}, \"2\": {\"In\": 1}, \"3\": {\"In\": 1}, \"4\": {\"In\": 1}, \"5\": {\"In\": 1}, \"6\": {\"In\": 1}, \"7\": {\"In\": 1}, \"8\": {\"O\": 1}, \"9\": {\"O\": 1}, \"10\": {\"O\": 1}, \"11\": {\"O\": 1}, \"12\": {\"O\": 1}, \"13\": {\"O\": 1}, \"14\": {\"O\": 1}, \"15\": {\"O\": 1}, \"16\": {\"O\": 1}, \"17\": {\"O\": 1}, \"18\": {\"O\": 1}, \"19\": {\"O\": 1}}" n_minim_iter=11 energy=-22586.524170475437 stress="0.5635443873551037 -1.329700813375239e-12 5.281097148521427e-12 -1.329700813375239e-12 0.5633582781109133 5.591741903269503e-13 5.281097148521427e-12 5.591741903269503e-13 0.5635799428292126" free_energy=-22586.524170475437 pbc="T T T"
In       1.91574089       2.15733321       1.74434159        0      -0.00393553      -0.00054577       0.00073720
In       0.96697829      -0.13068408       2.51793593        1       0.00393553      -0.00054577      -0.00073720
In       0.96697829       2.41870136       6.00661910        2       0.00393553       0.00054577       0.00073720
In       1.91574089       4.70671865       6.78021345        3      -0.00393553       0.00054577      -0.00073720
In       3.84969747       2.41870136       6.78021345        4       0.00393553       0.00054577      -0.00073720
In       4.79846008       4.70671865       6.00661910        5      -0.00393553       0.00054577       0.00073720
In       4.79846008       2.15733321       2.51793593        6      -0.00393553      -0.00054577      -0.00073720
In       3.84969747      -0.13068408       1.74434159        7       0.00393553      -0.00054577       0.00073720
O        2.04635382       2.97225037       7.47275153        8       0.00053874      -0.00194047      -0.00100889
O        0.83636537       0.68423309       5.31408101        9      -0.00053874      -0.00194047       0.00100889
O        0.83636537       1.60378419       3.21047402       10      -0.00053874       0.00194047      -0.00100889
O        2.04635382       3.89180148       1.05180350       11       0.00053874       0.00194047       0.00100889
O        3.71908455       1.60378419       1.05180350       12      -0.00053874       0.00194047       0.00100889
O        4.92907300       3.89180148       3.21047402       13       0.00053874       0.00194047      -0.00100889
O        4.92907300       2.97225037       5.31408101       14       0.00053874      -0.00194047       0.00100889
O        3.71908455       0.68423309       7.47275153       15      -0.00053874      -0.00194047      -0.00100889
O        4.80958029       3.43202593      -0.00000000       16       0.00308671       0.00000000      -0.00000000
O        3.83857726       1.14400864       4.26227752       17      -0.00308671      -0.00000000       0.00000000
O        0.95585808       1.14400864      -0.00000000       18      -0.00308671       0.00000000      -0.00000000
O        1.92686110       3.43202593       4.26227752       19       0.00308671       0.00000000      -0.00000000
