20
Lattice="5.514407125530124 -3.477353718038648e-58 3.434889119646365e-42 1.2231147197779469e-58 5.514761207874741 1.9509620137587525e-16 -1.4793180014146762e-42 -1.8202161465757545e-16 7.606804711976879" Properties=species:S:1:pos:R:3:spacegroup_kinds:I:1:forces:R:3 spacegroup="P 1" unit_cell=conventional occupancy="_JSON {\"0\": {\"In\": 1}, \"1\": {\"In\": 1}, \"2\": {\"In\": 1}, \"3\": {\"In\": 1}, \"4\": {\"In\": 1}, \"5\": {\"In\": 1}, \"6\": {\"In\": 1}, \"7\": {\"In\": 1}, \"8\": {\"O\": 1}, \"9\": {\"O\": 1}, \"10\": {\"O\": 1}, \"11\": {\"O\": 1}, \"12\": {\"O\": 1}, \"13\": {\"O\": 1}, \"14\": {\"O\": 1}, \"15\": {\"O\": 1}, \"16\": {\"O\": 1}, \"17\": {\"O\": 1}, \"18\": {\"O\": 1}, \"19\": {\"O\": 1}}" n_minim_iter=10 energy=-22575.158582818214 stress="0.02703261915755983 -1.023153786473595e-12 1.13680716806945e-12 -1.023153786473595e-12 0.027091859957639505 -1.9975057693026683e-12 1.13680716806945e-12 -1.9975057693026683e-12 0.02707883041173021" free_energy=-22575.158582818214 pbc="T T T"
In       1.36328247       2.93885854       0.94297622        0       0.00479915      -0.00317225       0.00222474
In       1.39392109       0.18147794       2.86042614        1      -0.00479915      -0.00317225      -0.00222474
In       1.39392109       2.57590267       4.74637858        2      -0.00479915       0.00317225       0.00222474
In       1.36328247       5.33328327       6.66382849        3       0.00479915       0.00317225      -0.00222474
In       4.15112465       2.57590267       6.66382849        4      -0.00479915       0.00317225      -0.00222474
In       4.12048603       5.33328327       4.74637858        5       0.00479915       0.00317225       0.00222474
In       4.12048603       2.93885854       2.86042614        6       0.00479915      -0.00317225      -0.00222474
In       4.15112465       0.18147794       0.94297622        7      -0.00479915      -0.00317225       0.00222474
O        2.16499157       3.32142916       6.49338516        8      -0.00863729       0.00080420       0.00212797
O        0.59221200       0.56404856       4.91682191        9       0.00863729       0.00080420      -0.00212797
O        0.59221200       2.19333205       2.68998280       10       0.00863729      -0.00080420       0.00212797
O        2.16499157       4.95071265       1.11341956       11      -0.00863729      -0.00080420      -0.00212797
O        3.34941556       2.19333205       1.11341956       12       0.00863729      -0.00080420      -0.00212797
O        4.92219513       4.95071265       2.68998280       13      -0.00863729      -0.00080420       0.00212797
O        4.92219513       3.32142916       4.91682191       14      -0.00863729       0.00080420      -0.00212797
O        3.34941556       0.56404856       6.49338516       15       0.00863729       0.00080420       0.00212797
O        5.25211835       4.13607091      -0.00000000       16      -0.00063454      -0.00000000      -0.00000000
O        3.01949234       1.37869030       3.80340236       17       0.00063454      -0.00000000      -0.00000000
O        0.26228878       1.37869030      -0.00000000       18       0.00063454       0.00000000      -0.00000000
O        2.49491479       4.13607091       3.80340236       19      -0.00063454      -0.00000000       0.00000000
