10
Lattice="6.062610207588785 -0.014076638576100076 -0.009719721132265501 3.3149185235969836 5.076096518273361 -0.00971972113227083 3.314918523596984 1.7894035781752113 4.750251063914366" Properties=species:S:1:pos:R:3:spacegroup_kinds:I:1:forces:R:3 spacegroup="P 1" unit_cell=conventional occupancy="_JSON {\"0\": {\"In\": 1}, \"1\": {\"In\": 1}, \"2\": {\"In\": 1}, \"3\": {\"In\": 1}, \"4\": {\"O\": 1}, \"5\": {\"O\": 1}, \"6\": {\"O\": 1}, \"7\": {\"O\": 1}, \"8\": {\"O\": 1}, \"9\": {\"O\": 1}}" n_minim_iter=1 energy=-11287.458426797277 stress="0.037221759510200146 -0.0007950714901339834 -0.0005489856882026817 -0.0007950714901339834 0.038265468823945624 -0.00029634422131106483 -0.0005489856882026817 -0.00029634422131106483 0.038490029423620564" free_energy=-11287.458426797277 pbc="T T T"
In      10.88398197       5.87520814       4.05674866        0      -0.00215574      -0.00116367      -0.00080350
In       8.15468892       4.40192706       3.03946878        1       0.00215574       0.00116367       0.00080350
In       4.53775834       2.44949641       1.69134285        2      -0.00215574      -0.00116367      -0.00080350
In       1.80846529       0.97621533       0.67406297        3       0.00215574       0.00116367       0.00080350
O        6.20441692       2.37387694       0.21032244        4       0.00000000       0.00471300      -0.00682563
O        7.30337521       5.27850398       1.17298319        5      -0.00394010       0.00729913      -0.00000000
O        8.42037716       2.23394056       2.58544797        6       0.00394010      -0.00258613      -0.00682563
O        4.27207010       4.61748291       2.14536366        7      -0.00394010       0.00258613       0.00682563
O        6.48803034       4.47754653       4.52048919        8      -0.00000000      -0.00471300       0.00682563
O        5.38907206       1.57291949       3.55782844        9       0.00394010      -0.00729913      -0.00000000
