10
Lattice="5.459355236807389 -0.0050884746693740535 -0.003513520256097067 2.9914134923638214 4.566840353234872 -0.0035135202561044497 2.9914134923638205 1.614774531842525 4.271831734522294" Properties=species:S:1:pos:R:3:spacegroup_kinds:I:1:forces:R:3 spacegroup="P 1" unit_cell=conventional occupancy="_JSON {\"0\": {\"In\": 1}, \"1\": {\"In\": 1}, \"2\": {\"In\": 1}, \"3\": {\"In\": 1}, \"4\": {\"O\": 1}, \"5\": {\"O\": 1}, \"6\": {\"O\": 1}, \"7\": {\"O\": 1}, \"8\": {\"O\": 1}, \"9\": {\"O\": 1}}" n_minim_iter=1 energy=-11289.426466028937 stress="0.180650245226457 0.004142959770209948 0.0028606555019004766 0.004142959770209948 0.17521168308434462 0.0015441909519600095 0.0028606555019004766 0.0015441909519600095 0.17404154235948505" free_energy=-11289.426466028937 pbc="T T T"
In       9.78211327       5.28041590       3.64605298        0      -0.12758695      -0.06887184      -0.04755504
In       7.38116008       3.98437372       2.75115407        1       0.12758695       0.06887184       0.04755504
In       4.06102215       2.19215270       1.51365063        2      -0.12758695      -0.06887184      -0.04755504
In       1.66006896       0.89611052       0.61875172        3       0.12758695       0.06887184       0.04755504
O        5.59022318       2.12072313       0.22570793        4       0.00000000      -0.25940103       0.37567894
O        6.60176954       4.72192775       1.06268766        5       0.21686055      -0.40174004       0.00000000
O        7.57009031       2.03119019       2.36162379        6      -0.21686055       0.14233901       0.37567894
O        3.87209192       4.14533623       1.90318090        7       0.21686055      -0.14233901      -0.37567894
O        5.85195905       4.05580329       4.03909677        8       0.00000000       0.25940103      -0.37567894
O        4.84041269       1.45459867       3.20211704        9      -0.21686055       0.40174004      -0.00000000
10
Lattice="5.451040275131191 -0.013690655902008032 -0.009453205519620402 2.97965942484755 4.56460920858276 -0.009453205519627784 2.979659424847549 1.6084296487565592 4.271849793142779" Properties=species:S:1:pos:R:3:spacegroup_kinds:I:1:forces:R:3 spacegroup="P 1" unit_cell=conventional occupancy="_JSON {\"0\": {\"In\": 1}, \"1\": {\"In\": 1}, \"2\": {\"In\": 1}, \"3\": {\"In\": 1}, \"4\": {\"O\": 1}, \"5\": {\"O\": 1}, \"6\": {\"O\": 1}, \"7\": {\"O\": 1}, \"8\": {\"O\": 1}, \"9\": {\"O\": 1}}" n_minim_iter=2 energy=-11289.43051620695 stress="0.17448597995373238 -0.004897065025733806 -0.0033813545827640168 -0.004897065025733806 0.1809144740567728 -0.001825265981494437 -0.0033813545827640168 -0.001825265981494437 0.1822976048486437" free_energy=-11289.43051620695 pbc="T T T"
In       9.75445309       5.26548485       3.63574330        0      -0.00814806      -0.00439835      -0.00303700
In       7.36108561       3.97353746       2.74367178        1       0.00814806       0.00439835       0.00303700
In       4.04927353       2.18581075       1.50927161        2      -0.00814806      -0.00439835      -0.00303700
In       1.65590605       0.89386336       0.61720009        3       0.00814806       0.00439835       0.00303700
O        5.57810992       2.11200745       0.21994659        4      -0.00000000      -0.22473652       0.32547588
O        6.58387960       4.71203064       1.05378264        5       0.18788085      -0.34805436       0.00000000
O        7.55199967       2.01948797       2.35587149        6      -0.18788085       0.12331784       0.32547588
O        3.85835946       4.13986024       1.89707190        7       0.18788085      -0.12331784      -0.32547588
O        5.83224921       4.04734076       4.03299679        8       0.00000000       0.22473652      -0.32547588
O        4.82647953       1.44731758       3.19916074        9      -0.18788085       0.34805436      -0.00000000
10
Lattice="5.457668840928983 -0.006831352329223432 -0.004716952789354905 2.989031075691742 4.566386872919426 -0.004716952789362283 2.98903107569174 1.6134884957341349 4.271834055408529" Properties=species:S:1:pos:R:3:spacegroup_kinds:I:1:forces:R:3 spacegroup="P 1" unit_cell=conventional occupancy="_JSON {\"0\": {\"In\": 1}, \"1\": {\"In\": 1}, \"2\": {\"In\": 1}, \"3\": {\"In\": 1}, \"4\": {\"O\": 1}, \"5\": {\"O\": 1}, \"6\": {\"O\": 1}, \"7\": {\"O\": 1}, \"8\": {\"O\": 1}, \"9\": {\"O\": 1}}" n_minim_iter=3 energy=-11289.452197626908 stress="0.18998668265043056 -0.0017667286913702293 -0.0012199013372045358 -0.0017667286913702293 0.1923059095684296 -0.0006585066289785294 -0.0012199013372045358 -0.0006585066289785294 0.19280490576395745" free_energy=-11289.452197626908 pbc="T T T"
In       9.77422539       5.27615800       3.64311296        0      -0.14514517      -0.07834983      -0.05409945
In       7.37937111       3.98340803       2.75048727        1       0.14514517       0.07834983       0.05409945
In       4.05635989       2.18963599       1.51191288        2      -0.14514517      -0.07834983      -0.05409945
In       1.66150562       0.89688603       0.61928720        3       0.14514517       0.07834983       0.05409945
O        5.58776717       2.11132192       0.23559751        4       0.00000000      -0.07135136       0.10333500
O        6.60452544       4.70809704       1.06088309        5       0.05965010      -0.11050342      -0.00000000
O        7.56003999       2.03300789       2.37151454        6      -0.05965010       0.03915205       0.10333500
O        3.87569101       4.14003613       1.89088561        7       0.05965010      -0.03915205      -0.10333500
O        5.84796383       4.06172211       4.02680264        8      -0.00000000       0.07135136      -0.10333500
O        4.83120557       1.46494698       3.20151707        9      -0.05965010       0.11050342       0.00000000
10
Lattice="5.464421604014409 0.00014218964810274506 9.817995397167634e-05 2.99856638017659 4.568205681699545 9.81799539643099e-05 2.998566380176589 1.6186356834682285 4.2718288453722755" Properties=species:S:1:pos:R:3:spacegroup_kinds:I:1:forces:R:3 spacegroup="P 1" unit_cell=conventional occupancy="_JSON {\"0\": {\"In\": 1}, \"1\": {\"In\": 1}, \"2\": {\"In\": 1}, \"3\": {\"In\": 1}, \"4\": {\"O\": 1}, \"5\": {\"O\": 1}, \"6\": {\"O\": 1}, \"7\": {\"O\": 1}, \"8\": {\"O\": 1}, \"9\": {\"O\": 1}}" n_minim_iter=4 energy=-11289.459718981727 stress="0.19966988804558777 -0.0003285255372119977 -0.000226842263140957 -0.0003285255372119977 0.20010115135890888 -0.00012245018472750943 -0.000226842263140957 -0.00012245018472750943 0.20019394036641588" free_energy=-11289.459718981727 pbc="T T T"
In       9.79173898       5.28561189       3.64964074        0      -0.14859560      -0.08021238      -0.05538552
In       7.40059258       3.99486345       2.75839707        1       0.14859560       0.08021238       0.05538552
In       4.06096180       2.19212012       1.51362814        2      -0.14859560      -0.08021238      -0.05538552
In       1.66981539       0.90137167       0.62238447        3       0.14859560       0.08021238       0.05538552
O        5.59759940       2.11295603       0.24814147        4      -0.00000000       0.00007300      -0.00010572
O        6.62358753       4.70771173       1.06810448        5      -0.00006103       0.00011306      -0.00000000
O        7.57017765       2.04548197       2.38405589        6       0.00006103      -0.00004006      -0.00010572
O        3.89137672       4.14150159       1.88796932        7      -0.00006103       0.00004006       0.00010572
O        5.86395498       4.07402753       4.02388374        8      -0.00000000      -0.00007300       0.00010572
O        4.83796685       1.47927183       3.20392073        9       0.00006103      -0.00011306      -0.00000000
10
Lattice="5.470026302145196 0.005919270315881455 0.004087172975696649 3.0064714687205667 4.569721226912049 0.004087172975689296 3.0064714687205663 1.62290287544465 4.271832751120641" Properties=species:S:1:pos:R:3:spacegroup_kinds:I:1:forces:R:3 spacegroup="P 1" unit_cell=conventional occupancy="_JSON {\"0\": {\"In\": 1}, \"1\": {\"In\": 1}, \"2\": {\"In\": 1}, \"3\": {\"In\": 1}, \"4\": {\"O\": 1}, \"5\": {\"O\": 1}, \"6\": {\"O\": 1}, \"7\": {\"O\": 1}, \"8\": {\"O\": 1}, \"9\": {\"O\": 1}}" n_minim_iter=5 energy=-11289.462742649988 stress="0.20449371792115068 -0.00028770049359487423 -0.00019865314608328002 -0.00028770049359487423 0.2048713892182634 -0.00010723360131634965 -0.00019865314608328002 -0.00010723360131634965 0.20495264756189305" free_energy=-11289.462742649988 pbc="T T T"
In       9.80500734       5.29277420       3.65458621        0      -0.08894125      -0.04801077      -0.03315076
In       7.41944653       4.00504087       2.76542444        1       0.08894125       0.04801077       0.03315076
In       4.06352272       2.19350251       1.51458266        2      -0.08894125      -0.04801077      -0.03315076
In       1.67796191       0.90576919       0.62542089        3       0.08894125       0.04801077       0.03315076
O        5.60575547       2.11562934       0.25662854        4       0.00000000       0.02142763      -0.03103268
O        6.63829209       4.70943894       1.07408895        5      -0.01791360       0.03318544       0.00000000
O        7.57969031       2.05509794       2.39254491        6       0.01791360      -0.01175781      -0.03103268
O        3.90327893       4.14344544       1.88746219        7      -0.01791360       0.01175781       0.03103268
O        5.87721378       4.08291404       4.02337856        8      -0.00000000      -0.02142763       0.03103268
O        4.84467716       1.48910445       3.20591815        9       0.01791360      -0.03318544      -0.00000000
10
Lattice="5.474355334591663 0.010374752907436953 0.007163621096848767 3.012571709054934 4.570895498988353 0.007163621096841412 3.012571709054934 1.626195804608472 4.27184084268281" Properties=species:S:1:pos:R:3:spacegroup_kinds:I:1:forces:R:3 spacegroup="P 1" unit_cell=conventional occupancy="_JSON {\"0\": {\"In\": 1}, \"1\": {\"In\": 1}, \"2\": {\"In\": 1}, \"3\": {\"In\": 1}, \"4\": {\"O\": 1}, \"5\": {\"O\": 1}, \"6\": {\"O\": 1}, \"7\": {\"O\": 1}, \"8\": {\"O\": 1}, \"9\": {\"O\": 1}}" n_minim_iter=6 energy=-11289.463799658963 stress="0.2064297774158557 -0.0001614353051587482 -0.00011146880643868434 -0.0001614353051587482 0.2066416973963827 -6.017121589625885e-05 -0.00011146880643868434 -6.017121589625885e-05 0.20668729330319688" free_energy=-11289.463799658963 pbc="T T T"
In       9.81524418       5.29830008       3.65840175        0      -0.02541401      -0.01371857      -0.00947248
In       7.43400396       4.01289902       2.77085038        1       0.02541401       0.01371857       0.00947248
In       4.06549480       2.19456705       1.51531771        2      -0.02541401      -0.01371857      -0.00947248
In       1.68425458       0.90916599       0.62776634        3       0.02541401       0.01371857       0.00947248
O        5.61205236       2.11879800       0.26157490        4       0.00000000       0.01498569      -0.02170311
O        6.64871734       4.71248702       1.07870564        5      -0.01252811       0.02320866      -0.00000000
O        7.58795909       2.06191053       2.39749532        6       0.01252811      -0.00822298      -0.02170311
O        3.91153967       4.14555553       1.88867277        7      -0.01252811       0.00822298       0.02170311
O        5.88744640       4.08866806       4.02459319        8      -0.00000000      -0.01498569       0.02170311
O        4.85078142       1.49497905       3.20746244        9       0.01252811      -0.02320866       0.00000000
10
Lattice="5.475463146523566 0.011513990095353305 0.007950248366575822 3.0141319976318908 4.571196510953924 0.007950248366568472 3.014131997631891 1.627038053352361 4.271843620867896" Properties=species:S:1:pos:R:3:spacegroup_kinds:I:1:forces:R:3 spacegroup="P 1" unit_cell=conventional occupancy="_JSON {\"0\": {\"In\": 1}, \"1\": {\"In\": 1}, \"2\": {\"In\": 1}, \"3\": {\"In\": 1}, \"4\": {\"O\": 1}, \"5\": {\"O\": 1}, \"6\": {\"O\": 1}, \"7\": {\"O\": 1}, \"8\": {\"O\": 1}, \"9\": {\"O\": 1}}" n_minim_iter=7 energy=-11289.463926963905 stress="0.20632830688595127 -3.3614044780568826e-06 -2.3210036605764525e-06 -3.3614044780568826e-06 0.20633271948721194 -1.2528906204943652e-06 -2.3210036605764525e-06 -1.2528906204943652e-06 0.20633366888372562" free_energy=-11289.463926963905 pbc="T T T"
In       9.81790884       5.29973847       3.65939494        0      -0.00332938      -0.00179721      -0.00124095
In       7.43768188       4.01488437       2.77222124        1       0.00332938       0.00179721       0.00124095
In       4.06604527       2.19486419       1.51552288        2      -0.00332938      -0.00179721      -0.00124095
In       1.68581831       0.91001010       0.62834918        3       0.00332938       0.00179721       0.00124095
O        5.61366336       2.12006287       0.26218174        4      -0.00000000       0.00443280      -0.00641983
O        6.65100430       4.71397077       1.07988628        5      -0.00370584       0.00686518       0.00000000
O        7.59045442       2.06340352       2.39810355        6       0.00370584      -0.00243237      -0.00641983
O        3.91327273       4.14634505       1.88964058        7      -0.00370584       0.00243237       0.00641983
O        5.89006379       4.08968570       4.02556239        8      -0.00000000      -0.00443280       0.00641983
O        4.85272285       1.49577779       3.20785784        9       0.00370584      -0.00686518       0.00000000
