10
Lattice="5.685789535408948 0.002789985693597176 0.0019264459166310824 3.122249370792744 4.751817472459393 0.0019264459166260831 3.1222493707927397 1.6854001557750107 4.442881870776874" Properties=species:S:1:pos:R:3:spacegroup_kinds:I:1:forces:R:3 spacegroup="P 1" unit_cell=conventional occupancy="_JSON {\"0\": {\"In\": 1}, \"1\": {\"In\": 1}, \"2\": {\"In\": 1}, \"3\": {\"In\": 1}, \"4\": {\"O\": 1}, \"5\": {\"O\": 1}, \"6\": {\"O\": 1}, \"7\": {\"O\": 1}, \"8\": {\"O\": 1}, \"9\": {\"O\": 1}}" n_minim_iter=5 energy=-11287.73526118752 stress="0.02123315935468853 8.14961971183648e-05 5.627197774013244e-05 8.14961971183648e-05 0.02112617734844969 3.037579315403845e-05 5.627197774013244e-05 3.037579315403845e-05 0.021103159499876078" free_energy=-11287.73526118752 pbc="T T T"
In      10.21603451       5.51464797       3.80778693        0      -0.00355634      -0.00191972      -0.00132554
In       7.67939791       4.14536346       2.86231522        1       0.00355634       0.00191972       0.00132554
In       4.25089037       2.29464417       1.58441955        2      -0.00355634      -0.00191972      -0.00132554
In       1.71425377       0.92535965       0.63894783        3       0.00355634       0.00191972       0.00132554
O        5.82546684       2.23250004       0.21313095        4      -0.00000000       0.00317961      -0.00460489
O        6.86734621       4.94922163       1.11361014        5      -0.00265817       0.00492434      -0.00000000
O        7.90583684       2.11328412       2.43457189        6       0.00265817      -0.00174472      -0.00460489
O        4.02445144       4.32672350       2.01216288        7      -0.00265817       0.00174472       0.00460489
O        6.10482144       4.20750759       4.23360382        8      -0.00000000      -0.00317961       0.00460489
O        5.06294208       1.49078599       3.33312463        9       0.00265817      -0.00492434       0.00000000
