10
Lattice="5.737955656076966 0.0028155833224661037 0.0019441207196679413 3.150895460560592 4.795414563438048 0.0019441207196628963 3.1508954605605877 1.7008634062791874 4.483644531853463" Properties=species:S:1:pos:R:3:spacegroup_kinds:I:1:forces:R:3 spacegroup="P 1" unit_cell=conventional occupancy="_JSON {\"0\": {\"In\": 1}, \"1\": {\"In\": 1}, \"2\": {\"In\": 1}, \"3\": {\"In\": 1}, \"4\": {\"O\": 1}, \"5\": {\"O\": 1}, \"6\": {\"O\": 1}, \"7\": {\"O\": 1}, \"8\": {\"O\": 1}, \"9\": {\"O\": 1}}" n_minim_iter=5 energy=-11287.73526118752 stress="0.02123315935468853 8.14961971183648e-05 5.627197774013244e-05 8.14961971183648e-05 0.02112617734844969 3.037579315403845e-05 5.627197774013244e-05 3.037579315403845e-05 0.021103159499876078" free_energy=-11287.73526118752 pbc="T T T"
In      10.30976483       5.56524390       3.84272271        0      -0.00355634      -0.00191972      -0.00132554
In       7.74985504       4.18339644       2.88857646        1       0.00355634       0.00191972       0.00132554
In       4.28989155       2.31569712       1.59895632        2      -0.00355634      -0.00191972      -0.00132554
In       1.72998175       0.93384966       0.64481007        3       0.00355634       0.00191972       0.00132554
O        5.87891448       2.25298283       0.21508639        4      -0.00000000       0.00317961      -0.00460489
O        6.93035291       4.99462987       1.12382732        5      -0.00265817       0.00492434      -0.00000000
O        7.97837151       2.13267313       2.45690866        6       0.00265817      -0.00174472      -0.00460489
O        4.06137508       4.36642043       2.03062412        7      -0.00265817       0.00174472       0.00460489
O        6.16083211       4.24611073       4.27244639        8      -0.00000000      -0.00317961       0.00460489
O        5.10939368       1.50446369       3.36370546        9       0.00265817      -0.00492434       0.00000000
