10
Lattice="6.019052042655099 -0.011150345429851133 -0.007699156834972715 3.293463602593345 5.03807595424946 -0.007699156834978433 3.2934636025933455 1.777822143476264 4.7139810165048415" Properties=species:S:1:pos:R:3:spacegroup_kinds:I:1:forces:R:3 spacegroup="P 1" unit_cell=conventional occupancy="_JSON {\"0\": {\"In\": 1}, \"1\": {\"In\": 1}, \"2\": {\"In\": 1}, \"3\": {\"In\": 1}, \"4\": {\"O\": 1}, \"5\": {\"O\": 1}, \"6\": {\"O\": 1}, \"7\": {\"O\": 1}, \"8\": {\"O\": 1}, \"9\": {\"O\": 1}}" n_minim_iter=1 energy=-11287.569699504618 stress="0.0293459517449658 0.0005078241249300668 0.0003506454200670011 0.0005078241249300668 0.028679318900078965 0.00018927951236687962 0.0003506454200670011 0.00018927951236687962 0.028535888668621924" free_energy=-11287.569699504618 pbc="T T T"
In      10.80877197       5.83460954       4.02871590        0       0.01355424       0.00731662       0.00505202
In       8.10019691       4.37251210       3.01915816        1      -0.01355424      -0.00731662      -0.00505202
In       4.50578235       2.43223567       1.67942455        2       0.01355424       0.00731662       0.00505202
In       1.79720728       0.97013822       0.66986681        3      -0.01355424      -0.00731662      -0.00505202
O        6.16102084       2.35856224       0.21067451        4      -0.00000000      -0.00327342       0.00474075
O        7.25352274       5.24137562       1.16694652        5       0.00273660      -0.00506962       0.00000000
O        8.36198253       2.22074744       2.56766502        6      -0.00273660       0.00179620       0.00474075
O        4.24399672       4.58400032       2.13091769        7       0.00273660      -0.00179620      -0.00474075
O        6.44495842       4.44618553       4.48790820        8       0.00000000       0.00327342      -0.00474075
O        5.35245651       1.56337215       3.53163619        9      -0.00273660       0.00506962      -0.00000000
10
Lattice="6.016276781384471 -0.014023187477962124 -0.009682813900097115 3.2895390458312748 5.037332213182335 -0.009682813900102834 3.2895390458312743 1.7757036552350567 4.713988344452527" Properties=species:S:1:pos:R:3:spacegroup_kinds:I:1:forces:R:3 spacegroup="P 1" unit_cell=conventional occupancy="_JSON {\"0\": {\"In\": 1}, \"1\": {\"In\": 1}, \"2\": {\"In\": 1}, \"3\": {\"In\": 1}, \"4\": {\"O\": 1}, \"5\": {\"O\": 1}, \"6\": {\"O\": 1}, \"7\": {\"O\": 1}, \"8\": {\"O\": 1}, \"9\": {\"O\": 1}}" n_minim_iter=2 energy=-11287.569784561974 stress="0.02897607044855984 -2.4703283397022836e-05 -1.7057270370461665e-05 -2.4703283397022836e-05 0.0290084990394842 -9.20757101744019e-06 -1.7057270370461665e-05 -9.20757101744019e-06 0.029015476252270248" free_energy=-11287.569784561974 pbc="T T T"
In      10.79975113       5.82974006       4.02535359        0       0.01300189       0.00701846       0.00484615
In       8.09328119       4.36877897       3.01658049        1      -0.01300189      -0.00701846      -0.00484615
In       4.50207369       2.43023372       1.67804223        2       0.01300189       0.00701846       0.00484615
In       1.79560375       0.96927263       0.66926913        3      -0.01300189      -0.00701846      -0.00484615
O        6.15697711       2.35595011       0.20831894        4       0.00000000      -0.00325649       0.00471622
O        7.24730100       5.23853323       1.16397287        5       0.00272244      -0.00504339      -0.00000000
O        8.35619227       2.21667640       2.56531311        6      -0.00272244       0.00178691       0.00471622
O        4.23916261       4.58233629       2.12930961        7       0.00272244      -0.00178691      -0.00471622
O        6.43837777       4.44306258       4.48630378        8      -0.00000000       0.00325649      -0.00471622
O        5.34805388       1.56047946       3.53064985        9      -0.00272244       0.00504339       0.00000000
10
Lattice="6.0163289354804155 -0.013969179129094584 -0.009645521894127885 3.2896128151719846 5.03734617870568 -0.0096455218941336 3.289612815171984 1.7757434761601516 4.713988191233399" Properties=species:S:1:pos:R:3:spacegroup_kinds:I:1:forces:R:3 spacegroup="P 1" unit_cell=conventional occupancy="_JSON {\"0\": {\"In\": 1}, \"1\": {\"In\": 1}, \"2\": {\"In\": 1}, \"3\": {\"In\": 1}, \"4\": {\"O\": 1}, \"5\": {\"O\": 1}, \"6\": {\"O\": 1}, \"7\": {\"O\": 1}, \"8\": {\"O\": 1}, \"9\": {\"O\": 1}}" n_minim_iter=3 energy=-11287.569836180117 stress="0.029005011363262393 -1.351568008233132e-06 -9.332337572692371e-07 -1.351568008233132e-06 0.02900678559708958 -5.037649093124186e-07 -9.332337572692371e-07 -5.037649093124186e-07 0.029007167332343205" free_energy=-11287.569836180117 pbc="T T T"
In      10.80089490       5.83035747       4.02577991        0       0.00327152       0.00176598       0.00121938
In       8.09243696       4.36832325       3.01626582        1      -0.00327152      -0.00176598      -0.00121938
In       4.50311762       2.43079724       1.67843133        2       0.00327152       0.00176598       0.00121938
In       1.79465968       0.96876301       0.66891725        3      -0.00327152      -0.00176598      -0.00121938
O        6.15705311       2.35575503       0.20871686        4       0.00000000       0.00047958      -0.00069455
O        7.24762208       5.23820848       1.16402877        5      -0.00040093       0.00074273      -0.00000000
O        8.35609697       2.21688691       2.56571096        6       0.00040093      -0.00026316      -0.00069455
O        4.23945761       4.58223357       2.12898620        7      -0.00040093       0.00026316       0.00069455
O        6.43850146       4.44336546       4.48598029        8       0.00000000      -0.00047958       0.00069455
O        5.34793250       1.56091201       3.53066838        9       0.00040093      -0.00074273      -0.00000000
