10
Lattice="5.87940641 1.8936522339830572e-15 1.1129488109227956e-15 3.226158737651723 4.9152130710094895 4.468149961477016e-16 3.226158737651722 1.7414907629919851 4.596360457561627" Properties=species:S:1:pos:R:3:spacegroup_kinds:I:1:forces:R:3 spacegroup="P 1" unit_cell=conventional occupancy="_JSON {\"0\": {\"In\": 1}, \"1\": {\"In\": 1}, \"2\": {\"In\": 1}, \"3\": {\"In\": 1}, \"4\": {\"O\": 1}, \"5\": {\"O\": 1}, \"6\": {\"O\": 1}, \"7\": {\"O\": 1}, \"8\": {\"O\": 1}, \"9\": {\"O\": 1}}" n_minim_iter=1 energy=-11287.687995109587 stress="-0.0010452991305888693 -0.00043523002204020857 -0.00030052020715598706 -0.00043523002204020857 -0.00047396229039387504 -0.0001622217634272591 -0.00030052020715598706 -0.0001622217634272591 -0.00035103559437760625" free_energy=-11287.687995109587 pbc="T T T"
In      10.57093869       5.70622638       3.94006913        0       0.00351550       0.00189768       0.00131032
In       7.92664715       4.27882938       2.95447156        1      -0.00351551      -0.00189768      -0.00131032
In       4.40507675       2.37787446       1.64188890        2       0.00351550       0.00189768       0.00131032
In       1.76078520       0.95047747       0.65629133        3      -0.00351551      -0.00189768      -0.00131032
O        6.02263418       2.30932706       0.21474656        4       0.00000000       0.01454544      -0.02106552
O        7.09636402       5.12094210       1.14909012        5      -0.01216006       0.02252685      -0.00000000
O        8.17506308       2.18091285       2.51292679        6       0.01216006      -0.00798140      -0.02106552
O        4.15666081       4.47579100       2.08343367        7      -0.01216006       0.00798140       0.02106552
O        6.30908971       4.34737678       4.38161390        8      -0.00000000      -0.01454544       0.02106552
O        5.23535988       1.53576175       3.44727035        9       0.01216006      -0.02252685      -0.00000000
10
Lattice="5.886784808574173 0.003072722066967685 0.0021216714094363072 3.232776237103861 4.919695379278798 0.0021216714094356485 3.23277623710386 1.7450629102752246 4.599800274530245" Properties=species:S:1:pos:R:3:spacegroup_kinds:I:1:forces:R:3 spacegroup="P 1" unit_cell=conventional occupancy="_JSON {\"0\": {\"In\": 1}, \"1\": {\"In\": 1}, \"2\": {\"In\": 1}, \"3\": {\"In\": 1}, \"4\": {\"O\": 1}, \"5\": {\"O\": 1}, \"6\": {\"O\": 1}, \"7\": {\"O\": 1}, \"8\": {\"O\": 1}, \"9\": {\"O\": 1}}" n_minim_iter=2 energy=-11287.688174812858 stress="5.2660623134233226e-05 0.0003588185556123001 0.00024775917225550517 0.0003588185556123001 -0.0004183690556032875 0.00013374118954847714 0.00024775917225550517 0.00013374118954847714 -0.0005197140412034754" free_energy=-11287.688174812858 pbc="T T T"
In      10.58864061       5.71578193       3.94666710        0      -0.00195357      -0.00105454      -0.00072815
In       7.93986533       4.28596460       2.95939833        1       0.00195357       0.00105454       0.00072815
In       4.41247197       2.38186643       1.64464529        2      -0.00195357      -0.00105454      -0.00072815
In       1.76369669       0.95204909       0.65737652        3       0.00195357       0.00105454       0.00072815
O        6.03147673       2.31396164       0.21726993        4      -0.00000000       0.01152516      -0.01669137
O        7.10825079       5.12799145       1.15313258        5      -0.00963509       0.01784927      -0.00000000
O        8.18747891       2.18684345       2.51717007        6       0.00963509      -0.00632411      -0.01669137
O        4.16485838       4.48098758       2.08687356        7      -0.00963509       0.00632411       0.01669137
O        6.32086056       4.35386939       4.38677369        8      -0.00000000      -0.01152516       0.01669137
O        5.24408651       1.53983957       3.45091104        9       0.00963509      -0.01784927      -0.00000000
10
Lattice="5.891353038281187 0.0012126249727207035 0.0008373005038911906 3.233727874096394 4.924535118000103 0.000837300503890524 3.233727874096393 1.7455766069550798 4.604781117353966" Properties=species:S:1:pos:R:3:spacegroup_kinds:I:1:forces:R:3 spacegroup="P 1" unit_cell=conventional occupancy="_JSON {\"0\": {\"In\": 1}, \"1\": {\"In\": 1}, \"2\": {\"In\": 1}, \"3\": {\"In\": 1}, \"4\": {\"O\": 1}, \"5\": {\"O\": 1}, \"6\": {\"O\": 1}, \"7\": {\"O\": 1}, \"8\": {\"O\": 1}, \"9\": {\"O\": 1}}" n_minim_iter=3 energy=-11287.688292792916 stress="8.630437207041038e-05 -4.202017068806075e-05 -2.9014337704869298e-05 -4.202017068806075e-05 0.0001414652474528052 -1.5662030440653003e-05 -2.9014337704869298e-05 -1.5662030440653003e-05 0.00015333345779900838" free_energy=-11287.688292792916 pbc="T T T"
In      10.59418236       5.71877339       3.94873266        0       0.00822501       0.00443988       0.00306568
In       7.94403083       4.28821315       2.96095092        1      -0.00822501      -0.00443988      -0.00306568
In       4.41477797       2.38311121       1.64550480        2       0.00822501       0.00443988       0.00306568
In       1.76462643       0.95255097       0.65772306        3      -0.00822501      -0.00443988      -0.00306568
O        6.03537872       2.31504100       0.21558543        4       0.00000000       0.00827083      -0.01197828
O        7.11167883       5.13211408       1.15245123        5      -0.00691446       0.01280922      -0.00000000
O        8.19280649       2.18642019       2.51797599        6       0.00691446      -0.00453839      -0.01197828
O        4.16600231       4.48490417       2.08847973        7      -0.00691446       0.00453839       0.01197828
O        6.32343008       4.35628336       4.39087029        8      -0.00000000      -0.00827083       0.01197828
O        5.24712997       1.53921028       3.45400449        9       0.00691446      -0.01280922      -0.00000000
10
Lattice="5.887677610714179 0.0015021711848727567 0.0010372280946868938 3.231953148774543 4.921303561897964 0.0010372280946862368 3.2319531487745414 1.7446186045732441 4.601688358501543" Properties=species:S:1:pos:R:3:spacegroup_kinds:I:1:forces:R:3 spacegroup="P 1" unit_cell=conventional occupancy="_JSON {\"0\": {\"In\": 1}, \"1\": {\"In\": 1}, \"2\": {\"In\": 1}, \"3\": {\"In\": 1}, \"4\": {\"O\": 1}, \"5\": {\"O\": 1}, \"6\": {\"O\": 1}, \"7\": {\"O\": 1}, \"8\": {\"O\": 1}, \"9\": {\"O\": 1}}" n_minim_iter=4 energy=-11287.688370922231 stress="-4.2604955328996724e-05 0.00010637279430977616 7.34489182359443e-05 0.00010637279430977616 -0.00018224305271061442 3.964796109541236e-05 7.34489182359443e-05 3.964796109541236e-05 -0.00021228705947823687" free_energy=-11287.688370922231 pbc="T T T"
In      10.58849951       5.71570577       3.94661451        0       0.00245216       0.00132368       0.00091398
In       7.93887636       4.28543075       2.95902971        1      -0.00245216      -0.00132368      -0.00091398
In       4.41270756       2.38199360       1.64473311        2       0.00245216       0.00132368       0.00091398
In       1.76308441       0.95171858       0.65714831        3      -0.00245216      -0.00132368      -0.00091398
O        6.03173479       2.31437859       0.21476912        4      -0.00000000       0.00305723      -0.00442765
O        7.10700723       5.12992798       1.15197793        5      -0.00255586       0.00473479      -0.00000000
O        8.18841549       2.18501887       2.51561330        6       0.00255586      -0.00167757      -0.00442765
O        4.16316843       4.48240548       2.08814952        7      -0.00255586       0.00167757       0.00442765
O        6.31984913       4.35304576       4.38899369        8       0.00000000      -0.00305723       0.00442765
O        5.24457669       1.53749637       3.45178489        9       0.00255586      -0.00473479      -0.00000000
