10
Lattice="5.521320283390971 0.0007218006649536208 0.0004983932164312257 3.0302724862488954 4.615455216104225 0.0004983932164218998 3.030272486248893 1.635750740520739 4.3158714780615695" Properties=species:S:1:pos:R:3:spacegroup_kinds:I:1:forces:R:3 spacegroup="P 1" unit_cell=conventional occupancy="_JSON {\"0\": {\"In\": 1}, \"1\": {\"In\": 1}, \"2\": {\"In\": 1}, \"3\": {\"In\": 1}, \"4\": {\"O\": 1}, \"5\": {\"O\": 1}, \"6\": {\"O\": 1}, \"7\": {\"O\": 1}, \"8\": {\"O\": 1}, \"9\": {\"O\": 1}}" n_minim_iter=1 energy=-11288.856789718113 stress="0.1536002779293196 0.0073192162157451335 0.005053815947405384 0.0073192162157451335 0.14399216816393207 0.0027280659451630325 0.005053815947405384 0.0027280659451630325 0.1419249231395548" free_energy=-11288.856789718113 pbc="T T T"
In       9.90536402       5.34694705       3.69199180        0      -0.06396494      -0.03452848      -0.02384143
In       7.46743388       4.03094460       2.78331060        1       0.06396494       0.03452848       0.02384143
In       4.11443139       2.22098317       1.53355767        2      -0.06396494      -0.03452848      -0.02384143
In       1.67650125       0.90498072       0.62487647        3       0.06396494       0.03452848       0.02384143
O        5.65612646       2.15480856       0.22287285        4      -0.00000000      -0.14706655       0.21298993
O        6.67679441       4.78708633       1.07971546        5       0.12294837      -0.22776518       0.00000000
O        7.66573099       2.05666805       2.38080858        6      -0.12294837       0.08069863       0.21298993
O        3.91613427       4.19525971       1.93605968        7       0.12294837      -0.08069863      -0.21298993
O        5.92573880       4.09711920       4.09399542        8      -0.00000000       0.14706655      -0.21298993
O        4.90507085       1.46484143       3.23715281        9      -0.12294837       0.22776518      -0.00000000
10
Lattice="5.511039789063613 -0.00989856607887367 -0.006834820783084588 3.015752674879067 4.612688298835344 -0.006834820783093922 3.0157526748790646 1.6279129000927912 4.315882255889182" Properties=species:S:1:pos:R:3:spacegroup_kinds:I:1:forces:R:3 spacegroup="P 1" unit_cell=conventional occupancy="_JSON {\"0\": {\"In\": 1}, \"1\": {\"In\": 1}, \"2\": {\"In\": 1}, \"3\": {\"In\": 1}, \"4\": {\"O\": 1}, \"5\": {\"O\": 1}, \"6\": {\"O\": 1}, \"7\": {\"O\": 1}, \"8\": {\"O\": 1}, \"9\": {\"O\": 1}}" n_minim_iter=2 energy=-11288.86103645854 stress="0.1481783043059036 -0.0006722789862263363 -0.0004641991938222907 -0.0006722789862263363 0.14906082098217363 -0.00025057619293244885 -0.0004641991938222907 -0.00025057619293244885 0.14925069996859439" free_energy=-11288.86103645854 pbc="T T T"
In       9.87158309       5.32871200       3.67940076        0       0.04850471       0.02618300       0.01807899
In       7.44223462       4.01734196       2.77391817        1      -0.04850471      -0.02618300      -0.01807899
In       4.10031052       2.21336068       1.52829445        2       0.04850471       0.02618300       0.01807899
In       1.67096205       0.90199064       0.62281186        3      -0.04850471      -0.02618300      -0.01807899
O        5.64115618       2.14484629       0.21459489        4       0.00000000      -0.13495046       0.19544273
O        6.65401732       4.77609958       1.06871833        5       0.11281925      -0.20900072       0.00000000
O        7.64404772       2.04177370       2.37253601        6      -0.11281925       0.07405026       0.19544273
O        3.89849743       4.18892894       1.92967660        7       0.11281925      -0.07405026      -0.19544273
O        5.90138896       4.08585635       4.08761773        8      -0.00000000       0.13495046      -0.19544273
O        4.88852783       1.45460307       3.23349428        9      -0.11281925       0.20900072      -0.00000000
10
Lattice="5.510749946316035 -0.0101984700764973 -0.007041900279201091 3.0153429105944096 4.612610552728483 -0.007041900279210418 3.0153429105944083 1.627691708026696 4.315882922777544" Properties=species:S:1:pos:R:3:spacegroup_kinds:I:1:forces:R:3 spacegroup="P 1" unit_cell=conventional occupancy="_JSON {\"0\": {\"In\": 1}, \"1\": {\"In\": 1}, \"2\": {\"In\": 1}, \"3\": {\"In\": 1}, \"4\": {\"O\": 1}, \"5\": {\"O\": 1}, \"6\": {\"O\": 1}, \"7\": {\"O\": 1}, \"8\": {\"O\": 1}, \"9\": {\"O\": 1}}" n_minim_iter=3 energy=-11288.86779300838 stress="0.15399386104453278 -0.000232423238454318 -0.0001604849795038749 -0.000232423238454318 0.15429896857749728 -8.663030555828984e-05 -0.0001604849795038749 -8.663030555828984e-05 0.15436461437513385" free_energy=-11288.86779300838 pbc="T T T"
In       9.87213120       5.32900787       3.67960505        0      -0.05862765      -0.03164739      -0.02185208
In       7.44002246       4.01614783       2.77309364        1       0.05862765       0.03164739       0.02185208
In       4.10141331       2.21395597       1.52870549        2      -0.05862765      -0.03164739      -0.02185208
In       1.66930458       0.90109593       0.62219408        3       0.05862765       0.03164739       0.02185208
O        5.64073392       2.13928116       0.22201373        4      -0.00000000      -0.00519402       0.00752226
O        6.65779214       4.76760628       1.06840788        5       0.00434222      -0.00804409      -0.00000000
O        7.63901861       2.04425272       2.37995519        6      -0.00434222       0.00285007       0.00752226
O        3.90241717       4.18585108       1.92184394        7       0.00434222      -0.00285007      -0.00752226
O        5.90070186       4.09082265       4.07978540        8       0.00000000       0.00519402      -0.00752226
O        4.88364364       1.46249752       3.23339124        9      -0.00434222       0.00804409       0.00000000
10
Lattice="5.515344628098263 -0.005447394552025279 -0.003761349391533758 3.021836035688258 4.613844710674132 -0.0037613493915430824 3.0218360356882554 1.6311967176351556 4.315874700491343" Properties=species:S:1:pos:R:3:spacegroup_kinds:I:1:forces:R:3 spacegroup="P 1" unit_cell=conventional occupancy="_JSON {\"0\": {\"In\": 1}, \"1\": {\"In\": 1}, \"2\": {\"In\": 1}, \"3\": {\"In\": 1}, \"4\": {\"O\": 1}, \"5\": {\"O\": 1}, \"6\": {\"O\": 1}, \"7\": {\"O\": 1}, \"8\": {\"O\": 1}, \"9\": {\"O\": 1}}" n_minim_iter=4 energy=-11288.868690773917 stress="0.15578169314012869 0.0005095174734433308 0.00035181464882491116 0.0005095174734433308 0.15511283738726983 0.00018991067159785874 0.00035181464882491116 0.00018991067159785874 0.15496892889194436" free_energy=-11288.868690773917 pbc="T T T"
In       9.88304717       5.33490035       3.68367372        0      -0.01933295      -0.01043599      -0.00720590
In       7.45547789       4.02449072       2.77885429        1       0.01933295       0.01043599       0.00720590
In       4.10353882       2.21510333       1.52949772        2      -0.01933295      -0.01043599      -0.00720590
In       1.67596954       0.90469370       0.62467828        3       0.01933295       0.01043599       0.00720590
O        5.64742649       2.14261317       0.22734307        4       0.00000000      -0.00237079       0.00343351
O        6.66891513       4.77077834       1.07332665        5       0.00198199      -0.00367169      -0.00000000
O        7.64777390       2.05153036       2.38528042        6      -0.00198199       0.00130090       0.00343351
O        3.91124281       4.18806368       1.92307159        7       0.00198199      -0.00130090      -0.00343351
O        5.91159022       4.09698087       4.08100894        8       0.00000000       0.00237079      -0.00343351
O        4.89010158       1.46881570       3.23502535        9      -0.00198199       0.00367169       0.00000000
10
Lattice="5.515641217444837 -0.005140936869447407 -0.0035497446680485497 3.0222549808924666 4.6139245008212875 -0.003549744668057867 3.0222549808924644 1.63142286559087 4.315874341728854" Properties=species:S:1:pos:R:3:spacegroup_kinds:I:1:forces:R:3 spacegroup="P 1" unit_cell=conventional occupancy="_JSON {\"0\": {\"In\": 1}, \"1\": {\"In\": 1}, \"2\": {\"In\": 1}, \"3\": {\"In\": 1}, \"4\": {\"O\": 1}, \"5\": {\"O\": 1}, \"6\": {\"O\": 1}, \"7\": {\"O\": 1}, \"8\": {\"O\": 1}, \"9\": {\"O\": 1}}" n_minim_iter=5 energy=-11288.868749279898 stress="0.15566538588496873 3.070388284832571e-06 2.1200635915571634e-06 3.070388284832571e-06 0.15566135531296968 1.1444142742199394e-06 2.1200635915571634e-06 1.1444142742199394e-06 0.1556604881114504" free_energy=-11288.868749279898 pbc="T T T"
In       9.88296690       5.33485702       3.68364380        0      -0.00003790      -0.00002046      -0.00001412
In       7.45725987       4.02545264       2.77951848        1       0.00003790       0.00002046       0.00001412
In       4.10289131       2.21475380       1.52925638        2      -0.00003790      -0.00002046      -0.00001412
In       1.67718428       0.90534942       0.62513105        3       0.00003790       0.00002046       0.00001412
O        5.64785841       2.14258780       0.22803498        4      -0.00000000      -0.00031942       0.00046260
O        6.66983382       4.77061085       1.07364397        5       0.00026703      -0.00049469       0.00000000
O        7.64813798       2.05213177       2.38597215        6      -0.00026703       0.00017527       0.00046260
O        3.91201321       4.18807467       1.92280271        7       0.00026703      -0.00017527      -0.00046260
O        5.91229278       4.09761864       4.08073988        8      -0.00000000       0.00031942      -0.00046260
O        4.89031737       1.46959559       3.23513089        9      -0.00026703       0.00049469       0.00000000
