10
Lattice="5.838456375738664 0.0017549684098947134 0.0012117810262666188 3.2051557216054363 4.880015648702114 0.0012117810262636227 3.205155721605435 1.73015326802849 4.563016970067186" Properties=species:S:1:pos:R:3:spacegroup_kinds:I:1:forces:R:3 spacegroup="P 1" unit_cell=conventional occupancy="_JSON {\"0\": {\"In\": 1}, \"1\": {\"In\": 1}, \"2\": {\"In\": 1}, \"3\": {\"In\": 1}, \"4\": {\"O\": 1}, \"5\": {\"O\": 1}, \"6\": {\"O\": 1}, \"7\": {\"O\": 1}, \"8\": {\"O\": 1}, \"9\": {\"O\": 1}}" n_minim_iter=2 energy=-11287.685399968677 stress="-0.0008902465906537286 -0.00031805170415742754 -0.00021961022930224117 -0.00031805170415742754 -0.00047273252557471587 -0.0001185463015659424 -0.00021961022930224117 -0.0001185463015659424 -0.00038290176514649114" free_energy=-11287.685399968677 pbc="T T T"
In      10.49785830       5.66677736       3.91283013        0      -0.00087108      -0.00047021      -0.00032467
In       7.87529343       4.25110848       2.93533067        1       0.00087108       0.00047021       0.00032467
In       4.37347439       2.36081541       1.63010987        2      -0.00087108      -0.00047021      -0.00032467
In       1.75090952       0.94514654       0.65261040        3       0.00087108       0.00047021       0.00032467
O        5.98142015       2.29575517       0.21233565        4      -0.00000000      -0.00215168       0.00311618
O        7.04736916       5.08798574       1.14257192        5       0.00179882      -0.00333236      -0.00000000
O        8.12062686       2.16671235       2.49384414        6      -0.00179882       0.00118067       0.00311618
O        4.12814097       4.44521155       2.07159640        7       0.00179882      -0.00118067      -0.00311618
O        6.26734768       4.31616873       4.35310488        8       0.00000000       0.00215168      -0.00311618
O        5.20139867       1.52393815       3.42286862        9      -0.00179882       0.00333236       0.00000000
