10
Lattice="6.108195454631819 -0.01418248193812652 -0.009792804486436796 3.33984365891849 5.114264090635201 -0.009792804486442167 3.3398436589184906 1.8028582456167535 4.7859685784585" Properties=species:S:1:pos:R:3:spacegroup_kinds:I:1:forces:R:3 spacegroup="P 1" unit_cell=conventional occupancy="_JSON {\"0\": {\"In\": 1}, \"1\": {\"In\": 1}, \"2\": {\"In\": 1}, \"3\": {\"In\": 1}, \"4\": {\"O\": 1}, \"5\": {\"O\": 1}, \"6\": {\"O\": 1}, \"7\": {\"O\": 1}, \"8\": {\"O\": 1}, \"9\": {\"O\": 1}}" n_minim_iter=1 energy=-11287.458426797277 stress="0.037221759510200146 -0.0007950714901339834 -0.0005489856882026817 -0.0007950714901339834 0.038265468823945624 -0.00029634422131106483 -0.0005489856882026817 -0.00029634422131106483 0.038490029423620564" free_energy=-11287.458426797277 pbc="T T T"
In      10.96581950       5.91938430       4.08725168        0      -0.00215574      -0.00116367      -0.00080350
In       8.21600467       4.43502550       3.06232278        1       0.00215574       0.00116367       0.00080350
In       4.57187811       2.46791437       1.70406019        2      -0.00215574      -0.00116367      -0.00080350
In       1.82206329       0.98355557       0.67913130        3       0.00215574       0.00116367       0.00080350
O        6.25106843       2.39172631       0.21190387        4       0.00000000       0.00471300      -0.00682563
O        7.35828986       5.31819347       1.18180294        5      -0.00394010       0.00729913      -0.00000000
O        8.48369065       2.25073774       2.60488816        6       0.00394010      -0.00258613      -0.00682563
O        4.30419214       4.65220213       2.16149482        7      -0.00394010       0.00258613       0.00682563
O        6.53681436       4.51121356       4.55447911        8      -0.00000000      -0.00471300       0.00682563
O        5.42959292       1.58474640       3.58458003        9       0.00394010      -0.00729913      -0.00000000
