10
Lattice="5.631190270000643 0.0012606554944706928 0.000870464904244484 3.0910110334261307 4.707011391258802 0.0008704649042356022 3.091011033426125 1.6685376017598363 4.401356525738721" Properties=species:S:1:pos:R:3:spacegroup_kinds:I:1:forces:R:3 spacegroup="P 1" unit_cell=conventional occupancy="_JSON {\"0\": {\"In\": 1}, \"1\": {\"In\": 1}, \"2\": {\"In\": 1}, \"3\": {\"In\": 1}, \"4\": {\"O\": 1}, \"5\": {\"O\": 1}, \"6\": {\"O\": 1}, \"7\": {\"O\": 1}, \"8\": {\"O\": 1}, \"9\": {\"O\": 1}}" n_minim_iter=1 energy=-11288.055148289568 stress="0.08291993448991447 0.0006327324581134401 0.00043689286794950646 0.0006327324581134401 0.0820893315023332 0.0002358361598075683 0.00043689286794950646 0.0002358361598075683 0.08191062206430014" free_energy=-11288.055148289568 pbc="T T T"
In      10.11210870       5.45854849       3.76905103        0      -0.04355339      -0.02351026      -0.01623350
In       7.60770982       4.10666600       2.83559516        1       0.04355339       0.02351026       0.01623350
In       4.20550253       2.27014366       1.56750230        2      -0.04355339      -0.02351026      -0.01623350
In       1.70110365       0.91826117       0.63404643        3       0.04355339       0.02351026       0.01623350
O        5.76889822       2.20661565       0.21519171        4       0.00000000      -0.06507156       0.09424023
O        6.80295018       4.89581999       1.10164483        5       0.05440015      -0.10077774      -0.00000000
O        7.82585730       2.09340290       2.41586997        6      -0.05440015       0.03570619       0.09424024
O        3.98735505       4.28340676       1.98722749        7       0.05440015      -0.03570619      -0.09424024
O        6.04431412       4.17019401       4.18790575        8       0.00000000       0.06507156      -0.09424024
O        5.01026216       1.48098967       3.30145263        9      -0.05440015       0.10077774       0.00000000
10
Lattice="5.6254416509697025 -0.0046729551570116245 -0.003226609871672869 3.0828961124934 4.705461418877828 -0.003226609871681759 3.0828961124933927 1.6641571415915786 4.401358720173666" Properties=species:S:1:pos:R:3:spacegroup_kinds:I:1:forces:R:3 spacegroup="P 1" unit_cell=conventional occupancy="_JSON {\"0\": {\"In\": 1}, \"1\": {\"In\": 1}, \"2\": {\"In\": 1}, \"3\": {\"In\": 1}, \"4\": {\"O\": 1}, \"5\": {\"O\": 1}, \"6\": {\"O\": 1}, \"7\": {\"O\": 1}, \"8\": {\"O\": 1}, \"9\": {\"O\": 1}}" n_minim_iter=2 energy=-11288.055968029792 stress="0.08118044030799389 -0.001502774184593737 -0.0010376444522806085 -0.001502774184593737 0.08315316782130809 -0.0005601237821024269 -0.0010376444522806085 -0.0005601237821024269 0.0835776125156047" free_energy=-11288.055968029792 pbc="T T T"
In      10.09267410       5.44805763       3.76180724        0      -0.00464149      -0.00250549      -0.00173001
In       7.59417672       4.09936079       2.83055102        1       0.00464149       0.00250549       0.00173001
In       4.19705716       2.26558483       1.56435449        2      -0.00464149      -0.00250549      -0.00173001
In       1.69855978       0.91688798       0.63309827        3       0.00464149       0.00250549       0.00173001
O        5.76052930       2.20032228       0.21161736        4       0.00000000      -0.04883829       0.07073032
O        6.79082522       4.88855379       1.09549977        5       0.04082906      -0.07563693      -0.00000000
O        7.81312949       2.08547770       2.41229672        6      -0.04082906       0.02679864       0.07073032
O        3.97810440       4.27946792       1.98260879        7       0.04082906      -0.02679864      -0.07073032
O        6.03070459       4.16462334       4.18328815        8      -0.00000000       0.04883829      -0.07073032
O        5.00040866       1.47639183       3.29940574        9      -0.04082906       0.07563693      -0.00000000
10
Lattice="5.6296948267963485 -0.0002819422152379261 -0.0001946771377693619 3.088900831694684 4.7066076503469985 -0.00019467713777824826 3.0889008316946773 1.6673985081434952 4.401356362218916" Properties=species:S:1:pos:R:3:spacegroup_kinds:I:1:forces:R:3 spacegroup="P 1" unit_cell=conventional occupancy="_JSON {\"0\": {\"In\": 1}, \"1\": {\"In\": 1}, \"2\": {\"In\": 1}, \"3\": {\"In\": 1}, \"4\": {\"O\": 1}, \"5\": {\"O\": 1}, \"6\": {\"O\": 1}, \"7\": {\"O\": 1}, \"8\": {\"O\": 1}, \"9\": {\"O\": 1}}" n_minim_iter=3 energy=-11288.057909268186 stress="0.08337725301992002 -0.0006731365087278374 -0.00046479130782091686 -0.0006731365087278374 0.08426089538142188 -0.00025089582630257227 -0.00046479130782091686 -0.00025089582630257227 0.0844510165734644" free_energy=-11288.057909268186 pbc="T T T"
In      10.10551471       5.45498903       3.76659327        0      -0.03316596      -0.01790309      -0.01236183
In       7.60573004       4.10559730       2.83485725        1       0.03316596       0.01790309       0.01236183
In       4.20176646       2.26812692       1.56610977        2      -0.03316596      -0.01790309      -0.01236183
In       1.70198179       0.91873520       0.63437374        3       0.03316596       0.01790309       0.01236183
O        5.76672154       2.20207925       0.21846223        4       0.00000000      -0.01728866       0.02503840
O        6.80222118       4.88943899       1.10004708        5       0.01445341      -0.02677533      -0.00000000
O        7.82012273       2.09293343       2.41914041        6      -0.01445341       0.00948667       0.02503840
O        3.98737377       4.28079080       1.98182660        7       0.01445341      -0.00948667      -0.02503840
O        6.04077496       4.17164498       4.18250478        8      -0.00000000       0.01728866      -0.02503840
O        5.00527532       1.48428524       3.30091994        9      -0.01445341       0.02677533      -0.00000000
10
Lattice="5.634047884349229 0.004206487675313215 0.002904520630364721 3.095041799236011 4.707783928629321 0.0029045206303558438 3.095041799236004 1.6707134219833637 4.401358269501049" Properties=species:S:1:pos:R:3:spacegroup_kinds:I:1:forces:R:3 spacegroup="P 1" unit_cell=conventional occupancy="_JSON {\"0\": {\"In\": 1}, \"1\": {\"In\": 1}, \"2\": {\"In\": 1}, \"3\": {\"In\": 1}, \"4\": {\"O\": 1}, \"5\": {\"O\": 1}, \"6\": {\"O\": 1}, \"7\": {\"O\": 1}, \"8\": {\"O\": 1}, \"9\": {\"O\": 1}}" n_minim_iter=4 energy=-11288.058650050054 stress="0.0851526630066341 -1.107395997670533e-05 -7.646415952607623e-06 -1.107395997670533e-05 0.08516720005969533 -4.127555208979981e-06 -7.646415952607623e-06 -4.127555208979981e-06 0.08517032780054856" free_energy=-11288.058650050054 pbc="T T T"
In      10.11795139       5.46170239       3.77122875        0      -0.04859583      -0.02623219      -0.01811296
In       7.61824585       4.11235338       2.83952222        1       0.04859583       0.02623219       0.01811296
In       4.20588565       2.27035047       1.56764510        2      -0.04859583      -0.02623219      -0.01811296
In       1.70618010       0.92100146       0.63593856        3       0.04859583       0.02623219       0.01811296
O        5.77305682       2.20420807       0.22498022        4       0.00000000       0.00784879      -0.01136705
O        6.81360016       4.89086080       1.10469635        5      -0.00656163       0.01215559      -0.00000000
O        7.82755527       2.10037515       2.42565935        6       0.00656163      -0.00430680      -0.01136705
O        3.99657622       4.28232869       1.98150796        7      -0.00656163       0.00430680       0.01136705
O        6.05107467       4.17849578       4.18218710        8       0.00000000      -0.00784879       0.01136705
O        5.01053133       1.49184305       3.30247096        9       0.00656163      -0.01215559       0.00000000
10
Lattice="5.6401905271211685 0.010530401505708711 0.007271094266792266 3.1036992250066597 4.709449138941438 0.007271094266783402 3.103699225006653 1.675386727991191 4.4013683523148925" Properties=species:S:1:pos:R:3:spacegroup_kinds:I:1:forces:R:3 spacegroup="P 1" unit_cell=conventional occupancy="_JSON {\"0\": {\"In\": 1}, \"1\": {\"In\": 1}, \"2\": {\"In\": 1}, \"3\": {\"In\": 1}, \"4\": {\"O\": 1}, \"5\": {\"O\": 1}, \"6\": {\"O\": 1}, \"7\": {\"O\": 1}, \"8\": {\"O\": 1}, \"9\": {\"O\": 1}}" n_minim_iter=5 energy=-11288.059151247186 stress="0.08662790744420332 0.0003295869668595199 0.00022757516848814904 0.0003295869668595199 0.08619525076828104 0.000122845801308781 0.00022757516848814904 0.000122845801308781 0.08610216197511628" free_energy=-11288.059151247186 pbc="T T T"
In      10.13358306       5.47014042       3.77705509        0      -0.03252101      -0.01755494      -0.01212144
In       7.63780042       4.12290900       2.84681073        1       0.03252101       0.01755494       0.01212144
In       4.20978857       2.27245728       1.56909982        2      -0.03252101      -0.01755494      -0.01212144
In       1.71400593       0.92522586       0.63885546        3       0.03252101       0.01755494       0.01212144
O        5.78199251       2.20832671       0.23254841        4      -0.00000000       0.02099799      -0.03041046
O        6.82871125       4.89459995       1.11124873        5      -0.01755443       0.03252005       0.00000000
O        7.83897300       2.11025146       2.43323258        6       0.01755443      -0.01152206      -0.03041046
O        4.00861599       4.28511482       1.98267796        7      -0.01755443       0.01152206       0.03041046
O        6.06559647       4.18703957       4.18336214        8      -0.00000000      -0.02099799       0.03041046
O        5.01887774       1.50076633       3.30466181        9       0.01755443      -0.03252005      -0.00000000
10
Lattice="5.64125432365738 0.011624436479383398 0.008026510042765726 3.1051975720979827 4.709738157259199 0.008026510042756861 3.105197572097978 1.6761955405238298 4.401370973314433" Properties=species:S:1:pos:R:3:spacegroup_kinds:I:1:forces:R:3 spacegroup="P 1" unit_cell=conventional occupancy="_JSON {\"0\": {\"In\": 1}, \"1\": {\"In\": 1}, \"2\": {\"In\": 1}, \"3\": {\"In\": 1}, \"4\": {\"O\": 1}, \"5\": {\"O\": 1}, \"6\": {\"O\": 1}, \"7\": {\"O\": 1}, \"8\": {\"O\": 1}, \"9\": {\"O\": 1}}" n_minim_iter=6 energy=-11288.059514653714 stress="0.08612813926591896 -7.835880800761597e-05 -5.410565795910519e-05 -7.835880800761597e-05 0.08623100274218293 -2.920640667002684e-05 -5.410565795910519e-05 -2.920640667002684e-05 0.08625313446214994" free_energy=-11288.059514653714 pbc="T T T"
In      10.13496239       5.47088499       3.77756920        0       0.00131362       0.00070910       0.00048962
In       7.64251182       4.12545223       2.84856679        1      -0.00131362      -0.00070910      -0.00048962
In       4.20913766       2.27210592       1.56885721        2       0.00131362       0.00070910       0.00048962
In       1.71668708       0.92667316       0.63985479        3      -0.00131362      -0.00070910      -0.00048962
O        5.78353953       2.21027516       0.23206844        4       0.00000000       0.00020971      -0.00030372
O        6.83029394       4.89716123       1.11238251        5      -0.00017532       0.00032479       0.00000000
O        7.84198270       2.11128253       2.43275393        6       0.00017532      -0.00011507      -0.00030372
O        4.00966678       4.28627561       1.98467007        7      -0.00017532       0.00011507       0.00030372
O        6.06810994       4.18728299       4.18535556        8       0.00000000      -0.00020971       0.00030372
O        5.02135554       1.50039692       3.30504149        9       0.00017532      -0.00032479       0.00000000
