10
Lattice="5.383104949868573 0.03603578269767976 0.024882201578934 2.98395337835718 4.480528954791491 0.024882201578933994 2.9839533783571817 1.610747538538742 4.181058622618406" Properties=species:S:1:pos:R:3:spacegroup_kinds:I:1:forces:R:3 spacegroup="P 1" unit_cell=conventional occupancy="_JSON {\"0\": {\"In\": 1}, \"1\": {\"In\": 1}, \"2\": {\"In\": 1}, \"3\": {\"In\": 1}, \"4\": {\"O\": 1}, \"5\": {\"O\": 1}, \"6\": {\"O\": 1}, \"7\": {\"O\": 1}, \"8\": {\"O\": 1}, \"9\": {\"O\": 1}}" n_minim_iter=5 energy=-11291.21824258136 stress="0.30162726875738105 -4.1851136620200795e-06 -2.889759129402439e-06 -4.1851136620200795e-06 0.3016327626578906 -1.5599005956816883e-06 -2.889759129402439e-06 -1.5599005956816883e-06 0.30163394469714433" free_energy=-11291.21824258136 pbc="T T T"
In       9.66805035       5.21884438       3.60353871        0      -0.00202834      -0.00109490      -0.00075602
In       7.35846722       3.97212405       2.74269584        1       0.00202834       0.00109490       0.00075602
In       3.99254450       2.15518824       1.48812719        2      -0.00202834      -0.00109490      -0.00075601
In       1.68296136       0.90846791       0.62728432        3       0.00202834       0.00109490       0.00075601
O        5.52930541       2.06613090       0.32243441        4       0.00000000       0.00094236      -0.00136477
O        6.58966531       4.58969221       1.08258796        5      -0.00078781       0.00145945       0.00000000
O        7.45289888       2.07192291       2.41296372        6       0.00078781      -0.00051709      -0.00136477
O        3.89811284       4.05538938       1.81785931        7      -0.00078781       0.00051709       0.00136477
O        5.82170631       4.06118138       3.90838862        8       0.00000000      -0.00094236       0.00136477
O        4.76134640       1.53762008       3.14823507        9       0.00078782      -0.00145945      -0.00000000
