10
Lattice="6.334925106876454 0.08156263595855076 0.05631785401350035 3.544298568108005 5.251273772469468 0.056317854013498175 3.544298568108002 1.9132236568553447 4.890666945617487" Properties=species:S:1:pos:R:3:spacegroup_kinds:I:1:forces:R:3 spacegroup="P 1" unit_cell=conventional occupancy="_JSON {\"0\": {\"In\": 1}, \"1\": {\"In\": 1}, \"2\": {\"In\": 1}, \"3\": {\"In\": 1}, \"4\": {\"O\": 1}, \"5\": {\"O\": 1}, \"6\": {\"O\": 1}, \"7\": {\"O\": 1}, \"8\": {\"O\": 1}, \"9\": {\"O\": 1}}" n_minim_iter=1 energy=-11286.956064785134 stress="0.05312843322537459 -0.0031515650252262354 -0.0021761113656736998 -0.0031515650252262354 0.05726556782761251 -0.0011746718461865418 -0.0021761113656736998 -0.0011746718461865418 0.058155698260166144" free_energy=-11286.956064785134 pbc="T T T"
In      11.46071947       6.18653288       4.27171402        0      -0.12493686      -0.06744132      -0.04656728
In       8.67456391       4.68255723       3.23323997        1       0.12493686       0.06744132       0.04656728
In       4.74895834       2.56350284       1.77006269        2      -0.12493686      -0.06744132      -0.04656728
In       1.96280279       1.05952720       0.73158864        3       0.12493686       0.06744132       0.04656728
O        6.52334312       2.53934429       0.28396369        4       0.00000000       0.05069630      -0.07342119
O        7.72111689       5.54197940       1.30714352        5      -0.04238236       0.07851447       0.00000000
O        8.86986792       2.43190995       2.72929716        6       0.04238236      -0.02781817      -0.07342119
O        4.55365434       4.81415013       2.27400550        7      -0.04238236       0.02781817       0.07342119
O        6.90017913       4.70671579       4.71933897        8      -0.00000000      -0.05069630       0.07342119
O        5.70240536       1.70408068       3.69615914        9       0.04238236      -0.07851447       0.00000000
10
Lattice="6.351021516477556 0.09779898246417228 0.0675288231229443 3.56670468632178 5.255821213121904 0.06752882312294206 3.566704686321777 1.9253185508382116 4.890947274716096" Properties=species:S:1:pos:R:3:spacegroup_kinds:I:1:forces:R:3 spacegroup="P 1" unit_cell=conventional occupancy="_JSON {\"0\": {\"In\": 1}, \"1\": {\"In\": 1}, \"2\": {\"In\": 1}, \"3\": {\"In\": 1}, \"4\": {\"O\": 1}, \"5\": {\"O\": 1}, \"6\": {\"O\": 1}, \"7\": {\"O\": 1}, \"8\": {\"O\": 1}, \"9\": {\"O\": 1}}" n_minim_iter=2 energy=-11286.959431808162 stress="0.05458178672081089 0.0003348066307746727 0.00023117927587549148 0.0003348066307746727 0.05414227806495084 0.0001247913122220357 0.00023117927587549148 0.0001247913122220357 0.05404771501348757" free_energy=-11286.959431808162 pbc="T T T"
In      11.51208390       6.21425956       4.29085890        0      -0.13786359      -0.07441920      -0.05138541
In       8.71456244       4.70414857       3.24814848        1       0.13786359       0.07441920       0.05138541
In       4.76986846       2.57479019       1.77785644        2      -0.13786359      -0.07441920      -0.05138541
In       1.97234700       1.06467920       0.73514602        3       0.13786359       0.07441920       0.05138541
O        6.54661849       2.55438586       0.29712208        4       0.00000000       0.03101424      -0.04491654
O        7.75667901       5.55858339       1.32403006        5      -0.02592806       0.04803244       0.00000000
O        8.90326265       2.45500653       2.74259572        6       0.02592806      -0.01701819      -0.04491654
O        4.58116825       4.82393222       2.28340921        7      -0.02592806       0.01701819       0.04491654
O        6.93781241       4.72455290       4.72888285        8      -0.00000000      -0.03101424       0.04491654
O        5.72775189       1.72035537       3.70197487        9       0.02592806      -0.04803244       0.00000000
10
Lattice="6.350861778574073 0.09763817258048095 0.06741778615795149 3.566482596780035 5.255775911334407 0.06741778615794923 3.5664825967800313 1.925198666196147 4.890944252772675" Properties=species:S:1:pos:R:3:spacegroup_kinds:I:1:forces:R:3 spacegroup="P 1" unit_cell=conventional occupancy="_JSON {\"0\": {\"In\": 1}, \"1\": {\"In\": 1}, \"2\": {\"In\": 1}, \"3\": {\"In\": 1}, \"4\": {\"O\": 1}, \"5\": {\"O\": 1}, \"6\": {\"O\": 1}, \"7\": {\"O\": 1}, \"8\": {\"O\": 1}, \"9\": {\"O\": 1}}" n_minim_iter=3 energy=-11286.96582921256 stress="0.05118226191509028 5.3350847519217894e-05 3.683800905102297e-05 5.3350847519217894e-05 0.0511122269878212 1.9885274024303554e-05 3.683800905102297e-05 1.9885274024303554e-05 0.05109715853276712" free_energy=-11286.96582921256 pbc="T T T"
In      11.50067105       6.20809887       4.28660503        0      -0.04227712      -0.02282132      -0.01575780
In       8.72506942       4.70982027       3.25206471        1       0.04227712       0.02282132       0.01575780
In       4.75875756       2.56879249       1.77371512        2      -0.04227712      -0.02282132      -0.01575780
In       1.98315593       1.07051389       0.73917480        3       0.04227712       0.02282132       0.01575780
O        6.54638764       2.55682945       0.29323686        4      -0.00000000       0.00378214      -0.00547750
O        7.75415891       5.56243403       1.32386274        5      -0.00316189       0.00585748      -0.00000000
O        8.90509897       2.45335499       2.73870899        6       0.00316189      -0.00207534      -0.00547750
O        4.57872802       4.82525777       2.28707084        7      -0.00316189       0.00207534       0.00547750
O        6.93743935       4.72178331       4.73254297        8      -0.00000000      -0.00378214       0.00547750
O        5.72966808       1.71617873       3.70191709        9       0.00316189      -0.00585748      -0.00000000
10
Lattice="6.351127689622289 0.09790586462992079 0.06760262375648848 3.5668522998691703 5.255851325820956 0.06760262375648622 3.566852299869165 1.9253982331012909 4.89094928596107" Properties=species:S:1:pos:R:3:spacegroup_kinds:I:1:forces:R:3 spacegroup="P 1" unit_cell=conventional occupancy="_JSON {\"0\": {\"In\": 1}, \"1\": {\"In\": 1}, \"2\": {\"In\": 1}, \"3\": {\"In\": 1}, \"4\": {\"O\": 1}, \"5\": {\"O\": 1}, \"6\": {\"O\": 1}, \"7\": {\"O\": 1}, \"8\": {\"O\": 1}, \"9\": {\"O\": 1}}" n_minim_iter=4 energy=-11286.966425211464 stress="0.04990034855360502 -4.099771350878404e-06 -2.8308364133924028e-06 -4.099771350878404e-06 0.04990573042050533 -1.5280968448971134e-06 -2.8308364133924028e-06 -1.5280968448971134e-06 0.04990688836907198" free_energy=-11286.966425211464 pbc="T T T"
In      11.49720093       6.20622569       4.28531163        0      -0.00781096      -0.00421638      -0.00291135
In       8.73004751       4.71250746       3.25392018        1       0.00781096       0.00421638       0.00291135
In       4.75478479       2.56664798       1.77223436        2      -0.00781096      -0.00421638      -0.00291135
In       1.98763137       1.07292975       0.74084291        3       0.00781096       0.00421638       0.00291135
O        6.54677192       2.55798450       0.29214048        4      -0.00000000      -0.00611956       0.00886268
O        7.75398773       5.56411270       1.32414126        5       0.00511598      -0.00947749       0.00000000
O        8.90640841       2.45323838       2.73761512        6      -0.00511598       0.00335793       0.00886268
O        4.57842389       4.82591706       2.28853942        7       0.00511598      -0.00335793      -0.00886268
O        6.93806038       4.72117093       4.73401406        8       0.00000000       0.00611956      -0.00886268
O        5.73084457       1.71504274       3.70201328        9      -0.00511598       0.00947749      -0.00000000
10
Lattice="6.351442594565077 0.09822285609562288 0.06782150190920054 3.56729010153635 5.255940647780941 0.06782150190919829 3.5672901015363454 1.9256345598357818 4.890955263655886" Properties=species:S:1:pos:R:3:spacegroup_kinds:I:1:forces:R:3 spacegroup="P 1" unit_cell=conventional occupancy="_JSON {\"0\": {\"In\": 1}, \"1\": {\"In\": 1}, \"2\": {\"In\": 1}, \"3\": {\"In\": 1}, \"4\": {\"O\": 1}, \"5\": {\"O\": 1}, \"6\": {\"O\": 1}, \"7\": {\"O\": 1}, \"8\": {\"O\": 1}, \"9\": {\"O\": 1}}" n_minim_iter=5 energy=-11286.966452684375 stress="0.04961996055434733 -1.382686222751522e-05 -9.547251957406196e-06 -1.382686222751522e-05 0.049638111394566045 -5.153636933552743e-06 -9.547251957406196e-06 -5.153636933552743e-06 0.049642016669303755" free_energy=-11286.966452684375 pbc="T T T"
In      11.49707955       6.20616017       4.28526639        0       0.00067175       0.00036261       0.00025038
In       8.73195465       4.71353694       3.25463102        1      -0.00067175      -0.00036261      -0.00025038
In       4.75406816       2.56626114       1.77196725        2       0.00067175       0.00036261       0.00025038
In       1.98894325       1.07363791       0.74133189        3      -0.00067175      -0.00036261      -0.00025038
O        6.54722700       2.55823791       0.29245606        4       0.00000000      -0.00605054       0.00876273
O        7.75471667       5.56437469       1.32447107        5       0.00505829      -0.00937061      -0.00000000
O        8.90702743       2.45371177       2.73793369        6      -0.00505829       0.00332007       0.00876273
O        4.57899538       4.82608630       2.28866458        7       0.00505829      -0.00332007      -0.00876273
O        6.93879581       4.72156016       4.73414221        8      -0.00000000       0.00605054      -0.00876273
O        5.73130613       1.71542338       3.70212720        9      -0.00505829       0.00937061      -0.00000000
10
Lattice="6.352011468235125 0.09879543688485062 0.06821686089827297 3.5680809353410603 5.256102041417717 0.06821686089827077 3.5680809353410563 1.9260614544426378 4.890966109432431" Properties=species:S:1:pos:R:3:spacegroup_kinds:I:1:forces:R:3 spacegroup="P 1" unit_cell=conventional occupancy="_JSON {\"0\": {\"In\": 1}, \"1\": {\"In\": 1}, \"2\": {\"In\": 1}, \"3\": {\"In\": 1}, \"4\": {\"O\": 1}, \"5\": {\"O\": 1}, \"6\": {\"O\": 1}, \"7\": {\"O\": 1}, \"8\": {\"O\": 1}, \"9\": {\"O\": 1}}" n_minim_iter=6 energy=-11286.966488210766 stress="0.04974337422130799 -7.246592986771038e-07 -5.003678201554344e-07 -7.246592986771038e-07 0.04974432550160189 -2.701020260565108e-07 -5.003678201554344e-07 -2.701020260565108e-07 0.04974453017592602" free_energy=-11286.966488210766 pbc="T T T"
In      11.49890756       6.20714693       4.28594773        0       0.00004129       0.00002229       0.00001539
In       8.73335246       4.71429148       3.25515202        1      -0.00004129      -0.00002229      -0.00001539
In       4.75482089       2.56666746       1.77224782        2       0.00004129       0.00002229       0.00001539
In       1.98926579       1.07381201       0.74145211        3      -0.00004129      -0.00002229      -0.00001539
O        6.54804907       2.55813621       0.29383636        4      -0.00000000      -0.00000301       0.00000437
O        7.75650115       5.56398154       1.32506682        5       0.00000252      -0.00000467       0.00000000
O        8.90767793       2.45487388       2.73931941        6      -0.00000252       0.00000165       0.00000437
O        4.58049542       4.82608507       2.28808042        7       0.00000252      -0.00000165      -0.00000437
O        6.94012428       4.72282273       4.73356348        8      -0.00000000       0.00000301      -0.00000437
O        5.73167220       1.71697741       3.70233302        9      -0.00000252       0.00000467      -0.00000000
