10
Lattice="6.199785626315306 0.03374563572841138 0.023300887277734977 3.4301693323027824 5.164534725599786 0.023300887277734977 3.430169332302783 1.8516163318274328 4.821252827117024" Properties=species:S:1:pos:R:3:spacegroup_kinds:I:1:forces:R:3 spacegroup="P 1" unit_cell=conventional occupancy="_JSON {\"0\": {\"In\": 1}, \"1\": {\"In\": 1}, \"2\": {\"In\": 1}, \"3\": {\"In\": 1}, \"4\": {\"O\": 1}, \"5\": {\"O\": 1}, \"6\": {\"O\": 1}, \"7\": {\"O\": 1}, \"8\": {\"O\": 1}, \"9\": {\"O\": 1}}" n_minim_iter=1 energy=-11287.218070055938 stress="0.03568152904913042 -0.005029954123248187 -0.003473112638691993 -0.005029954123248187 0.04228446984529473 -0.001874797266788738 -0.003473112638691993 -0.001874797266788738 0.04370513393261747" free_energy=-11287.218070055938 pbc="T T T"
In      11.17775792       6.03378933       4.16624675        0      -0.11468839      -0.06190916      -0.04274740
In       8.41242852       4.54105572       3.13553516        1       0.11468839       0.06190916       0.04274740
In       4.64769578       2.50884099       1.73231945        2      -0.11468839      -0.06190916      -0.04274740
In       1.88236638       1.01610737       0.70160786        3       0.11468839       0.06190916       0.04274740
O        6.36492389       2.45482004       0.25035662        4       0.00000000       0.04967196      -0.07193768
O        7.51530972       5.40773422       1.24026454        5      -0.04152600       0.07692805      -0.00000000
O        8.64470739       2.33450835       2.66098303        6       0.04152600      -0.02725609      -0.07193768
O        4.41541691       4.71538836       2.20687158        7      -0.04152600       0.02725609       0.07193768
O        6.69520041       4.59507666       4.61749799        8       0.00000000      -0.04967196       0.07193768
O        5.54481458       1.64216249       3.62759007        9       0.04152600      -0.07692805      -0.00000000
10
Lattice="6.226986161319885 0.0614657662036094 0.04244124784835977 3.4682690273561128 5.172063867313186 0.04244124784835995 3.4682690273561123 1.8721826685776455 4.821511999628643" Properties=species:S:1:pos:R:3:spacegroup_kinds:I:1:forces:R:3 spacegroup="P 1" unit_cell=conventional occupancy="_JSON {\"0\": {\"In\": 1}, \"1\": {\"In\": 1}, \"2\": {\"In\": 1}, \"3\": {\"In\": 1}, \"4\": {\"O\": 1}, \"5\": {\"O\": 1}, \"6\": {\"O\": 1}, \"7\": {\"O\": 1}, \"8\": {\"O\": 1}, \"9\": {\"O\": 1}}" n_minim_iter=2 energy=-11287.226692796137 stress="0.035956501895485694 0.00014954340412181156 0.00010325761624806778 0.00014954340412181156 0.03576019270847846 5.5738790147000727e-05 0.00010325761624806778 5.5738790147000727e-05 0.03571795554538347" free_energy=-11287.226692796137 pbc="T T T"
In      11.26558541       6.08119889       4.19898238        0      -0.13434841      -0.07252170      -0.05007521
In       8.47970093       4.57736958       3.16060937        1       0.13434841       0.07252170       0.05007521
In       4.68382330       2.52834274       1.74578513        2      -0.13434841      -0.07252170      -0.05007521
In       1.89793882       1.02451342       0.70741212        3       0.13434841       0.07252170       0.05007521
O        6.40437414       2.48026233       0.27299657        4      -0.00000000       0.02700477      -0.03910981
O        7.57579256       5.43563968       1.26903987        5      -0.02257613       0.04182288      -0.00000000
O        8.70122475       2.37390688       2.68375257        6       0.02257613      -0.01481811      -0.03910981
O        4.46229948       4.73180544       2.22264193        7      -0.02257613       0.01481811       0.03910981
O        6.75915009       4.62544999       4.63339793        8       0.00000000      -0.02700477       0.03910981
O        5.58773167       1.67007263       3.63735463        9       0.02257613      -0.04182288       0.00000000
10
Lattice="6.228989222591424 0.06349940858788625 0.04384544933801688 3.4710682860064717 5.172622532519763 0.04384544933801709 3.471068286006471 1.8736937173136952 4.821536906532806" Properties=species:S:1:pos:R:3:spacegroup_kinds:I:1:forces:R:3 spacegroup="P 1" unit_cell=conventional occupancy="_JSON {\"0\": {\"In\": 1}, \"1\": {\"In\": 1}, \"2\": {\"In\": 1}, \"3\": {\"In\": 1}, \"4\": {\"O\": 1}, \"5\": {\"O\": 1}, \"6\": {\"O\": 1}, \"7\": {\"O\": 1}, \"8\": {\"O\": 1}, \"9\": {\"O\": 1}}" n_minim_iter=3 energy=-11287.232159361338 stress="0.03326286061996713 0.00035877063895066734 0.00024772608670143236 0.00035877063895066734 0.03279189383367267 0.00013372332929219448 0.00024772608670143236 0.00013372332929219448 0.03269056238229396" free_energy=-11287.232159361338 pbc="T T T"
In      11.26193405       6.07922787       4.19762142        0      -0.03785039      -0.02043176      -0.01410784
In       8.49475466       4.58549563       3.16622029        1       0.03785039       0.02043176       0.01410784
In       4.67637115       2.52432004       1.74300752        2      -0.03785039      -0.02043176      -0.01410784
In       1.90919176       1.03058780       0.71160639        3       0.03785039       0.02043176       0.01410784
O        6.40727607       2.48417169       0.27170354        4      -0.00000000       0.00118243      -0.00171246
O        7.57853354       5.44085267       1.27115240        5      -0.00098852       0.00183126      -0.00000000
O        8.70708687       2.37568076       2.68247199        6       0.00098852      -0.00064883      -0.00171246
O        4.46403893       4.73413491       2.22675582        7      -0.00098852       0.00064883       0.00171246
O        6.76384974       4.62564398       4.63752427        8       0.00000000      -0.00118243       0.00171246
O        5.59259226       1.66896300       3.63807541        9       0.00098852      -0.00183126       0.00000000
10
Lattice="6.2274637724955655 0.06195076389861837 0.042776131941589336 3.4689365635330374 5.172197023806792 0.04277613194158948 3.468936563533036 1.872543006732277 4.821517866655449" Properties=species:S:1:pos:R:3:spacegroup_kinds:I:1:forces:R:3 spacegroup="P 1" unit_cell=conventional occupancy="_JSON {\"0\": {\"In\": 1}, \"1\": {\"In\": 1}, \"2\": {\"In\": 1}, \"3\": {\"In\": 1}, \"4\": {\"O\": 1}, \"5\": {\"O\": 1}, \"6\": {\"O\": 1}, \"7\": {\"O\": 1}, \"8\": {\"O\": 1}, \"9\": {\"O\": 1}}" n_minim_iter=4 energy=-11287.23259252839 stress="0.032343970860036264 2.821711902064652e-05 1.948352423344646e-05 2.821711902064652e-05 0.032306929572171204 1.0517269216811902e-05 1.948352423344646e-05 1.0517269216811902e-05 0.03229895990900082" free_energy=-11287.23259252839 pbc="T T T"
In      11.25352396       6.07468808       4.19448676        0      -0.00465234      -0.00251135      -0.00173405
In       8.49448140       4.58534812       3.16611844        1       0.00465234       0.00251135       0.00173405
In       4.67085551       2.52134269       1.74095169        2      -0.00465234      -0.00251135      -0.00173405
In       1.91181295       1.03200272       0.71258338        3       0.00465234       0.00251135       0.00173405
O        6.40506612       2.48336527       0.26954454        4       0.00000000      -0.00480956       0.00696548
O        7.57463146       5.44024456       1.26954367        5       0.00402082      -0.00744868       0.00000000
O        8.70443733       2.37313881       2.68030348        6      -0.00402082       0.00263911       0.00696548
O        4.46089958       4.73355200       2.22676666        7       0.00402082      -0.00263911      -0.00696548
O        6.76027079       4.62332554       4.63752559        8      -0.00000000       0.00480956      -0.00696548
O        5.59070545       1.66644624       3.63752647        9      -0.00402082       0.00744868      -0.00000000
