10
Lattice="5.788122350594464 0.0017398386190080701 0.0012013341182639777 3.1775236938398863 4.83794445478405 0.0012013341182586486 3.177523693839884 1.715237411423285 4.523678659369316" Properties=species:S:1:pos:R:3:spacegroup_kinds:I:1:forces:R:3 spacegroup="P 1" unit_cell=conventional occupancy="_JSON {\"0\": {\"In\": 1}, \"1\": {\"In\": 1}, \"2\": {\"In\": 1}, \"3\": {\"In\": 1}, \"4\": {\"O\": 1}, \"5\": {\"O\": 1}, \"6\": {\"O\": 1}, \"7\": {\"O\": 1}, \"8\": {\"O\": 1}, \"9\": {\"O\": 1}}" n_minim_iter=1 energy=-11287.691500034167 stress="0.005756171910451072 0.00025966766872134565 0.00017929687757943917 0.00025966766872134565 0.005415299961906514 9.678502252399092e-05 0.00017929687757943917 9.678502252399092e-05 0.005341959226065815" free_energy=-11287.691500034167 pbc="T T T"
In      10.40735502       5.61792340       3.87909716        0      -0.05393564      -0.02911463      -0.02010324
In       7.80739959       4.21445917       2.91002484        1       0.05393564       0.02911463       0.02010324
In       4.33577015       2.34046254       1.61605650        2      -0.05393564      -0.02911463      -0.02010324
In       1.73581473       0.93699832       0.64698417        3       0.05393564       0.02911463       0.02010324
O        5.92985361       2.27596319       0.21050508        4       0.00000000      -0.00938344       0.01358962
O        6.98661295       5.04412161       1.13272167        5       0.00784460      -0.01453234      -0.00000000
O        8.05061797       2.14803286       2.47234441        6      -0.00784460       0.00514890       0.01358962
O        4.09255178       4.40688885       2.05373692        7       0.00784460      -0.00514890      -0.01358962
O        6.21331613       4.27895852       4.31557625        8       0.00000000       0.00938344      -0.01358962
O        5.15655679       1.51080010       3.39335966        9      -0.00784460       0.01453234       0.00000000
10
Lattice="5.785487345293995 -0.000978346431157544 -0.0006755344630149585 3.1738053926139864 4.837233104733849 -0.0006755344630202909 3.1738053926139838 1.7132302605774958 4.52367844128221" Properties=species:S:1:pos:R:3:spacegroup_kinds:I:1:forces:R:3 spacegroup="P 1" unit_cell=conventional occupancy="_JSON {\"0\": {\"In\": 1}, \"1\": {\"In\": 1}, \"2\": {\"In\": 1}, \"3\": {\"In\": 1}, \"4\": {\"O\": 1}, \"5\": {\"O\": 1}, \"6\": {\"O\": 1}, \"7\": {\"O\": 1}, \"8\": {\"O\": 1}, \"9\": {\"O\": 1}}" n_minim_iter=2 energy=-11287.691693313605 stress="0.005266600099230218 -0.00042951548257460695 -0.00029657440291928786 -0.00042951548257460695 0.005830435331721245 -0.00016009181385186384 -0.00029657440291928786 -0.00016009181385186384 0.005951748016314938" free_energy=-11287.691693313605 pbc="T T T"
In      10.39795324       5.61284828       3.87559287        0      -0.03480691      -0.01878888      -0.01297346
In       7.80169397       4.21137926       2.90789820        1       0.03480691       0.01878888       0.01297346
In       4.33140417       2.33810577       1.61442918        2      -0.03480691      -0.01878888      -0.01297346
In       1.73514490       0.93663675       0.64673451        3       0.03480691       0.01878888       0.01297346
O        5.92601821       2.27337489       0.20843994        4      -0.00000000      -0.00771335       0.01117090
O        6.98080975       5.04124895       1.12990631        5       0.00644840      -0.01194584      -0.00000000
O        8.04503206       2.14423971       2.47027916        6      -0.00644840       0.00423248       0.01117090
O        4.08806608       4.40524532       2.05204821        7       0.00644840      -0.00423248      -0.01117090
O        6.20707993       4.27611014       4.31388743        8      -0.00000000       0.00771335      -0.01117090
O        5.15228839       1.50823608       3.39242107        9      -0.00644840       0.01194584       0.00000000
10
Lattice="5.790642652924514 0.004337780143111723 0.002995176234455796 3.181078530852865 4.83862589282869 0.0029951762344504686 3.1810785308528615 1.7171563237662497 4.52368032265571" Properties=species:S:1:pos:R:3:spacegroup_kinds:I:1:forces:R:3 spacegroup="P 1" unit_cell=conventional occupancy="_JSON {\"0\": {\"In\": 1}, \"1\": {\"In\": 1}, \"2\": {\"In\": 1}, \"3\": {\"In\": 1}, \"4\": {\"O\": 1}, \"5\": {\"O\": 1}, \"6\": {\"O\": 1}, \"7\": {\"O\": 1}, \"8\": {\"O\": 1}, \"9\": {\"O\": 1}}" n_minim_iter=3 energy=-11287.692327086566 stress="0.00577153614724911 -0.00026523530079071954 -0.00018314124988504248 -0.00026523530079071954 0.0061197168513022334 -9.886022930460143e-05 -0.00018314124988504248 -9.886022930460143e-05 0.006194630112956393" free_energy=-11287.692327086566 pbc="T T T"
In      10.41026437       5.61949387       3.88018155        0       0.00940305       0.00507580       0.00350477
In       7.81893521       4.22068613       2.91432447        1      -0.00940305      -0.00507580      -0.00350477
In       4.33386452       2.33943387       1.61534621        2       0.00940305       0.00507580       0.00350477
In       1.74253535       0.94062614       0.64948913        3      -0.00940305      -0.00507580      -0.00350477
O        5.93352126       2.27729932       0.21412764        4       0.00000000      -0.00609870       0.00883247
O        6.99311340       5.04510575       1.13541285        5       0.00509854      -0.00944519       0.00000000
O        8.05500765       2.15228358       2.47596780        6      -0.00509854       0.00334649       0.00883247
O        4.09779208       4.40783643       2.05370288        7       0.00509854      -0.00334649      -0.00883247
O        6.21927846       4.28282069       4.31554304        8      -0.00000000       0.00609870      -0.00883247
O        5.15968632       1.51501426       3.39425783        9      -0.00509854       0.00944519       0.00000000
10
Lattice="5.791825857969822 0.00555678858427762 0.0038368844336082782 3.1827468784435924 4.838946161583612 0.0038368844336029526 3.1827468784435893 1.7180569031099757 4.523681592913352" Properties=species:S:1:pos:R:3:spacegroup_kinds:I:1:forces:R:3 spacegroup="P 1" unit_cell=conventional occupancy="_JSON {\"0\": {\"In\": 1}, \"1\": {\"In\": 1}, \"2\": {\"In\": 1}, \"3\": {\"In\": 1}, \"4\": {\"O\": 1}, \"5\": {\"O\": 1}, \"6\": {\"O\": 1}, \"7\": {\"O\": 1}, \"8\": {\"O\": 1}, \"9\": {\"O\": 1}}" n_minim_iter=4 energy=-11287.692357205466 stress="0.005979659411362906 -9.26802565511428e-06 -6.399443855376541e-06 -9.26802565511428e-06 0.00599182577256109 -3.454437513067196e-06 -6.399443855376541e-06 -3.454437513067196e-06 0.00599444344187802" free_energy=-11287.692357205466 pbc="T T T"
In      10.41423691       5.62163826       3.88166222        0       0.00353317       0.00190722       0.00131691
In       7.82174252       4.22220153       2.91537082        1      -0.00353317      -0.00190722      -0.00131691
In       4.33557710       2.34035833       1.61598454        2       0.00353317       0.00190722       0.00131691
In       1.74308271       0.94092160       0.64969314        3      -0.00353317      -0.00190722      -0.00131691
O        5.93524284       2.27831346       0.21526703        4      -0.00000000      -0.00533972       0.00773328
O        6.99584081       5.04616735       1.13667573        5       0.00446403      -0.00826974      -0.00000000
O        8.05739174       2.15406600       2.47710783        6      -0.00446403       0.00293002       0.00773328
O        4.09992788       4.40849386       2.05424754        7       0.00446403      -0.00293002      -0.00773328
O        6.22207679       4.28424640       4.31608833        8      -0.00000000       0.00533972      -0.00773328
O        5.16147881       1.51639251       3.39467964        9      -0.00446403       0.00826974       0.00000000
