10
Lattice="5.521320283390972 0.0007218006649507452 0.0004983932164318596 3.0302724862488963 4.615455216104223 0.0004983932164214471 3.0302724862488932 1.635750740520737 4.3158714780615695" Properties=species:S:1:pos:R:3:spacegroup_kinds:I:1:forces:R:3 spacegroup="P 1" unit_cell=conventional occupancy="_JSON {\"0\": {\"In\": 1}, \"1\": {\"In\": 1}, \"2\": {\"In\": 1}, \"3\": {\"In\": 1}, \"4\": {\"O\": 1}, \"5\": {\"O\": 1}, \"6\": {\"O\": 1}, \"7\": {\"O\": 1}, \"8\": {\"O\": 1}, \"9\": {\"O\": 1}}" n_minim_iter=3 energy=-11288.409308759472 stress="0.12158565363902024 -6.07800393007548e-05 -4.1967763243823916e-05 -6.07800393007548e-05 0.12166544103968027 -2.2654334031877266e-05 -4.1967763243823916e-05 -2.2654334031877266e-05 0.12168260780381804" free_energy=-11288.409308759472 pbc="T T T"
In       9.90536402       5.34694705       3.69199180        0      -0.00614575      -0.00331750      -0.00229068
In       7.46743388       4.03094460       2.78331060        1       0.00614575       0.00331750       0.00229068
In       4.11443139       2.22098317       1.53355767        2      -0.00614575      -0.00331750      -0.00229068
In       1.67650125       0.90498072       0.62487647        3       0.00614575       0.00331750       0.00229068
O        5.65612646       2.15480856       0.22287285        4       0.00000000      -0.00101350       0.00146781
O        6.67679441       4.78708633       1.07971546        5       0.00084729      -0.00156963      -0.00000000
O        7.66573099       2.05666805       2.38080858        6      -0.00084729       0.00055613       0.00146781
O        3.91613427       4.19525971       1.93605968        7       0.00084729      -0.00055613      -0.00146781
O        5.92573880       4.09711920       4.09399542        8       0.00000000       0.00101350      -0.00146781
O        4.90507085       1.46484143       3.23715281        9      -0.00084729       0.00156963      -0.00000000
