10
Lattice="5.41782241168498 0.011392781198080503 0.00786655532623081 2.9824019359741305 4.523075079226215 0.007866555326227702 2.982401935974132 1.6099100649985074 4.226873506224953" Properties=species:S:1:pos:R:3:spacegroup_kinds:I:1:forces:R:3 spacegroup="P 1" unit_cell=conventional occupancy="_JSON {\"0\": {\"In\": 1}, \"1\": {\"In\": 1}, \"2\": {\"In\": 1}, \"3\": {\"In\": 1}, \"4\": {\"O\": 1}, \"5\": {\"O\": 1}, \"6\": {\"O\": 1}, \"7\": {\"O\": 1}, \"8\": {\"O\": 1}, \"9\": {\"O\": 1}}" n_minim_iter=1 energy=-11290.195122443965 stress="0.23511454632154286 0.00289959712015533 0.0020021310707281927 0.00289959712015533 0.23130817597980716 0.0010807567308339435 0.0020021310707281927 0.0010807567308339435 0.23048921155843394" free_energy=-11290.195122443965 pbc="T T T"
In       9.71455476       5.24394761       3.62087213        0      -0.16942910      -0.09145837      -0.06315072
In       7.35938468       3.97261929       2.74303780        1       0.16942910       0.09145837       0.06315072
In       4.02324162       2.17175864       1.49956882        2      -0.16942910      -0.09145837      -0.06315072
In       1.66807154       0.90043033       0.62173449        3       0.16942910       0.09145837       0.06315072
O        5.55456778       2.09774476       0.25942172        4       0.00000000      -0.32760103       0.47444996
O        6.58098853       4.66434634       1.06851821        5       0.27387609      -0.50736287      -0.00000000
O        7.51054897       2.04168187       2.37285848        6      -0.27387609       0.17976184       0.47444996
O        3.87207733       4.10269607       1.86974814        7       0.27387609      -0.17976184      -0.47444996
O        5.82805851       4.04663318       3.98318490        8       0.00000000       0.32760103      -0.47444996
O        4.80163776       1.48003160       3.17408841        9      -0.27387609       0.50736287      -0.00000000
10
Lattice="5.407667557352501 0.0009354234873381558 0.0006458967734617849 2.9680873423785563 4.52032375100192 0.0006458967734586796 2.9680873423785576 1.6021830017787906 4.226858982727695" Properties=species:S:1:pos:R:3:spacegroup_kinds:I:1:forces:R:3 spacegroup="P 1" unit_cell=conventional occupancy="_JSON {\"0\": {\"In\": 1}, \"1\": {\"In\": 1}, \"2\": {\"In\": 1}, \"3\": {\"In\": 1}, \"4\": {\"O\": 1}, \"5\": {\"O\": 1}, \"6\": {\"O\": 1}, \"7\": {\"O\": 1}, \"8\": {\"O\": 1}, \"9\": {\"O\": 1}}" n_minim_iter=2 energy=-11290.203448034024 stress="0.2272353717396667 -0.0106673851634759 -0.007365679562749797 -0.0106673851634759 0.2412387027826774 -0.003976017286787479 -0.007365679562749797 -0.003976017286787479 0.24425160720869032" free_energy=-11290.203448034024 pbc="T T T"
In       9.68036512       5.22549193       3.60812875        0       0.02004484       0.01082027       0.00747124
In       7.33539825       3.95967134       2.73409742        1      -0.02004484      -0.01082027      -0.00747124
In       4.00844400       2.16377084       1.49405336        2       0.02004484       0.01082027       0.00747124
In       1.66347713       0.89795026       0.62002203        3      -0.02004484      -0.01082027      -0.00747124
O        5.53979434       2.08611485       0.25388798        4       0.00000000      -0.25715733       0.37242949
O        6.56003366       4.65070024       1.05768359        5       0.21498481      -0.39826517       0.00000000
O        7.48764237       2.02799624       2.36731747        6      -0.21498481       0.14110784       0.37242949
O        3.85619988       4.09544594       1.86083331        7       0.21498481      -0.14110784      -0.37242949
O        5.80404791       4.03732734       3.97426280        8       0.00000000       0.25715733      -0.37242949
O        4.78380859       1.47274194       3.17046719        9      -0.21498481       0.39826517      -0.00000000
10
Lattice="5.430085874235064 0.023978640021625947 0.016556913987752237 2.9996530065051084 4.526421259373607 0.016556913987749142 2.99965300650511 1.6192222478216285 4.226923569319606" Properties=species:S:1:pos:R:3:spacegroup_kinds:I:1:forces:R:3 spacegroup="P 1" unit_cell=conventional occupancy="_JSON {\"0\": {\"In\": 1}, \"1\": {\"In\": 1}, \"2\": {\"In\": 1}, \"3\": {\"In\": 1}, \"4\": {\"O\": 1}, \"5\": {\"O\": 1}, \"6\": {\"O\": 1}, \"7\": {\"O\": 1}, \"8\": {\"O\": 1}, \"9\": {\"O\": 1}}" n_minim_iter=3 energy=-11290.250120063794 stress="0.26682664335641854 0.0009350386767133972 0.0006456310667368733 0.0009350386767133972 0.26559919577257657 0.00034851370539159133 0.0006456310667368733 0.00034851370539159133 0.26533510273994004" free_energy=-11290.250120063794 pbc="T T T"
In       9.74711711       5.26152487       3.63300898        0      -0.27101784      -0.14629629      -0.10101553
In       7.39697073       3.99290837       2.75704712        1       0.27101784       0.14629629       0.10101553
In       4.03242117       2.17671379       1.50299029        2      -0.27101784      -0.14629629      -0.10101553
In       1.68227479       0.90809729       0.62702842        3       0.27101784       0.14629629       0.10101553
O        5.57239091       2.09085594       0.29635516        4       0.00000000       0.02503054      -0.03625062
O        6.62373328       4.64843448       1.08156627        5      -0.02092566       0.03876535      -0.00000000
O        7.52070155       2.06963807       2.40981694        6       0.02092566      -0.01373480      -0.03625062
O        3.90869034       4.09998409       1.85022046        7      -0.02092566       0.01373480       0.03625062
O        5.85700098       4.07876622       3.96368225        8      -0.00000000      -0.02503054       0.03625062
O        4.80565862       1.52118767       3.17847114        9       0.02092566      -0.03876535       0.00000000
10
Lattice="5.435930387015989 0.02996047072907682 0.020687284034729015 3.0078608586405284 4.528024940009539 0.020687284034725948 3.0078608586405307 1.6236528725491164 4.226959802332178" Properties=species:S:1:pos:R:3:spacegroup_kinds:I:1:forces:R:3 spacegroup="P 1" unit_cell=conventional occupancy="_JSON {\"0\": {\"In\": 1}, \"1\": {\"In\": 1}, \"2\": {\"In\": 1}, \"3\": {\"In\": 1}, \"4\": {\"O\": 1}, \"5\": {\"O\": 1}, \"6\": {\"O\": 1}, \"7\": {\"O\": 1}, \"8\": {\"O\": 1}, \"9\": {\"O\": 1}}" n_minim_iter=4 energy=-11290.255604210075 stress="0.26692449937275536 -0.001848903454762215 -0.0012766418563110807 -0.001848903454762215 0.26935159905830064 -0.0006891353448369532 -0.0012766418563110807 -0.0006891353448369532 0.26987380476689987" free_energy=-11290.255604210075 pbc="T T T"
In       9.75825249       5.26753578       3.63715943        0       0.02180007       0.01176775       0.00812547
In       7.41922568       4.00492166       2.76534213        1      -0.02180007      -0.01176775      -0.00812547
In       4.03242644       2.17671664       1.50299225        2       0.02180007       0.01176775       0.00812547
In       1.69339963       0.91410251       0.63117494        3      -0.02180007      -0.01176775      -0.00812547
O        5.58087822       2.09494996       0.30324762        4       0.00000000       0.00700073      -0.01013884
O        6.63791370       4.65228726       1.08777088        5      -0.00585264       0.01084218       0.00000000
O        7.53170360       2.07889142       2.41672752        6       0.00585264      -0.00384145      -0.01013884
O        3.91994851       4.10274688       1.85160686        7      -0.00585264       0.00384145       0.01013884
O        5.87077389       4.08668833       3.96508676        8      -0.00000000      -0.00700073       0.01013884
O        4.81373841       1.52935103       3.18056350        9       0.00585264      -0.01084218      -0.00000000
10
Lattice="5.437561679171886 0.03162822401666579 0.021838844244586576 3.010150234346534 4.52847357572246 0.021838844244583516 3.0101502343465354 1.6248886848476545 4.2269713298044165" Properties=species:S:1:pos:R:3:spacegroup_kinds:I:1:forces:R:3 spacegroup="P 1" unit_cell=conventional occupancy="_JSON {\"0\": {\"In\": 1}, \"1\": {\"In\": 1}, \"2\": {\"In\": 1}, \"3\": {\"In\": 1}, \"4\": {\"O\": 1}, \"5\": {\"O\": 1}, \"6\": {\"O\": 1}, \"7\": {\"O\": 1}, \"8\": {\"O\": 1}, \"9\": {\"O\": 1}}" n_minim_iter=5 energy=-11290.255754317654 stress="0.2682507540939633 -0.0001499671792709843 -0.00010355023255337122 -0.0001499671792709843 0.2684476195912122 -5.589673797538249e-05 -0.00010355023255337122 -5.589673797538249e-05 0.2684899764313633" free_energy=-11290.255754317654 pbc="T T T"
In       9.76342462       5.27032771       3.63908723        0      -0.00030634      -0.00016536      -0.00011418
In       7.42336861       4.00715802       2.76688631        1       0.00030634       0.00016536       0.00011418
In       4.03449355       2.17783247       1.50376272        2      -0.00030634      -0.00016536      -0.00011418
In       1.69443754       0.91466278       0.63156180        3       0.00030634       0.00016536       0.00011418
O        5.58324638       2.09659484       0.30444123        4      -0.00000000       0.00139289      -0.00201725
O        6.64144916       4.65414162       1.08950110        5      -0.00116446       0.00215719      -0.00000000
O        7.53519384       2.08119609       2.41792690        6       0.00116446      -0.00076431      -0.00201725
O        3.92266832       4.10379440       1.85272213        7      -0.00116446       0.00076431       0.00201725
O        5.87461578       4.08839566       3.96620779        8       0.00000000      -0.00139289       0.00201725
O        4.81641300       1.53084888       3.18114792        9       0.00116446      -0.00215719       0.00000000
