40
Lattice="5.648024310858712 -3.387249829095487e-42 0.0 5.708918126634867e-42 5.975655811749471 0.0 0.0 0.0 16.517063332202582" Properties=species:S:1:pos:R:3:spacegroup_kinds:I:1:forces:R:3 spacegroup="P 1" unit_cell=conventional occupancy="_JSON {\"0\": {\"In\": 1}, \"1\": {\"In\": 1}, \"2\": {\"In\": 1}, \"3\": {\"In\": 1}, \"4\": {\"In\": 1}, \"5\": {\"In\": 1}, \"6\": {\"In\": 1}, \"7\": {\"In\": 1}, \"8\": {\"In\": 1}, \"9\": {\"In\": 1}, \"10\": {\"In\": 1}, \"11\": {\"In\": 1}, \"12\": {\"In\": 1}, \"13\": {\"In\": 1}, \"14\": {\"In\": 1}, \"15\": {\"In\": 1}, \"16\": {\"O\": 1}, \"17\": {\"O\": 1}, \"18\": {\"O\": 1}, \"19\": {\"O\": 1}, \"20\": {\"O\": 1}, \"21\": {\"O\": 1}, \"22\": {\"O\": 1}, \"23\": {\"O\": 1}, \"24\": {\"O\": 1}, \"25\": {\"O\": 1}, \"26\": {\"O\": 1}, \"27\": {\"O\": 1}, \"28\": {\"O\": 1}, \"29\": {\"O\": 1}, \"30\": {\"O\": 1}, \"31\": {\"O\": 1}, \"32\": {\"O\": 1}, \"33\": {\"O\": 1}, \"34\": {\"O\": 1}, \"35\": {\"O\": 1}, \"36\": {\"O\": 1}, \"37\": {\"O\": 1}, \"38\": {\"O\": 1}, \"39\": {\"O\": 1}}" n_minim_iter=12 energy=-45150.23969655082 stress="0.006632305031929155 1.4264018092809486e-13 4.406252660597085e-13 1.4264018092809486e-13 0.006688332091952454 1.6950802303116844e-12 4.406252660597085e-13 1.6950802303116844e-12 0.006615698430703901" free_energy=-45150.23969655082 pbc="T T T"
In       2.81731557       4.79818095       9.41709869        0       0.00184036       0.00029167       0.00308263
In      -0.00669658       4.16530277       7.09996464        1       0.00184036      -0.00029167      -0.00308263
In       2.83070874       1.81035304      15.35849630        2      -0.00184036       0.00029167      -0.00308263
In       5.65472089       1.17747487       1.15856703        3      -0.00184036      -0.00029167       0.00308263
In       2.83070874       1.17747487       7.09996464        4      -0.00184036      -0.00029167      -0.00308263
In       5.65472089       1.81035304       9.41709869        5      -0.00184036       0.00029167       0.00308263
In       2.81731557       4.16530277       1.15856703        6       0.00184036      -0.00029167       0.00308263
In      -0.00669658       4.79818095      15.35849630        7       0.00184036       0.00029167      -0.00308263
In       2.79473613       4.48144695      13.51502987        8      -0.00110856      -0.00485278      -0.00354937
In       5.61874829       4.48203677       3.00203346        9      -0.00110856       0.00485278       0.00354937
In       2.85328818       1.49361905      11.26056513       10       0.00110856      -0.00485278       0.00354937
In       0.02927602       1.49420886       5.25649820       11       0.00110856       0.00485278      -0.00354937
In       2.85328818       1.49420886       3.00203346       12       0.00110856       0.00485278       0.00354937
In       0.02927602       1.49361905      13.51502987       13       0.00110856      -0.00485278      -0.00354937
In       2.79473613       4.48203677       5.25649820       14      -0.00110856       0.00485278      -0.00354937
In       5.61874829       4.48144695      11.26056513       15      -0.00110856      -0.00485278       0.00354937
O        4.85209556       5.27894296      13.18013894       16      -0.00240212      -0.00355687       0.00440617
O        2.02808340       3.68454076       3.33692439       17      -0.00240212       0.00355687      -0.00440617
O        0.79592875       2.29111505      11.59545606       18       0.00240212      -0.00355687      -0.00440617
O        3.61994091       0.69671286       4.92160727       19       0.00240212       0.00355687       0.00440617
O        0.79592875       0.69671286       3.33692439       20       0.00240212       0.00355687      -0.00440617
O        3.61994091       2.29111505      13.18013894       21       0.00240212      -0.00355687       0.00440617
O        4.85209556       3.68454076       4.92160727       22      -0.00240212       0.00355687       0.00440617
O        2.02808340       5.27894296      11.59545606       23      -0.00240212      -0.00355687      -0.00440617
O        3.96338824       3.17138953      10.28921270       24       0.00491600       0.00365493      -0.00408389
O        1.13937608       5.79209419       6.22785063       25       0.00491600      -0.00365493       0.00408389
O        1.68463607       0.18356162      14.48638230       26      -0.00491600       0.00365493       0.00408389
O        4.50864823       2.80426628       2.03068103       27      -0.00491600      -0.00365493      -0.00408389
O        1.68463607       2.80426628       6.22785063       28      -0.00491600      -0.00365493       0.00408389
O        4.50864823       0.18356162      10.28921270       29      -0.00491600       0.00365493      -0.00408389
O        3.96338824       5.79209419       2.03068103       30       0.00491600      -0.00365493      -0.00408389
O        1.13937608       3.17138953      14.48638230       31       0.00491600       0.00365493       0.00408389
O        3.65906372       3.94321771      15.65701365       32      -0.00788744      -0.00167502       0.00102464
O        0.83505156       5.02026601       0.86004968       33      -0.00788744       0.00167502      -0.00102464
O        1.98896060       0.95538980       9.11858134       34       0.00788744      -0.00167502      -0.00102464
O        4.81297275       2.03243811       7.39848199       35       0.00788744       0.00167502       0.00102464
O        1.98896060       2.03243811       0.86004968       36       0.00788744       0.00167502      -0.00102464
O        4.81297275       0.95538980      15.65701365       37       0.00788744      -0.00167502       0.00102464
O        3.65906372       5.02026601       7.39848199       38      -0.00788744       0.00167502       0.00102464
O        0.83505156       3.94321771       9.11858134       39      -0.00788744      -0.00167502      -0.00102464
