40
Lattice="5.589771 0.0 0.0 0.0 5.775531 0.0 0.0 0.0 16.135291" Properties=species:S:1:pos:R:3:spacegroup_kinds:I:1:forces:R:3 spacegroup="P 1" unit_cell=conventional occupancy="_JSON {\"0\": {\"In\": 1}, \"1\": {\"In\": 1}, \"2\": {\"In\": 1}, \"3\": {\"In\": 1}, \"4\": {\"In\": 1}, \"5\": {\"In\": 1}, \"6\": {\"In\": 1}, \"7\": {\"In\": 1}, \"8\": {\"In\": 1}, \"9\": {\"In\": 1}, \"10\": {\"In\": 1}, \"11\": {\"In\": 1}, \"12\": {\"In\": 1}, \"13\": {\"In\": 1}, \"14\": {\"In\": 1}, \"15\": {\"In\": 1}, \"16\": {\"O\": 1}, \"17\": {\"O\": 1}, \"18\": {\"O\": 1}, \"19\": {\"O\": 1}, \"20\": {\"O\": 1}, \"21\": {\"O\": 1}, \"22\": {\"O\": 1}, \"23\": {\"O\": 1}, \"24\": {\"O\": 1}, \"25\": {\"O\": 1}, \"26\": {\"O\": 1}, \"27\": {\"O\": 1}, \"28\": {\"O\": 1}, \"29\": {\"O\": 1}, \"30\": {\"O\": 1}, \"31\": {\"O\": 1}, \"32\": {\"O\": 1}, \"33\": {\"O\": 1}, \"34\": {\"O\": 1}, \"35\": {\"O\": 1}, \"36\": {\"O\": 1}, \"37\": {\"O\": 1}, \"38\": {\"O\": 1}, \"39\": {\"O\": 1}}" n_minim_iter=1 energy=-45150.24508870911 stress="0.00035139887725239285 7.041657730536562e-13 -7.499928927917517e-13 7.041657730536562e-13 0.001054943033035895 1.1586611873628345e-12 -7.499928927917517e-13 1.1586611873628345e-12 -0.0024596569370488154" free_energy=-45150.24508870911 pbc="T T T"
In       2.80276149       4.57778405       9.19871326        0      -0.00137306       0.05321178      -0.00255868
In       0.00787599       4.08551245       6.93657774        1      -0.00137306      -0.05321178       0.00255868
In       2.78700951       1.69001855      15.00422324        2       0.00137306       0.05321178       0.00255868
In       5.58189501       1.19774695       1.13106776        3       0.00137306      -0.05321178      -0.00255868
In       2.78700951       1.19774695       6.93657774        4       0.00137306      -0.05321178       0.00255868
In       5.58189501       1.69001855       9.19871326        5       0.00137306       0.05321178      -0.00255868
In       2.80276149       4.08551245       1.13106776        6      -0.00137306      -0.05321178      -0.00255868
In       0.00787599       4.57778405      15.00422324        7      -0.00137306       0.05321178       0.00255868
In       2.78882060       4.26397058      13.20692931        8      -0.02847142       0.02571718       0.00297659
In       5.58370610       4.39932592       2.92836169        9      -0.02847142      -0.02571718      -0.00297659
In       2.80095040       1.37620508      10.99600719       10       0.02847142       0.02571718      -0.00297659
In       0.00606490       1.51156042       5.13928381       11       0.02847142      -0.02571718       0.00297659
In       2.80095040       1.51156042       2.92836169       12       0.02847142      -0.02571718      -0.00297659
In       0.00606490       1.37620508      13.20692931       13       0.02847142       0.02571718       0.00297659
In       2.78882060       4.39932592       5.13928381       14      -0.02847142      -0.02571718       0.00297659
In       5.58370610       4.26397058      10.99600719       15      -0.02847142       0.02571718      -0.00297659
O        4.81310027       5.03928363      12.87723691       16      -0.03175523      -0.01649400       0.01923735
O        2.01821477       3.62401287       3.25805409       17      -0.03175523       0.01649400      -0.01923735
O        0.77667073       2.15151813      11.32569959       18       0.03175523      -0.01649400      -0.01923735
O        3.57155623       0.73624737       4.80959141       19       0.03175523       0.01649400       0.01923735
O        0.77667073       0.73624737       3.25805409       20       0.03175523       0.01649400      -0.01923735
O        3.57155623       2.15151813      12.87723691       21       0.03175523      -0.01649400       0.01923735
O        4.81310027       3.62401287       4.80959141       22      -0.03175523       0.01649400       0.01923735
O        2.01821477       5.03928363      11.32569959       23      -0.03175523      -0.01649400      -0.01923735
O        3.94638951       2.99280508      10.06333897       24       0.03031753       0.06536502       0.07614283
O        1.15150401       5.67049142       6.07195203       25       0.03031753      -0.06536502      -0.07614283
O        1.64338149       0.10503958      14.13959753       26      -0.03031753       0.06536502      -0.07614283
O        4.43826699       2.78272592       1.99569347       27      -0.03031753      -0.06536502       0.07614283
O        1.64338149       2.78272592       6.07195203       28      -0.03031753      -0.06536502      -0.07614283
O        4.43826699       0.10503958      10.06333897       29      -0.03031753       0.06536502       0.07614283
O        3.94638951       5.67049142       1.99569347       30       0.03031753      -0.06536502       0.07614283
O        1.15150401       2.99280508      14.13959753       31       0.03031753       0.06536502      -0.07614283
O        3.62643660       3.77778060      15.28702648       32      -0.06345135       0.03077472       0.01831679
O        0.83155110       4.88551590       0.84826452       33      -0.06345135      -0.03077472      -0.01831679
O        1.96333440       0.89001510       8.91591002       34       0.06345135       0.03077472      -0.01831679
O        4.75821990       1.99775040       7.21938098       35       0.06345135      -0.03077472       0.01831679
O        1.96333440       1.99775040       0.84826452       36       0.06345135      -0.03077472      -0.01831679
O        4.75821990       0.89001510      15.28702648       37       0.06345135       0.03077472       0.01831679
O        3.62643660       4.88551590       7.21938098       38      -0.06345135      -0.03077472       0.01831679
O        0.83155110       3.77778060       8.91591002       39      -0.06345135       0.03077472      -0.01831679
40
Lattice="5.58782354788904 1.149222339941162e-44 0.0 -3.231924486953811e-44 5.769492322270086 0.0 0.0 0.0 16.17469398725915" Properties=species:S:1:pos:R:3:spacegroup_kinds:I:1:forces:R:3 spacegroup="P 1" unit_cell=conventional occupancy="_JSON {\"0\": {\"In\": 1}, \"1\": {\"In\": 1}, \"2\": {\"In\": 1}, \"3\": {\"In\": 1}, \"4\": {\"In\": 1}, \"5\": {\"In\": 1}, \"6\": {\"In\": 1}, \"7\": {\"In\": 1}, \"8\": {\"In\": 1}, \"9\": {\"In\": 1}, \"10\": {\"In\": 1}, \"11\": {\"In\": 1}, \"12\": {\"In\": 1}, \"13\": {\"In\": 1}, \"14\": {\"In\": 1}, \"15\": {\"In\": 1}, \"16\": {\"O\": 1}, \"17\": {\"O\": 1}, \"18\": {\"O\": 1}, \"19\": {\"O\": 1}, \"20\": {\"O\": 1}, \"21\": {\"O\": 1}, \"22\": {\"O\": 1}, \"23\": {\"O\": 1}, \"24\": {\"O\": 1}, \"25\": {\"O\": 1}, \"26\": {\"O\": 1}, \"27\": {\"O\": 1}, \"28\": {\"O\": 1}, \"29\": {\"O\": 1}, \"30\": {\"O\": 1}, \"31\": {\"O\": 1}, \"32\": {\"O\": 1}, \"33\": {\"O\": 1}, \"34\": {\"O\": 1}, \"35\": {\"O\": 1}, \"36\": {\"O\": 1}, \"37\": {\"O\": 1}, \"38\": {\"O\": 1}, \"39\": {\"O\": 1}}" n_minim_iter=2 energy=-45150.24728374807 stress="-0.00047479306228521853 -3.417017970083553e-14 -3.419582458123433e-13 -3.417017970083553e-14 -0.0004902708260691113 -2.7573505279245523e-13 -3.419582458123433e-13 -2.7573505279245523e-13 -0.00024075310882151044" free_energy=-45150.24728374807 pbc="T T T"
In       2.80178241       4.57309888       9.22117198        0       0.01110459       0.05670015      -0.01763076
In       0.00787063       4.08113960       6.95352201        1       0.01110459      -0.05670015       0.01763076
In       2.78604114       1.68835272      15.04086900        2      -0.01110459       0.05670015       0.01763076
In       5.57995291       1.19639344       1.13382499        3      -0.01110459      -0.05670015      -0.01763076
In       2.78604114       1.19639344       6.95352201        4      -0.01110459      -0.05670015       0.01763076
In       5.57995291       1.68835272       9.22117198        5      -0.01110459       0.05670015      -0.01763076
In       2.80178241       4.08113960       1.13382499        6       0.01110459      -0.05670015      -0.01763076
In       0.00787063       4.57309888      15.04086900        7       0.01110459       0.05670015       0.01763076
In       2.78779481       4.25956124      13.23918681        8      -0.04037911       0.03648959       0.01067022
In       5.58170658       4.39467725       2.93550718        9      -0.04037911      -0.03648959      -0.01067022
In       2.80002874       1.37481508      11.02285417       10       0.04037911       0.03648959      -0.01067022
In       0.00611697       1.50993108       5.15183981       11       0.04037911      -0.03648959       0.01067022
In       2.80002874       1.50993108       2.93550718       12       0.04037911      -0.03648959      -0.01067022
In       0.00611697       1.37481508      13.23918681       13       0.04037911       0.03648959       0.01067022
In       2.78779481       4.39467725       5.15183981       14      -0.04037911      -0.03648959       0.01067022
In       5.58170658       4.25956124      11.02285417       15      -0.04037911       0.03648959      -0.01067022
O        4.81136298       5.03398338      12.90872032       16      -0.01272108      -0.02336363      -0.00254370
O        2.01745120       3.62025510       3.26597367       17      -0.01272108       0.02336363       0.00254370
O        0.77646057       2.14923722      11.35332066       18       0.01272108      -0.02336363       0.00254370
O        3.57037234       0.73550894       4.82137332       19       0.01272108       0.02336363      -0.00254370
O        0.77646057       0.73550894       3.26597367       20       0.01272108       0.02336363       0.00254370
O        3.57037234       2.14923722      12.90872032       21       0.01272108      -0.02336363      -0.00254370
O        4.81136298       3.62025510       4.82137332       22      -0.01272108       0.02336363      -0.00254370
O        2.01745120       5.03398338      11.35332066       23      -0.01272108      -0.02336363       0.00254370
O        3.94507230       2.98980022      10.08805932       24       0.04050387       0.05724132       0.06239018
O        1.15116052       5.66443827       6.08663466       25       0.04050387      -0.05724132      -0.06239018
O        1.64275125       0.10505406      14.17398166       26      -0.04050387       0.05724132      -0.06239018
O        4.43666302       2.77969211       2.00071233       27      -0.04050387      -0.05724132       0.06239018
O        1.64275125       2.77969211       6.08663466       28      -0.04050387      -0.05724132      -0.06239018
O        4.43666302       0.10505406      10.08805932       29      -0.04050387       0.05724132       0.06239018
O        3.94507230       5.66443827       2.00071233       30       0.04050387      -0.05724132       0.06239018
O        1.15116052       2.98980022      14.17398166       31       0.04050387       0.05724132      -0.06239018
O        3.62505242       3.77388922      15.32439293       32      -0.07318459       0.03721701       0.04447877
O        0.83114064       4.88034927       0.85030106       33      -0.07318459      -0.03721701      -0.04447877
O        1.96277113       0.88914306       8.93764805       34       0.07318459       0.03721701      -0.04447877
O        4.75668290       1.99560310       7.23704593       35       0.07318459      -0.03721701       0.04447877
O        1.96277113       1.99560310       0.85030106       36       0.07318459      -0.03721701      -0.04447877
O        4.75668290       0.88914306      15.32439293       37       0.07318459       0.03721701       0.04447877
O        3.62505242       4.88034927       7.23704593       38      -0.07318459      -0.03721701       0.04447877
O        0.83114064       3.77388922       8.93764805       39      -0.07318459       0.03721701      -0.04447877
40
Lattice="5.594553431004446 6.671138104046997e-45 0.0 -2.1342348936446873e-44 5.775527232714383 0.0 0.0 0.0 16.19675293995975" Properties=species:S:1:pos:R:3:spacegroup_kinds:I:1:forces:R:3 spacegroup="P 1" unit_cell=conventional occupancy="_JSON {\"0\": {\"In\": 1}, \"1\": {\"In\": 1}, \"2\": {\"In\": 1}, \"3\": {\"In\": 1}, \"4\": {\"In\": 1}, \"5\": {\"In\": 1}, \"6\": {\"In\": 1}, \"7\": {\"In\": 1}, \"8\": {\"In\": 1}, \"9\": {\"In\": 1}, \"10\": {\"In\": 1}, \"11\": {\"In\": 1}, \"12\": {\"In\": 1}, \"13\": {\"In\": 1}, \"14\": {\"In\": 1}, \"15\": {\"In\": 1}, \"16\": {\"O\": 1}, \"17\": {\"O\": 1}, \"18\": {\"O\": 1}, \"19\": {\"O\": 1}, \"20\": {\"O\": 1}, \"21\": {\"O\": 1}, \"22\": {\"O\": 1}, \"23\": {\"O\": 1}, \"24\": {\"O\": 1}, \"25\": {\"O\": 1}, \"26\": {\"O\": 1}, \"27\": {\"O\": 1}, \"28\": {\"O\": 1}, \"29\": {\"O\": 1}, \"30\": {\"O\": 1}, \"31\": {\"O\": 1}, \"32\": {\"O\": 1}, \"33\": {\"O\": 1}, \"34\": {\"O\": 1}, \"35\": {\"O\": 1}, \"36\": {\"O\": 1}, \"37\": {\"O\": 1}, \"38\": {\"O\": 1}, \"39\": {\"O\": 1}}" n_minim_iter=3 energy=-45150.2483360802 stress="0.001272651670311934 -1.4808633226384217e-12 -6.40921908889894e-13 -1.4808633226384217e-12 -0.00014733088641406535 -5.786110260045596e-13 -6.40921908889894e-13 -5.786110260045596e-13 0.00024196800684525278" free_energy=-45150.2483360802 pbc="T T T"
In       2.80521459       4.57820980       9.23365292        0       0.00665379       0.04585540      -0.02814922
In       0.00793787       4.08508105       6.96310002        1       0.00665379      -0.04585540       0.02814922
In       2.78933884       1.69044619      15.06147649        2      -0.00665379       0.04585540       0.02814922
In       5.58661556       1.19731743       1.13527645        3      -0.00665379      -0.04585540      -0.02814922
In       2.78933884       1.19731743       6.96310002        4      -0.00665379      -0.04585540       0.02814922
In       5.58661556       1.69044619       9.23365292        5      -0.00665379       0.04585540      -0.02814922
In       2.80521459       4.08508105       1.13527645        6       0.00665379      -0.04585540      -0.02814922
In       0.00793787       4.57820980      15.06147649        7       0.00665379       0.04585540       0.02814922
In       2.79092401       4.26422281      13.25730052        8      -0.03885068       0.04564457       0.00928884
In       5.58820072       4.39906804       2.93945242        9      -0.03885068      -0.04564457      -0.00928884
In       2.80362942       1.37645920      11.03782889       10       0.03885068       0.04564457      -0.00928884
In       0.00635271       1.51130442       5.15892405       11       0.03885068      -0.04564457       0.00928884
In       2.80362942       1.51130442       2.93945242       12       0.03885068      -0.04564457      -0.00928884
In       0.00635271       1.37645920      13.25730052       13       0.03885068       0.04564457       0.00928884
In       2.79092401       4.39906804       5.15892405       14      -0.03885068      -0.04564457       0.00928884
In       5.58820072       4.26422281      11.03782889       15      -0.03885068       0.04564457      -0.00928884
O        4.81707327       5.03911699      12.92632225       16      -0.00877664      -0.02804364      -0.01147036
O        2.01979655       3.62417385       3.27043069       17      -0.00877664       0.02804364       0.01147036
O        0.77748016       2.15135338      11.36880716       18       0.00877664      -0.02804364       0.01147036
O        3.57475688       0.73641024       4.82794578       19       0.00877664       0.02804364      -0.01147036
O        0.77748016       0.73641024       3.27043069       20       0.00877664       0.02804364       0.01147036
O        3.57475688       2.15135338      12.92632225       21       0.00877664      -0.02804364      -0.01147036
O        4.81707327       3.62417385       4.82794578       22      -0.00877664       0.02804364      -0.01147036
O        2.01979655       5.03911699      11.36880716       23      -0.00877664      -0.02804364       0.01147036
O        3.95005372       2.99326451      10.10218986       24       0.02935737       0.05986739       0.04604226
O        1.15277700       5.67002634       6.09456308       25       0.02935737      -0.05986739      -0.04604226
O        1.64449971       0.10550089      14.19293955       26      -0.02935737       0.05986739      -0.04604226
O        4.44177643       2.78226273       2.00381339       27      -0.02935737      -0.05986739       0.04604226
O        1.64449971       2.78226273       6.09456308       28      -0.02935737      -0.05986739      -0.04604226
O        4.44177643       0.10550089      10.10218986       29      -0.02935737       0.05986739       0.04604226
O        3.95005372       5.67002634       2.00381339       30       0.02935737      -0.05986739       0.04604226
O        1.15277700       2.99326451      14.19293955       31       0.02935737       0.05986739      -0.04604226
O        3.62899797       3.77804937      15.34553803       32      -0.05680217       0.04784172       0.04908891
O        0.83172125       4.88524148       0.85121491       33      -0.05680217      -0.04784172      -0.04908891
O        1.96555546       0.89028576       8.94959138       34       0.05680217       0.04784172      -0.04908891
O        4.76283218       1.99747786       7.24716156       35       0.05680217      -0.04784172       0.04908891
O        1.96555546       1.99747786       0.85121491       36       0.05680217      -0.04784172      -0.04908891
O        4.76283218       0.89028576      15.34553803       37       0.05680217       0.04784172       0.04908891
O        3.62899797       4.88524148       7.24716156       38      -0.05680217      -0.04784172       0.04908891
O        0.83172125       3.77804937       8.94959138       39      -0.05680217       0.04784172      -0.04908891
40
Lattice="5.588825620988526 -2.405442351675704e-43 0.0 4.2791560513471277e-44 5.788137151064126 0.0 0.0 0.0 16.222611583893542" Properties=species:S:1:pos:R:3:spacegroup_kinds:I:1:forces:R:3 spacegroup="P 1" unit_cell=conventional occupancy="_JSON {\"0\": {\"In\": 1}, \"1\": {\"In\": 1}, \"2\": {\"In\": 1}, \"3\": {\"In\": 1}, \"4\": {\"In\": 1}, \"5\": {\"In\": 1}, \"6\": {\"In\": 1}, \"7\": {\"In\": 1}, \"8\": {\"In\": 1}, \"9\": {\"In\": 1}, \"10\": {\"In\": 1}, \"11\": {\"In\": 1}, \"12\": {\"In\": 1}, \"13\": {\"In\": 1}, \"14\": {\"In\": 1}, \"15\": {\"In\": 1}, \"16\": {\"O\": 1}, \"17\": {\"O\": 1}, \"18\": {\"O\": 1}, \"19\": {\"O\": 1}, \"20\": {\"O\": 1}, \"21\": {\"O\": 1}, \"22\": {\"O\": 1}, \"23\": {\"O\": 1}, \"24\": {\"O\": 1}, \"25\": {\"O\": 1}, \"26\": {\"O\": 1}, \"27\": {\"O\": 1}, \"28\": {\"O\": 1}, \"29\": {\"O\": 1}, \"30\": {\"O\": 1}, \"31\": {\"O\": 1}, \"32\": {\"O\": 1}, \"33\": {\"O\": 1}, \"34\": {\"O\": 1}, \"35\": {\"O\": 1}, \"36\": {\"O\": 1}, \"37\": {\"O\": 1}, \"38\": {\"O\": 1}, \"39\": {\"O\": 1}}" n_minim_iter=4 energy=-45150.24994474733 stress="-0.00015457846340102634 8.24904773974288e-13 3.372713866825928e-13 8.24904773974288e-13 0.0009007132493800367 2.02969560084271e-12 3.372713866825928e-13 2.02969560084271e-12 0.001276607742221245" free_energy=-45150.24994474733 pbc="T T T"
In       2.80247118       4.58896846       9.24810278        0       0.00840246       0.04509528      -0.02697054
In       0.00805837       4.09323727       6.97450881        1       0.00840246      -0.04509528       0.02697054
In       2.78635444       1.69489988      15.08581460        2      -0.00840246       0.04509528       0.02697054
In       5.58076725       1.19916869       1.13679699        3      -0.00840246      -0.04509528      -0.02697054
In       2.78635444       1.19916869       6.97450881        4      -0.00840246      -0.04509528       0.02697054
In       5.58076725       1.69489988       9.24810278        5      -0.00840246       0.04509528      -0.02697054
In       2.80247118       4.09323727       1.13679699        6       0.00840246      -0.04509528      -0.02697054
In       0.00805837       4.58896846      15.08581460        7       0.00840246       0.04509528       0.02697054
In       2.78750335       4.27409170      13.27860796        8      -0.04750596       0.04503911       0.00243286
In       5.58191616       4.40811402       2.94400363        9      -0.04750596      -0.04503911      -0.00243286
In       2.80132227       1.38002313      11.05530942       10       0.04750596       0.04503911      -0.00243286
In       0.00690946       1.51404545       5.16730217       11       0.04750596      -0.04503911       0.00243286
In       2.80132227       1.51404545       2.94400363       12       0.04750596      -0.04503911      -0.00243286
In       0.00690946       1.38002313      13.27860796       13       0.04750596       0.04503911       0.00243286
In       2.78750335       4.40811402       5.16730217       14      -0.04750596      -0.04503911       0.00243286
In       5.58191616       4.27409170      11.05530942       15      -0.04750596       0.04503911      -0.00243286
O        4.81196116       5.04976684      12.94689917       16      -0.00898954      -0.01936087      -0.01620864
O        2.01754835       3.63243889       3.27571242       17      -0.00898954       0.01936087       0.01620864
O        0.77686446       2.15569826      11.38701821       18       0.00898954      -0.01936087       0.01620864
O        3.57127727       0.73837031       4.83559338       19       0.00898954       0.01936087      -0.01620864
O        0.77686446       0.73837031       3.27571242       20       0.00898954       0.01936087       0.01620864
O        3.57127727       2.15569826      12.94689917       21       0.00898954      -0.01936087      -0.01620864
O        4.81196116       3.63243889       4.83559338       22      -0.00898954       0.01936087      -0.01620864
O        2.01754835       5.04976684      11.38701821       23      -0.00898954      -0.01936087       0.01620864
O        3.94653154       3.00064256      10.11915737       24       0.00506366       0.06235120       0.02778637
O        1.15211873       5.68156317       6.10345422       25       0.00506366      -0.06235120      -0.02778637
O        1.64229408       0.10657398      14.21476001       26      -0.00506366       0.06235120      -0.02778637
O        4.43670689       2.78749459       2.00785157       27      -0.00506366      -0.06235120       0.02778637
O        1.64229408       2.78749459       6.10345422       28      -0.00506366      -0.06235120      -0.02778637
O        4.43670689       0.10657398      10.11915737       29      -0.00506366       0.06235120       0.02778637
O        3.94653154       5.68156317       2.00785157       30       0.00506366      -0.06235120       0.02778637
O        1.15211873       3.00064256      14.21476001       31       0.00506366       0.06235120      -0.02778637
O        3.62431485       3.78687766      15.37068180       32      -0.03990357       0.04022128       0.04410317
O        0.82990204       4.89532807       0.85192978       33      -0.03990357      -0.04022128      -0.04410317
O        1.96451077       0.89280908       8.96323558       34       0.03990357       0.04022128      -0.04410317
O        4.75892358       2.00125949       7.25937601       35       0.03990357      -0.04022128       0.04410317
O        1.96451077       2.00125949       0.85192978       36       0.03990357      -0.04022128      -0.04410317
O        4.75892358       0.89280908      15.37068180       37       0.03990357       0.04022128       0.04410317
O        3.62431485       4.89532807       7.25937601       38      -0.03990357      -0.04022128       0.04410317
O        0.82990204       3.78687766       8.96323558       39      -0.03990357       0.04022128      -0.04410317
40
Lattice="5.5868689005198 -2.4011403033915763e-43 0.0 1.0687088268073515e-43 5.775873496977403 0.0 0.0 0.0 16.209809410549514" Properties=species:S:1:pos:R:3:spacegroup_kinds:I:1:forces:R:3 spacegroup="P 1" unit_cell=conventional occupancy="_JSON {\"0\": {\"In\": 1}, \"1\": {\"In\": 1}, \"2\": {\"In\": 1}, \"3\": {\"In\": 1}, \"4\": {\"In\": 1}, \"5\": {\"In\": 1}, \"6\": {\"In\": 1}, \"7\": {\"In\": 1}, \"8\": {\"In\": 1}, \"9\": {\"In\": 1}, \"10\": {\"In\": 1}, \"11\": {\"In\": 1}, \"12\": {\"In\": 1}, \"13\": {\"In\": 1}, \"14\": {\"In\": 1}, \"15\": {\"In\": 1}, \"16\": {\"O\": 1}, \"17\": {\"O\": 1}, \"18\": {\"O\": 1}, \"19\": {\"O\": 1}, \"20\": {\"O\": 1}, \"21\": {\"O\": 1}, \"22\": {\"O\": 1}, \"23\": {\"O\": 1}, \"24\": {\"O\": 1}, \"25\": {\"O\": 1}, \"26\": {\"O\": 1}, \"27\": {\"O\": 1}, \"28\": {\"O\": 1}, \"29\": {\"O\": 1}, \"30\": {\"O\": 1}, \"31\": {\"O\": 1}, \"32\": {\"O\": 1}, \"33\": {\"O\": 1}, \"34\": {\"O\": 1}, \"35\": {\"O\": 1}, \"36\": {\"O\": 1}, \"37\": {\"O\": 1}, \"38\": {\"O\": 1}, \"39\": {\"O\": 1}}" n_minim_iter=5 energy=-45150.256507801125 stress="-0.0003424569361297534 -5.0987364263388685e-14 1.159325444331671e-12 -5.0987364263388685e-14 0.0002190110822078798 3.0290114071193002e-12 1.159325444331671e-12 3.0290114071193002e-12 0.00030214770836965043" free_energy=-45150.256507801125 pbc="T T T"
In       2.80196707       4.58216198       9.23962940        0      -0.03048228       0.01106179       0.02845751
In       0.00853262       4.08164826       6.97018001        1      -0.03048228      -0.01106179      -0.02845751
In       2.78490183       1.69422523      15.07508472        2       0.03048228       0.01106179      -0.02845751
In       5.57833628       1.19371152       1.13472469        3       0.03048228      -0.01106179       0.02845751
In       2.78490183       1.19371152       6.97018001        4       0.03048228      -0.01106179      -0.02845751
In       5.57833628       1.69422523       9.23962940        5       0.03048228       0.01106179       0.02845751
In       2.80196707       4.08164826       1.13472469        6      -0.03048228      -0.01106179       0.02845751
In       0.00853262       4.58216198      15.07508472        7      -0.03048228       0.01106179      -0.02845751
In       2.78421576       4.26726884      13.26856393        8      -0.01000002       0.03010439       0.00128036
In       5.57765021       4.39654141       2.94124548        9      -0.01000002      -0.03010439      -0.00128036
In       2.80265314       1.37933209      11.04615018       10       0.01000002       0.03010439      -0.00128036
In       0.00921869       1.50860466       5.16365923       11       0.01000002      -0.03010439       0.00128036
In       2.80265314       1.50860466       2.94124548       12       0.01000002      -0.03010439      -0.00128036
In       0.00921869       1.37933209      13.26856393       13       0.01000002       0.03010439       0.00128036
In       2.78421576       4.39654141       5.16365923       14      -0.01000002      -0.03010439       0.00128036
In       5.57765021       4.26726884      11.04615018       15      -0.01000002       0.03010439      -0.00128036
O        4.80954909       5.03778638      12.93635990       16      -0.02412126       0.00298670       0.01525219
O        2.01611464       3.62602387       3.27344951       17      -0.02412126      -0.00298670      -0.01525219
O        0.77731981       2.14984963      11.37835422       18       0.02412126       0.00298670      -0.01525219
O        3.57075426       0.73808712       4.83145519       19       0.02412126      -0.00298670       0.01525219
O        0.77731981       0.73808712       3.27344951       20       0.02412126      -0.00298670      -0.01525219
O        3.57075426       2.14984963      12.93635990       21       0.02412126       0.00298670       0.01525219
O        4.80954909       3.62602387       4.83145519       22      -0.02412126      -0.00298670       0.01525219
O        2.01611464       5.03778638      11.37835422       23      -0.02412126       0.00298670      -0.01525219
O        3.94676616       2.99767717      10.11413668       24      -0.00297292       0.05391450       0.00880417
O        1.15333171       5.66613308       6.09567273       25      -0.00297292      -0.05391450      -0.00880417
O        1.64010274       0.10974042      14.20057743       26       0.00297292       0.05391450      -0.00880417
O        4.43353719       2.77819633       2.00923198       27       0.00297292      -0.05391450       0.00880417
O        1.64010274       2.77819633       6.09567273       28       0.00297292      -0.05391450      -0.00880417
O        4.43353719       0.10974042      10.11413668       29       0.00297292       0.05391450       0.00880417
O        3.94676616       5.66613308       2.00923198       30      -0.00297292      -0.05391450       0.00880417
O        1.15333171       2.99767717      14.20057743       31      -0.00297292       0.05391450      -0.00880417
O        3.61959905       3.78108748      15.36099882       32       0.00882695       0.04638826      -0.00375626
O        0.82616460       4.88272277       0.84881059       33       0.00882695      -0.04638826       0.00375626
O        1.96726985       0.89315073       8.95371530       34      -0.00882695       0.04638826       0.00375626
O        4.76070430       1.99478602       7.25609411       35      -0.00882695      -0.04638826      -0.00375626
O        1.96726985       1.99478602       0.84881059       36      -0.00882695      -0.04638826       0.00375626
O        4.76070430       0.89315073      15.36099882       37      -0.00882695       0.04638826      -0.00375626
O        3.61959905       4.88272277       7.25609411       38       0.00882695      -0.04638826      -0.00375626
O        0.82616460       3.78108748       8.95371530       39       0.00882695       0.04638826       0.00375626
40