40
Lattice="5.6431338826883755 -3.519581144799345e-42 0.0 7.1104690042075044e-43 5.870058331875749 0.0 0.0 0.0 16.43739645911103" Properties=species:S:1:pos:R:3:spacegroup_kinds:I:1:forces:R:3 spacegroup="P 1" unit_cell=conventional occupancy="_JSON {\"0\": {\"In\": 1}, \"1\": {\"In\": 1}, \"2\": {\"In\": 1}, \"3\": {\"In\": 1}, \"4\": {\"In\": 1}, \"5\": {\"In\": 1}, \"6\": {\"In\": 1}, \"7\": {\"In\": 1}, \"8\": {\"In\": 1}, \"9\": {\"In\": 1}, \"10\": {\"In\": 1}, \"11\": {\"In\": 1}, \"12\": {\"In\": 1}, \"13\": {\"In\": 1}, \"14\": {\"In\": 1}, \"15\": {\"In\": 1}, \"16\": {\"O\": 1}, \"17\": {\"O\": 1}, \"18\": {\"O\": 1}, \"19\": {\"O\": 1}, \"20\": {\"O\": 1}, \"21\": {\"O\": 1}, \"22\": {\"O\": 1}, \"23\": {\"O\": 1}, \"24\": {\"O\": 1}, \"25\": {\"O\": 1}, \"26\": {\"O\": 1}, \"27\": {\"O\": 1}, \"28\": {\"O\": 1}, \"29\": {\"O\": 1}, \"30\": {\"O\": 1}, \"31\": {\"O\": 1}, \"32\": {\"O\": 1}, \"33\": {\"O\": 1}, \"34\": {\"O\": 1}, \"35\": {\"O\": 1}, \"36\": {\"O\": 1}, \"37\": {\"O\": 1}, \"38\": {\"O\": 1}, \"39\": {\"O\": 1}}" n_minim_iter=16 energy=-45150.28805731698 stress="0.0008663877330601117 -2.054580243800026e-13 8.486870614317575e-13 -2.054580243800026e-13 0.0008795109775923468 -1.2774552806809852e-12 8.486870614317575e-13 -1.2774552806809852e-12 0.0007897294421854381" free_energy=-45150.28805731698 pbc="T T T"
In       2.81804643       4.70356771       9.37790392        0      -0.00441615       0.00498821      -0.00108302
In      -0.00352051       4.10151979       7.05949253        1      -0.00441615      -0.00498821       0.00108302
In       2.82508745       1.76853854      15.27819076        2       0.00441615       0.00498821       0.00108302
In       5.64665439       1.16649062       1.15920569        3       0.00441615      -0.00498821      -0.00108302
In       2.82508745       1.16649062       7.05949253        4       0.00441615      -0.00498821       0.00108302
In       5.64665439       1.76853854       9.37790392        5       0.00441615       0.00498821      -0.00108302
In       2.81804643       4.10151979       1.15920569        6      -0.00441615      -0.00498821      -0.00108302
In      -0.00352051       4.70356771      15.27819076        7      -0.00441615       0.00498821       0.00108302
In       2.80139625       4.40746258      13.45329975        8      -0.00548444       0.00314461      -0.00256690
In       5.62296319       4.39762492       2.98409671        9      -0.00548444      -0.00314461       0.00256690
In       2.84173764       1.47243341      11.20279494       10       0.00548444       0.00314461       0.00256690
In       0.02017070       1.46259575       5.23460152       11       0.00548444      -0.00314461      -0.00256690
In       2.84173764       1.46259575       2.98409671       12       0.00548444      -0.00314461       0.00256690
In       0.02017070       1.47243341      13.45329975       13       0.00548444       0.00314461      -0.00256690
In       2.80139625       4.39762492       5.23460152       14      -0.00548444      -0.00314461      -0.00256690
In       5.62296319       4.40746258      11.20279494       15      -0.00548444       0.00314461       0.00256690
O        4.85139106       5.18965147      13.11546891       16      -0.00312311       0.00231912       0.00029906
O        2.02982412       3.61543603       3.32192755       17      -0.00312311      -0.00231912      -0.00029906
O        0.79174282       2.25462230      11.54062578       18       0.00312311       0.00231912      -0.00029906
O        3.61330977       0.68040687       4.89677068       19       0.00312311      -0.00231912       0.00029906
O        0.79174282       0.68040687       3.32192755       20       0.00312311      -0.00231912      -0.00029906
O        3.61330977       2.25462230      13.11546891       21       0.00312311       0.00231912       0.00029906
O        4.85139106       3.61543603       4.89677068       22      -0.00312311      -0.00231912       0.00029906
O        2.02982412       5.18965147      11.54062578       23      -0.00312311       0.00231912      -0.00029906
O        3.98077318       3.10803950      10.24815481       24       0.00095592      -0.00311527      -0.00024860
O        1.15920624       5.69704800       6.18924165       25       0.00095592       0.00311527       0.00024860
O        1.66236070       0.17301034      14.40793988       26      -0.00095592      -0.00311527       0.00024860
O        4.48392764       2.76201883       2.02945658       27      -0.00095592       0.00311527      -0.00024860
O        1.66236070       2.76201883       6.18924165       28      -0.00095592       0.00311527       0.00024860
O        4.48392764       0.17301034      10.24815481       29      -0.00095592      -0.00311527      -0.00024860
O        3.98077318       5.69704800       2.02945658       30       0.00095592       0.00311527      -0.00024860
O        1.15920624       3.10803950      14.40793988       31       0.00095592      -0.00311527       0.00024860
O        3.65164523       3.88422311      15.58152998       32      -0.00442004      -0.00204433      -0.00021144
O        0.83007829       4.92086439       0.85586648       33      -0.00442004       0.00204433       0.00021144
O        1.99148865       0.94919394       9.07456471       34       0.00442004      -0.00204433       0.00021144
O        4.81305559       1.98583522       7.36283175       35       0.00442004       0.00204433      -0.00021144
O        1.99148865       1.98583522       0.85586648       36       0.00442004       0.00204433       0.00021144
O        4.81305559       0.94919394      15.58152998       37       0.00442004      -0.00204433      -0.00021144
O        3.65164523       4.92086439       7.36283175       38      -0.00442004       0.00204433      -0.00021144
O        0.83007829       3.88422311       9.07456471       39      -0.00442004      -0.00204433       0.00021144
