40
Lattice="5.2955130977738385 2.936502775592219e-42 0.0 -3.046998542922335e-42 5.494774541695748 0.0 0.0 0.0 15.148425792070894" Properties=species:S:1:pos:R:3:spacegroup_kinds:I:1:forces:R:3 spacegroup="P 1" unit_cell=conventional occupancy="_JSON {\"0\": {\"In\": 1}, \"1\": {\"In\": 1}, \"2\": {\"In\": 1}, \"3\": {\"In\": 1}, \"4\": {\"In\": 1}, \"5\": {\"In\": 1}, \"6\": {\"In\": 1}, \"7\": {\"In\": 1}, \"8\": {\"In\": 1}, \"9\": {\"In\": 1}, \"10\": {\"In\": 1}, \"11\": {\"In\": 1}, \"12\": {\"In\": 1}, \"13\": {\"In\": 1}, \"14\": {\"In\": 1}, \"15\": {\"In\": 1}, \"16\": {\"O\": 1}, \"17\": {\"O\": 1}, \"18\": {\"O\": 1}, \"19\": {\"O\": 1}, \"20\": {\"O\": 1}, \"21\": {\"O\": 1}, \"22\": {\"O\": 1}, \"23\": {\"O\": 1}, \"24\": {\"O\": 1}, \"25\": {\"O\": 1}, \"26\": {\"O\": 1}, \"27\": {\"O\": 1}, \"28\": {\"O\": 1}, \"29\": {\"O\": 1}, \"30\": {\"O\": 1}, \"31\": {\"O\": 1}, \"32\": {\"O\": 1}, \"33\": {\"O\": 1}, \"34\": {\"O\": 1}, \"35\": {\"O\": 1}, \"36\": {\"O\": 1}, \"37\": {\"O\": 1}, \"38\": {\"O\": 1}, \"39\": {\"O\": 1}}" n_minim_iter=1 energy=-45151.90518134396 stress="0.058960335769220024 -6.43930139907189e-13 -1.5328513885999457e-12 -6.43930139907189e-13 0.0433850290511374 -6.418595082629134e-13 -1.5328513885999457e-12 -6.418595082629134e-13 0.04349004486488367" free_energy=-45151.90518134396 pbc="T T T"
In       2.65985372       4.38401615       8.64601071        0      -0.01000740       0.03801645      -0.02205582
In       0.01209718       3.85814567       6.50241508        1      -0.01000740      -0.03801645       0.02205582
In       2.63565937       1.63662888      14.07662797        2       0.01000740       0.03801645       0.02205582
In       5.28341592       1.11075839       1.07179782        3       0.01000740      -0.03801645      -0.02205582
In       2.63565937       1.11075839       6.50241508        4       0.01000740      -0.03801645       0.02205582
In       5.28341592       1.63662888       8.64601071        5       0.01000740       0.03801645      -0.02205582
In       2.65985372       3.85814567       1.07179782        6      -0.01000740      -0.03801645      -0.02205582
In       0.01209718       4.38401615      14.07662797        7      -0.01000740       0.03801645       0.02205582
In       2.64394035       4.03094900      12.35374882        8       0.00329952       0.07446002       0.09558361
In       5.29169690       4.21121282       2.79467697        9       0.00329952      -0.07446002      -0.09558361
In       2.65157275       1.28356173      10.36888987       10      -0.00329952       0.07446002      -0.09558361
In       0.00381620       1.46382554       4.77953592       11      -0.00329952      -0.07446002       0.09558361
In       2.65157275       1.46382554       2.79467697       12      -0.00329952      -0.07446002      -0.09558361
In       0.00381620       1.28356173      12.35374882       13      -0.00329952       0.07446002       0.09558361
In       2.64394035       4.21121282       4.77953592       14       0.00329952      -0.07446002       0.09558361
In       5.29169690       4.03094900      10.36888987       15       0.00329952       0.07446002      -0.09558361
O        4.56216694       4.77082363      12.14299643       16      -0.07560493       0.01283886       0.08778325
O        1.91441039       3.47133818       3.00542937       17      -0.07560493      -0.01283886      -0.08778325
O        0.73334616       2.02343636      10.57964226       18       0.07560493       0.01283886      -0.08778325
O        3.38110271       0.72395091       4.56878353       19       0.07560493      -0.01283886       0.08778325
O        0.73334616       0.72395091       3.00542937       20       0.07560493      -0.01283886      -0.08778325
O        3.38110271       2.02343636      12.14299643       21       0.07560493       0.01283886       0.08778325
O        4.56216694       3.47133818       4.56878353       22      -0.07560493      -0.01283886       0.08778325
O        1.91441039       4.77082363      10.57964226       23      -0.07560493       0.01283886      -0.08778325
O        3.70051691       2.86270425       9.51814197       24      -0.07814758      -0.13386890      -0.04253597
O        1.05276036       5.37945756       5.63028382       25      -0.07814758       0.13386890       0.04253597
O        1.59499619       0.11531698      13.20449672       26       0.07814758      -0.13386890       0.04253597
O        4.24275274       2.63207029       1.94392907       27       0.07814758       0.13386890      -0.04253597
O        1.59499619       2.63207029       5.63028382       28       0.07814758       0.13386890       0.04253597
O        4.24275274       0.11531698       9.51814197       29       0.07814758      -0.13386890      -0.04253597
O        3.70051691       5.37945756       1.94392907       30      -0.07814758       0.13386890      -0.04253597
O        1.05276036       2.86270425      13.20449672       31      -0.07814758      -0.13386890       0.04253597
O        3.40102438       3.60743569      14.31255396       32       0.09599906       0.01339890      -0.16342821
O        0.75326783       4.63472613       0.83587183       33       0.09599906      -0.01339890       0.16342821
O        1.89448872       0.86004842       8.41008472       34      -0.09599906       0.01339890       0.16342821
O        4.54224526       1.88733886       6.73834107       35      -0.09599906      -0.01339890      -0.16342821
O        1.89448872       1.88733886       0.83587183       36      -0.09599906      -0.01339890       0.16342821
O        4.54224526       0.86004842      14.31255396       37      -0.09599906       0.01339890      -0.16342821
O        3.40102438       4.63472613       6.73834107       38       0.09599906      -0.01339890      -0.16342821
O        0.75326783       3.60743569       8.41008472       39       0.09599906       0.01339890       0.16342821
40
Lattice="5.267861713649378 2.936753712048689e-42 0.0 -3.038016035371575e-42 5.509323246523359 0.0 0.0 0.0 15.187727892947583" Properties=species:S:1:pos:R:3:spacegroup_kinds:I:1:forces:R:3 spacegroup="P 1" unit_cell=conventional occupancy="_JSON {\"0\": {\"In\": 1}, \"1\": {\"In\": 1}, \"2\": {\"In\": 1}, \"3\": {\"In\": 1}, \"4\": {\"In\": 1}, \"5\": {\"In\": 1}, \"6\": {\"In\": 1}, \"7\": {\"In\": 1}, \"8\": {\"In\": 1}, \"9\": {\"In\": 1}, \"10\": {\"In\": 1}, \"11\": {\"In\": 1}, \"12\": {\"In\": 1}, \"13\": {\"In\": 1}, \"14\": {\"In\": 1}, \"15\": {\"In\": 1}, \"16\": {\"O\": 1}, \"17\": {\"O\": 1}, \"18\": {\"O\": 1}, \"19\": {\"O\": 1}, \"20\": {\"O\": 1}, \"21\": {\"O\": 1}, \"22\": {\"O\": 1}, \"23\": {\"O\": 1}, \"24\": {\"O\": 1}, \"25\": {\"O\": 1}, \"26\": {\"O\": 1}, \"27\": {\"O\": 1}, \"28\": {\"O\": 1}, \"29\": {\"O\": 1}, \"30\": {\"O\": 1}, \"31\": {\"O\": 1}, \"32\": {\"O\": 1}, \"33\": {\"O\": 1}, \"34\": {\"O\": 1}, \"35\": {\"O\": 1}, \"36\": {\"O\": 1}, \"37\": {\"O\": 1}, \"38\": {\"O\": 1}, \"39\": {\"O\": 1}}" n_minim_iter=2 energy=-45151.92520644437 stress="0.050785165763679974 7.718976753812917e-13 2.6042743518167292e-12 7.718976753812917e-13 0.04974302449059607 -2.3743492000564484e-12 2.6042743518167292e-12 -2.3743492000564484e-12 0.050360528535953644" free_energy=-45151.92520644437 pbc="T T T"
In       2.64595344       4.39566761       8.66841713        0       0.09643848       0.13684669      -0.05868900
In       0.01202258       3.86831726       6.51931076        1       0.09643848      -0.13684669       0.05868900
In       2.62190828       1.64100598      14.11317471        2      -0.09643848       0.13684669       0.05868900
In       5.25583913       1.11365564       1.07455318        3      -0.09643848      -0.13684669      -0.05868900
In       2.62190828       1.11365564       6.51931076        4      -0.09643848      -0.13684669       0.05868900
In       5.25583913       1.64100598       8.66841713        5      -0.09643848       0.13684669      -0.05868900
In       2.64595344       3.86831726       1.07455318        6       0.09643848      -0.13684669      -0.05868900
In       0.01202258       4.39566761      14.11317471        7       0.09643848       0.13684669       0.05868900
In       2.63013835       4.04170757      12.38591021        8      -0.09062524      -0.00606114       0.15026124
In       5.26406921       4.22227730       2.80181768        9      -0.09062524       0.00606114      -0.15026124
In       2.63772336       1.28704594      10.39568163       10       0.09062524      -0.00606114      -0.15026124
In       0.00379250       1.46761568       4.79204626       11       0.09062524       0.00606114       0.15026124
In       2.63772336       1.46761568       2.80181768       12       0.09062524       0.00606114      -0.15026124
In       0.00379250       1.28704594      12.38591021       13       0.09062524      -0.00606114       0.15026124
In       2.63013835       4.22227730       4.79204626       14      -0.09062524       0.00606114       0.15026124
In       5.26406921       4.04170757      10.39568163       15      -0.09062524      -0.00606114      -0.15026124
O        4.53825852       4.78347028      12.17460205       16      -0.04149990       0.02361487       0.08221948
O        1.90432767       3.48051459       3.01312584       17      -0.04149990      -0.02361487      -0.08221948
O        0.72960319       2.02880866      10.60698979       18       0.04149990       0.02361487      -0.08221948
O        3.36353405       0.72585297       4.58073810       19       0.04149990      -0.02361487       0.08221948
O        0.72960319       0.72585297       3.01312584       20       0.04149990      -0.02361487      -0.08221948
O        3.36353405       2.02880866      12.17460205       21       0.04149990       0.02361487       0.08221948
O        4.53825852       3.48051459       4.58073810       22      -0.04149990      -0.02361487       0.08221948
O        1.90432767       4.78347028      10.60698979       23      -0.04149990       0.02361487      -0.08221948
O        3.68110483       2.87012988       9.54278754       24      -0.06515818      -0.15268803      -0.04355316
O        1.04717398       5.39385499       5.64494036       25      -0.06515818       0.15268803       0.04355316
O        1.58675688       0.11546825      13.23880430       26       0.06515818      -0.15268803       0.04355316
O        4.22068774       2.63919337       1.94892359       27       0.06515818       0.15268803      -0.04355316
O        1.58675688       2.63919337       5.64494036       28       0.06515818       0.15268803       0.04355316
O        4.22068774       0.11546825       9.54278754       29       0.06515818      -0.15268803      -0.04355316
O        3.68110483       5.39385499       1.94892359       30      -0.06515818       0.15268803      -0.04355316
O        1.04717398       2.87012988      13.23880430       31      -0.06515818      -0.15268803       0.04355316
O        3.38337499       3.61700264      14.34949936       32       0.03366210      -0.03493320      -0.11748888
O        0.74944413       4.64698223       0.83822853       33       0.03366210       0.03493320       0.11748888
O        1.88448673       0.86234101       8.43209248       34      -0.03366210      -0.03493320       0.11748888
O        4.51841759       1.89232061       6.75563542       35      -0.03366210       0.03493320      -0.11748888
O        1.88448673       1.89232061       0.83822853       36      -0.03366210       0.03493320       0.11748888
O        4.51841759       0.86234101      14.34949936       37      -0.03366210      -0.03493320      -0.11748888
O        3.38337499       4.64698223       6.75563542       38       0.03366210       0.03493320      -0.11748888
O        0.74944413       3.61700264       8.43209248       39       0.03366210      -0.03493320       0.11748888
40
Lattice="5.261737695641856 2.966442396699932e-42 0.0 -3.0118668269225974e-42 5.523957718744318 0.0 0.0 0.0 15.165121279181713" Properties=species:S:1:pos:R:3:spacegroup_kinds:I:1:forces:R:3 spacegroup="P 1" unit_cell=conventional occupancy="_JSON {\"0\": {\"In\": 1}, \"1\": {\"In\": 1}, \"2\": {\"In\": 1}, \"3\": {\"In\": 1}, \"4\": {\"In\": 1}, \"5\": {\"In\": 1}, \"6\": {\"In\": 1}, \"7\": {\"In\": 1}, \"8\": {\"In\": 1}, \"9\": {\"In\": 1}, \"10\": {\"In\": 1}, \"11\": {\"In\": 1}, \"12\": {\"In\": 1}, \"13\": {\"In\": 1}, \"14\": {\"In\": 1}, \"15\": {\"In\": 1}, \"16\": {\"O\": 1}, \"17\": {\"O\": 1}, \"18\": {\"O\": 1}, \"19\": {\"O\": 1}, \"20\": {\"O\": 1}, \"21\": {\"O\": 1}, \"22\": {\"O\": 1}, \"23\": {\"O\": 1}, \"24\": {\"O\": 1}, \"25\": {\"O\": 1}, \"26\": {\"O\": 1}, \"27\": {\"O\": 1}, \"28\": {\"O\": 1}, \"29\": {\"O\": 1}, \"30\": {\"O\": 1}, \"31\": {\"O\": 1}, \"32\": {\"O\": 1}, \"33\": {\"O\": 1}, \"34\": {\"O\": 1}, \"35\": {\"O\": 1}, \"36\": {\"O\": 1}, \"37\": {\"O\": 1}, \"38\": {\"O\": 1}, \"39\": {\"O\": 1}}" n_minim_iter=3 energy=-45151.93293009932 stress="0.050573825989991876 3.3191966771174805e-13 1.5963616316220198e-12 3.3191966771174805e-13 0.05614730221780169 -1.1499566593834786e-14 1.5963616316220198e-12 -1.1499566593834786e-14 0.046287863121219984" free_energy=-45151.93293009932 pbc="T T T"
In       2.64434040       4.40943623       8.65462353        0       0.06539621       0.08053920      -0.00837413
In       0.01347156       3.87650035       6.51049775        1       0.06539621      -0.08053920       0.00837413
In       2.61739729       1.64745737      14.09305839        2      -0.06539621       0.08053920       0.00837413
In       5.24826614       1.11452149       1.07206289        3      -0.06539621      -0.08053920      -0.00837413
In       2.61739729       1.11452149       6.51049775        4      -0.06539621      -0.08053920       0.00837413
In       5.24826614       1.64745737       8.65462353        5      -0.06539621       0.08053920      -0.00837413
In       2.64434040       3.87650035       1.07206289        6       0.06539621      -0.08053920      -0.00837413
In       0.01347156       4.40943623      14.09305839        7       0.06539621       0.08053920       0.00837413
In       2.62570883       4.05231511      12.36973656        8      -0.05085843      -0.06164241       0.07687899
In       5.25657767       4.23362146       2.79538472        9      -0.05085843       0.06164241      -0.07687899
In       2.63602887       1.29033626      10.37794536       10       0.05085843      -0.06164241      -0.07687899
In       0.00516002       1.47164260       4.78717592       11       0.05085843       0.06164241       0.07687899
In       2.63602887       1.47164260       2.79538472       12       0.05085843       0.06164241      -0.07687899
In       0.00516002       1.29033626      12.36973656       13       0.05085843      -0.06164241       0.07687899
In       2.62570883       4.23362146       4.78717592       14      -0.05085843       0.06164241       0.07687899
In       5.25657767       4.05231511      10.37794536       15      -0.05085843      -0.06164241      -0.07687899
O        4.53239028       4.79653478      12.15770179       16      -0.03908375       0.03006780       0.07780395
O        1.90152144       3.48940180       3.00741949       17      -0.03908375      -0.03006780      -0.07780395
O        0.72934741       2.03455592      10.58998013       18       0.03908375       0.03006780      -0.07780395
O        3.36021626       0.72742294       4.57514115       19       0.03908375      -0.03006780       0.07780395
O        0.72934741       0.72742294       3.00741949       20       0.03908375      -0.03006780      -0.07780395
O        3.36021626       2.03455592      12.15770179       21       0.03908375       0.03006780       0.07780395
O        4.53239028       3.48940180       4.57514115       22      -0.03908375      -0.03006780       0.07780395
O        1.90152144       4.79653478      10.58998013       23      -0.03908375       0.03006780      -0.07780395
O        3.67587649       2.87546227       9.52793445       24      -0.08322615      -0.09340771      -0.06662452
O        1.04500764       5.41047431       5.63718683       25      -0.08322615       0.09340771       0.06662452
O        1.58586121       0.11348341      13.21974746       26       0.08322615      -0.09340771       0.06662452
O        4.21673005       2.64849545       1.94537381       27       0.08322615       0.09340771      -0.06662452
O        1.58586121       2.64849545       5.63718683       28       0.08322615       0.09340771       0.06662452
O        4.21673005       0.11348341       9.52793445       29       0.08322615      -0.09340771      -0.06662452
O        3.67587649       5.41047431       1.94537381       30      -0.08322615       0.09340771      -0.06662452
O        1.04500764       2.87546227      13.21974746       31      -0.08322615      -0.09340771       0.06662452
O        3.37990613       3.62606553      14.32641292       32       0.05548695      -0.03685773      -0.10699688
O        0.74903728       4.65987105       0.83870836       33       0.05548695       0.03685773       0.10699688
O        1.88183156       0.86408667       8.42126900       34      -0.05548695      -0.03685773       0.10699688
O        4.51270041       1.89789219       6.74385228       35      -0.05548695       0.03685773      -0.10699688
O        1.88183156       1.89789219       0.83870836       36      -0.05548695       0.03685773       0.10699688
O        4.51270041       0.86408667      14.32641292       37      -0.05548695      -0.03685773      -0.10699688
O        3.37990613       4.65987105       6.74385228       38       0.05548695       0.03685773      -0.10699688
O        0.74903728       3.62606553       8.42126900       39       0.05548695      -0.03685773       0.10699688
40
Lattice="5.253805015550109 2.9604550927222244e-42 0.0 -3.010102536704651e-42 5.519625675253739 0.0 0.0 0.0 15.199939201206643" Properties=species:S:1:pos:R:3:spacegroup_kinds:I:1:forces:R:3 spacegroup="P 1" unit_cell=conventional occupancy="_JSON {\"0\": {\"In\": 1}, \"1\": {\"In\": 1}, \"2\": {\"In\": 1}, \"3\": {\"In\": 1}, \"4\": {\"In\": 1}, \"5\": {\"In\": 1}, \"6\": {\"In\": 1}, \"7\": {\"In\": 1}, \"8\": {\"In\": 1}, \"9\": {\"In\": 1}, \"10\": {\"In\": 1}, \"11\": {\"In\": 1}, \"12\": {\"In\": 1}, \"13\": {\"In\": 1}, \"14\": {\"In\": 1}, \"15\": {\"In\": 1}, \"16\": {\"O\": 1}, \"17\": {\"O\": 1}, \"18\": {\"O\": 1}, \"19\": {\"O\": 1}, \"20\": {\"O\": 1}, \"21\": {\"O\": 1}, \"22\": {\"O\": 1}, \"23\": {\"O\": 1}, \"24\": {\"O\": 1}, \"25\": {\"O\": 1}, \"26\": {\"O\": 1}, \"27\": {\"O\": 1}, \"28\": {\"O\": 1}, \"29\": {\"O\": 1}, \"30\": {\"O\": 1}, \"31\": {\"O\": 1}, \"32\": {\"O\": 1}, \"33\": {\"O\": 1}, \"34\": {\"O\": 1}, \"35\": {\"O\": 1}, \"36\": {\"O\": 1}, \"37\": {\"O\": 1}, \"38\": {\"O\": 1}, \"39\": {\"O\": 1}}" n_minim_iter=4 energy=-45151.943789571014 stress="0.05128152726600145 -1.1952932505320915e-12 8.705600759946676e-13 -1.1952932505320915e-12 0.05379802079056834 3.310142406004905e-13 8.705600759946676e-13 3.310142406004905e-13 0.05382993112043819" free_energy=-45151.943789571014 pbc="T T T"
In       2.64253196       4.40907651       8.67322414        0       0.07075109      -0.02675534       0.03449755
In       0.01562945       3.87036200       6.52671506        1       0.07075109       0.02675534      -0.03449755
In       2.61127305       1.64926368      14.12668466        2      -0.07075109      -0.02675534      -0.03449755
In       5.23817556       1.11054916       1.07325454        3      -0.07075109       0.02675534       0.03449755
In       2.61127305       1.11054916       6.52671506        4      -0.07075109       0.02675534      -0.03449755
In       5.23817556       1.64926368       8.67322414        5      -0.07075109      -0.02675534       0.03449755
In       2.64253196       3.87036200       1.07325454        6       0.07075109       0.02675534       0.03449755
In       0.01562945       4.40907651      14.12668466        7       0.07075109      -0.02675534      -0.03449755
In       2.61972833       4.04883435      12.40147777        8      -0.03936097      -0.05619926      -0.07433866
In       5.24663084       4.23060416       2.79846143        9      -0.03936097       0.05619926       0.07433866
In       2.63407668       1.28902151      10.39843104       10       0.03936097      -0.05619926       0.07433866
In       0.00717418       1.47079132       4.80150817       11       0.03936097       0.05619926      -0.07433866
In       2.63407668       1.47079132       2.79846143       12       0.03936097       0.05619926       0.07433866
In       0.00717418       1.28902151      12.40147777       13       0.03936097      -0.05619926      -0.07433866
In       2.61972833       4.23060416       4.80150817       14      -0.03936097       0.05619926      -0.07433866
In       5.24663084       4.04883435      10.39843104       15      -0.03936097      -0.05619926       0.07433866
O        4.52464515       4.79333747      12.18749531       16      -0.00029016       0.01022290       0.00632824
O        1.89774264       3.48610104       3.01244389       17      -0.00029016      -0.01022290      -0.00632824
O        0.72915987       2.03352463      10.61241349       18       0.00029016       0.01022290      -0.00632824
O        3.35606238       0.72628820       4.58752571       19       0.00029016      -0.01022290       0.00632824
O        0.72915987       0.72628820       3.01244389       20       0.00029016      -0.01022290      -0.00632824
O        3.35606238       2.03352463      12.18749531       21       0.00029016       0.01022290       0.00632824
O        4.52464515       3.48610104       4.58752571       22      -0.00029016      -0.01022290       0.00632824
O        1.89774264       4.79333747      10.61241349       23      -0.00029016       0.01022290      -0.00632824
O        3.66883461       2.86979785       9.54875920       24      -0.07108627      -0.02934724      -0.11990222
O        1.04193211       5.40964066       5.65118000       25      -0.07108627       0.02934724       0.11990222
O        1.58497040       0.10998501      13.25114961       26       0.07108627      -0.02934724       0.11990222
O        4.21187291       2.64982783       1.94878960       27       0.07108627       0.02934724      -0.11990222
O        1.58497040       2.64982783       5.65118000       28       0.07108627       0.02934724       0.11990222
O        4.21187291       0.10998501       9.54875920       29       0.07108627      -0.02934724      -0.11990222
O        3.66883461       5.40964066       1.94878960       30      -0.07108627       0.02934724      -0.11990222
O        1.04193211       2.86979785      13.25114961       31      -0.07108627      -0.02934724       0.11990222
O        3.37557771       3.62238345      14.35664957       32       0.03858368      -0.01080445      -0.00973788
O        0.74867520       4.65705507       0.84328963       33       0.03858368       0.01080445       0.00973788
O        1.87822731       0.86257061       8.44325924       34      -0.03858368      -0.01080445       0.00973788
O        4.50512982       1.89724223       6.75667997       35      -0.03858368       0.01080445      -0.00973788
O        1.87822731       1.89724223       0.84328963       36      -0.03858368       0.01080445       0.00973788
O        4.50512982       0.86257061      14.35664957       37      -0.03858368      -0.01080445      -0.00973788
O        3.37557771       4.65705507       6.75667997       38       0.03858368       0.01080445      -0.00973788
O        0.74867520       3.62238345       8.44325924       39       0.03858368      -0.01080445       0.00973788
40
Lattice="5.2604967159080935 3.879785750746566e-42 0.0 -3.0745809556154786e-42 5.516904161328744 0.0 0.0 0.0 15.188092532429804" Properties=species:S:1:pos:R:3:spacegroup_kinds:I:1:forces:R:3 spacegroup="P 1" unit_cell=conventional occupancy="_JSON {\"0\": {\"In\": 1}, \"1\": {\"In\": 1}, \"2\": {\"In\": 1}, \"3\": {\"In\": 1}, \"4\": {\"In\": 1}, \"5\": {\"In\": 1}, \"6\": {\"In\": 1}, \"7\": {\"In\": 1}, \"8\": {\"In\": 1}, \"9\": {\"In\": 1}, \"10\": {\"In\": 1}, \"11\": {\"In\": 1}, \"12\": {\"In\": 1}, \"13\": {\"In\": 1}, \"14\": {\"In\": 1}, \"15\": {\"In\": 1}, \"16\": {\"O\": 1}, \"17\": {\"O\": 1}, \"18\": {\"O\": 1}, \"19\": {\"O\": 1}, \"20\": {\"O\": 1}, \"21\": {\"O\": 1}, \"22\": {\"O\": 1}, \"23\": {\"O\": 1}, \"24\": {\"O\": 1}, \"25\": {\"O\": 1}, \"26\": {\"O\": 1}, \"27\": {\"O\": 1}, \"28\": {\"O\": 1}, \"29\": {\"O\": 1}, \"30\": {\"O\": 1}, \"31\": {\"O\": 1}, \"32\": {\"O\": 1}, \"33\": {\"O\": 1}, \"34\": {\"O\": 1}, \"35\": {\"O\": 1}, \"36\": {\"O\": 1}, \"37\": {\"O\": 1}, \"38\": {\"O\": 1}, \"39\": {\"O\": 1}}" n_minim_iter=5 energy=-45151.95096364992 stress="0.05566201302355516 -9.76459344752046e-13 7.821119561081376e-13 -9.76459344752046e-13 0.052578182580818165 2.162582115413385e-12 7.821119561081376e-13 2.162582115413385e-12 0.052666770130048786" free_energy=-45151.95096364992 pbc="T T T"
In       2.64942138       4.40754262       8.66703480        0      -0.04054341      -0.03177608      -0.06030610
In       0.01917303       3.86781362       6.52105774        1      -0.04054341       0.03177608       0.06030610
In       2.61107533       1.64909054      14.11510400        2       0.04054341      -0.03177608       0.06030610
In       5.24132369       1.10936154       1.07298853        3       0.04054341       0.03177608      -0.06030610
In       2.61107533       1.10936154       6.52105774        4       0.04054341       0.03177608       0.06030610
In       5.24132369       1.64909054       8.66703480        5       0.04054341      -0.03177608      -0.06030610
In       2.64942138       3.86781362       1.07298853        6      -0.04054341       0.03177608      -0.06030610
In       0.01917303       4.40754262      14.11510400        7      -0.04054341      -0.03177608       0.06030610
In       2.62071754       4.04503306      12.39112093        8       0.05200946      -0.03093695      -0.08849963
In       5.25096590       4.23032318       2.79697161        9       0.05200946       0.03093695       0.08849963
In       2.63977917       1.28658098      10.39101787       10      -0.05200946      -0.03093695       0.08849963
In       0.00953081       1.47187110       4.79707466       11      -0.05200946       0.03093695      -0.08849963
In       2.63977917       1.47187110       2.79697161       12      -0.05200946       0.03093695       0.08849963
In       0.00953081       1.28658098      12.39112093       13      -0.05200946      -0.03093695      -0.08849963
In       2.62071754       4.23032318       4.79707466       14       0.05200946       0.03093695      -0.08849963
In       5.25096590       4.04503306      10.39101787       15       0.05200946      -0.03093695       0.08849963
O        4.52956096       4.79168329      12.17958169       16       0.00685985      -0.00292374      -0.01930402
O        1.89931260       3.48367295       3.00851084       17       0.00685985       0.00292374       0.01930402
O        0.73093576       2.03323121      10.60255711       18      -0.00685985      -0.00292374       0.01930402
O        3.36118412       0.72522087       4.58553543       19      -0.00685985       0.00292374      -0.01930402
O        0.73093576       0.72522087       3.00851084       20      -0.00685985       0.00292374       0.01930402
O        3.36118412       2.03323121      12.17958169       21      -0.00685985      -0.00292374      -0.01930402
O        4.52956096       3.48367295       4.58553543       22       0.00685985       0.00292374      -0.01930402
O        1.89931260       4.79168329      10.60255711       23       0.00685985      -0.00292374       0.01930402
O        3.66980220       2.86497123       9.53614513       24      -0.00592193      -0.02729844      -0.05067869
O        1.03955385       5.41038501       5.65194741       25      -0.00592193       0.02729844       0.05067869
O        1.59069451       0.10651915      13.24599367       26       0.00592193      -0.02729844       0.05067869
O        4.22094287       2.65193293       1.94209886       27       0.00592193       0.02729844      -0.05067869
O        1.59069451       2.65193293       5.65194741       28       0.00592193       0.02729844       0.05067869
O        4.22094287       0.10651915       9.53614513       29       0.00592193      -0.02729844      -0.05067869
O        3.66980220       5.41038501       1.94209886       30      -0.00592193       0.02729844      -0.05067869
O        1.03955385       2.86497123      13.24599367       31      -0.00592193      -0.02729844       0.05067869
O        3.38216167       3.61988762      14.34296993       32       0.03706374       0.00339010       0.00230180
O        0.75191331       4.65546863       0.84512260       33       0.03706374      -0.00339010      -0.00230180
O        1.87833505       0.86143553       8.43916887       34      -0.03706374       0.00339010      -0.00230180
O        4.50858341       1.89701655       6.74892366       35      -0.03706374      -0.00339010       0.00230180
O        1.87833505       1.89701655       0.84512260       36      -0.03706374      -0.00339010      -0.00230180
O        4.50858341       0.86143553      14.34296993       37      -0.03706374       0.00339010       0.00230180
O        3.38216167       4.65546863       6.74892366       38       0.03706374      -0.00339010       0.00230180
O        0.75191331       3.61988762       8.43916887       39       0.03706374       0.00339010      -0.00230180
40