40
Lattice="5.681709150943359 -3.403427530685055e-42 0.0 5.262802973772941e-42 6.052531215569175 0.0 0.0 0.0 16.58758460390187" Properties=species:S:1:pos:R:3:spacegroup_kinds:I:1:forces:R:3 spacegroup="P 1" unit_cell=conventional occupancy="_JSON {\"0\": {\"In\": 1}, \"1\": {\"In\": 1}, \"2\": {\"In\": 1}, \"3\": {\"In\": 1}, \"4\": {\"In\": 1}, \"5\": {\"In\": 1}, \"6\": {\"In\": 1}, \"7\": {\"In\": 1}, \"8\": {\"In\": 1}, \"9\": {\"In\": 1}, \"10\": {\"In\": 1}, \"11\": {\"In\": 1}, \"12\": {\"In\": 1}, \"13\": {\"In\": 1}, \"14\": {\"In\": 1}, \"15\": {\"In\": 1}, \"16\": {\"O\": 1}, \"17\": {\"O\": 1}, \"18\": {\"O\": 1}, \"19\": {\"O\": 1}, \"20\": {\"O\": 1}, \"21\": {\"O\": 1}, \"22\": {\"O\": 1}, \"23\": {\"O\": 1}, \"24\": {\"O\": 1}, \"25\": {\"O\": 1}, \"26\": {\"O\": 1}, \"27\": {\"O\": 1}, \"28\": {\"O\": 1}, \"29\": {\"O\": 1}, \"30\": {\"O\": 1}, \"31\": {\"O\": 1}, \"32\": {\"O\": 1}, \"33\": {\"O\": 1}, \"34\": {\"O\": 1}, \"35\": {\"O\": 1}, \"36\": {\"O\": 1}, \"37\": {\"O\": 1}, \"38\": {\"O\": 1}, \"39\": {\"O\": 1}}" n_minim_iter=12 energy=-45149.7409200058 stress="0.0337763699260025 3.159500238014267e-13 -9.179230918894436e-13 3.159500238014267e-13 0.03381532288673945 -1.5369734349824407e-12 -9.179230918894436e-13 -1.5369734349824407e-12 0.033891081281604896" free_energy=-45149.7409200058 pbc="T T T"
In       2.82665569       4.87081806       9.45913084        0       0.00516881      -0.00339800       0.00198483
In      -0.01419889       4.20797877       7.12845376        1       0.00516881       0.00339800      -0.00198483
In       2.85505346       1.84455245      15.42224607        2      -0.00516881      -0.00339800      -0.00198483
In       5.69590804       1.18171316       1.16533854        3      -0.00516881       0.00339800       0.00198483
In       2.85505346       1.18171316       7.12845376        4      -0.00516881       0.00339800      -0.00198483
In       5.69590804       1.84455245       9.45913084        5      -0.00516881      -0.00339800       0.00198483
In       2.82665569       4.20797877       1.16533854        6       0.00516881       0.00339800       0.00198483
In      -0.01419889       4.87081806      15.42224607        7       0.00516881      -0.00339800      -0.00198483
In       2.79134134       4.51335248      13.57229762        8       0.00228950      -0.00327706       0.00266635
In       5.63219591       4.56544434       3.01528698        9       0.00228950       0.00327706      -0.00266634
In       2.89036781       1.48708687      11.30907929       10      -0.00228950      -0.00327706      -0.00266635
In       0.04951324       1.53917873       5.27850532       11      -0.00228950       0.00327706       0.00266635
In       2.89036781       1.53917873       3.01528698       12      -0.00228950       0.00327706      -0.00266635
In       0.04951324       1.48708687      13.57229762       13      -0.00228950      -0.00327706       0.00266635
In       2.79134134       4.56544434       5.27850532       14       0.00228950       0.00327706       0.00266635
In       5.63219591       4.51335248      11.30907929       15       0.00228950      -0.00327706      -0.00266634
O        4.88108311       5.29685019      13.23777836       16       0.00300627      -0.00189674       0.00395573
O        2.04022854       3.78194663       3.34980624       17       0.00300627       0.00189674      -0.00395573
O        0.80062604       2.27058459      11.64359855       18      -0.00300627      -0.00189674      -0.00395573
O        3.64148061       0.75568102       4.94398606       19      -0.00300627       0.00189674       0.00395573
O        0.80062604       0.75568102       3.34980624       20      -0.00300627       0.00189674      -0.00395574
O        3.64148061       2.27058459      13.23777836       21      -0.00300627      -0.00189674       0.00395574
O        4.88108311       3.78194663       4.94398606       22       0.00300627       0.00189674       0.00395573
O        2.04022854       5.29685019      11.64359855       23       0.00300627      -0.00189674      -0.00395573
O        3.97088521       3.20418087      10.32989382       24      -0.00234127      -0.00170264       0.00163073
O        1.13003063       5.87461596       6.25769078       25      -0.00234127       0.00170264      -0.00163073
O        1.71082394       0.17791526      14.55148308       26       0.00234127      -0.00170264      -0.00163073
O        4.55167852       2.84835035       2.03610152       27       0.00234127       0.00170264       0.00163073
O        1.71082394       2.84835035       6.25769078       28       0.00234127       0.00170264      -0.00163073
O        4.55167852       0.17791526      10.32989382       29       0.00234127      -0.00170264       0.00163073
O        3.97088521       5.87461596       2.03610152       30      -0.00234127       0.00170264       0.00163073
O        1.13003063       3.20418087      14.55148308       31      -0.00234127      -0.00170264      -0.00163073
O        3.68167971       3.98028604      15.72839651       32      -0.00086246      -0.00206097       0.00156513
O        0.84082514       5.09851079       0.85918810       33      -0.00086246       0.00206097      -0.00156513
O        2.00002944       0.95402043       9.15298040       34       0.00086246      -0.00206097      -0.00156513
O        4.84088401       2.07224518       7.43460421       35       0.00086246       0.00206097       0.00156513
O        2.00002944       2.07224518       0.85918810       36       0.00086246       0.00206097      -0.00156513
O        4.84088401       0.95402043      15.72839651       37       0.00086246      -0.00206097       0.00156513
O        3.68167971       5.09851079       7.43460421       38      -0.00086246       0.00206097       0.00156513
O        0.84082514       3.98028604       9.15298040       39      -0.00086246      -0.00206097      -0.00156513
