40
Lattice="5.648024310858712 -3.387249829095487e-42 0.0 3.5837379609303505e-42 5.97565581174947 0.0 0.0 0.0 16.517063332202582" Properties=species:S:1:pos:R:3:spacegroup_kinds:I:1:forces:R:3 spacegroup="P 1" unit_cell=conventional occupancy="_JSON {\"0\": {\"In\": 1}, \"1\": {\"In\": 1}, \"2\": {\"In\": 1}, \"3\": {\"In\": 1}, \"4\": {\"In\": 1}, \"5\": {\"In\": 1}, \"6\": {\"In\": 1}, \"7\": {\"In\": 1}, \"8\": {\"In\": 1}, \"9\": {\"In\": 1}, \"10\": {\"In\": 1}, \"11\": {\"In\": 1}, \"12\": {\"In\": 1}, \"13\": {\"In\": 1}, \"14\": {\"In\": 1}, \"15\": {\"In\": 1}, \"16\": {\"O\": 1}, \"17\": {\"O\": 1}, \"18\": {\"O\": 1}, \"19\": {\"O\": 1}, \"20\": {\"O\": 1}, \"21\": {\"O\": 1}, \"22\": {\"O\": 1}, \"23\": {\"O\": 1}, \"24\": {\"O\": 1}, \"25\": {\"O\": 1}, \"26\": {\"O\": 1}, \"27\": {\"O\": 1}, \"28\": {\"O\": 1}, \"29\": {\"O\": 1}, \"30\": {\"O\": 1}, \"31\": {\"O\": 1}, \"32\": {\"O\": 1}, \"33\": {\"O\": 1}, \"34\": {\"O\": 1}, \"35\": {\"O\": 1}, \"36\": {\"O\": 1}, \"37\": {\"O\": 1}, \"38\": {\"O\": 1}, \"39\": {\"O\": 1}}" n_minim_iter=1 energy=-45150.05820850185 stress="0.022953827802615696 4.5473883442427876e-14 4.3252129378577707e-13 4.5473883442427876e-14 0.018408031277253368 -1.0141236435056644e-13 4.3252129378577707e-13 -1.0141236435056644e-13 0.023723002178754116" free_energy=-45150.05820850185 pbc="T T T"
In       2.81731557       4.79818095       9.41709869        0       0.02521998       0.12503311      -0.02085836
In      -0.00669658       4.16530277       7.09996464        1       0.02521998      -0.12503311       0.02085836
In       2.83070874       1.81035304      15.35849630        2      -0.02521998       0.12503311       0.02085836
In       5.65472089       1.17747487       1.15856703        3      -0.02521998      -0.12503311      -0.02085836
In       2.83070874       1.17747487       7.09996464        4      -0.02521998      -0.12503311       0.02085836
In       5.65472089       1.81035304       9.41709869        5      -0.02521998       0.12503311      -0.02085836
In       2.81731557       4.16530277       1.15856703        6       0.02521998      -0.12503311      -0.02085836
In      -0.00669658       4.79818095      15.35849630        7       0.02521998       0.12503311       0.02085836
In       2.79473613       4.48144695      13.51502987        8      -0.05778004       0.01069128      -0.00405126
In       5.61874829       4.48203677       3.00203346        9      -0.05778004      -0.01069128       0.00405126
In       2.85328818       1.49361905      11.26056513       10       0.05778004       0.01069128       0.00405126
In       0.02927602       1.49420886       5.25649820       11       0.05778004      -0.01069128      -0.00405126
In       2.85328818       1.49420886       3.00203346       12       0.05778004      -0.01069128       0.00405126
In       0.02927602       1.49361905      13.51502987       13       0.05778004       0.01069128      -0.00405126
In       2.79473613       4.48203677       5.25649820       14      -0.05778004      -0.01069128      -0.00405126
In       5.61874829       4.48144695      11.26056513       15      -0.05778004       0.01069128       0.00405126
O        4.85209556       5.27894296      13.18013894       16       0.04091502      -0.08714782      -0.00962481
O        2.02808340       3.68454076       3.33692439       17       0.04091502       0.08714782       0.00962481
O        0.79592875       2.29111505      11.59545606       18      -0.04091502      -0.08714782       0.00962481
O        3.61994091       0.69671286       4.92160727       19      -0.04091502       0.08714782      -0.00962481
O        0.79592875       0.69671286       3.33692439       20      -0.04091502       0.08714782       0.00962481
O        3.61994091       2.29111505      13.18013894       21      -0.04091502      -0.08714782      -0.00962481
O        4.85209556       3.68454076       4.92160727       22       0.04091502       0.08714782      -0.00962481
O        2.02808340       5.27894296      11.59545606       23       0.04091502      -0.08714782       0.00962481
O        3.96338824       3.17138953      10.28921270       24      -0.06652757      -0.01568777      -0.01715816
O        1.13937608       5.79209419       6.22785063       25      -0.06652757       0.01568777       0.01715816
O        1.68463607       0.18356162      14.48638230       26       0.06652757      -0.01568777       0.01715816
O        4.50864823       2.80426628       2.03068103       27       0.06652757       0.01568777      -0.01715816
O        1.68463607       2.80426628       6.22785063       28       0.06652757       0.01568777       0.01715816
O        4.50864823       0.18356162      10.28921270       29       0.06652757      -0.01568777      -0.01715816
O        3.96338824       5.79209419       2.03068103       30      -0.06652757       0.01568777      -0.01715816
O        1.13937608       3.17138953      14.48638230       31      -0.06652757      -0.01568777       0.01715816
O        3.65906372       3.94321771      15.65701365       32       0.01505833      -0.03050820       0.01363739
O        0.83505156       5.02026601       0.86004968       33       0.01505833       0.03050820      -0.01363739
O        1.98896060       0.95538980       9.11858134       34      -0.01505833      -0.03050820      -0.01363739
O        4.81297275       2.03243811       7.39848199       35      -0.01505833       0.03050819       0.01363739
O        1.98896060       2.03243811       0.86004968       36      -0.01505833       0.03050820      -0.01363739
O        4.81297275       0.95538980      15.65701365       37      -0.01505833      -0.03050820       0.01363739
O        3.65906372       5.02026601       7.39848199       38       0.01505833       0.03050820       0.01363739
O        0.83505156       3.94321771       9.11858134       39       0.01505833      -0.03050819      -0.01363739
40
Lattice="5.641563102422965 -3.4014265884589984e-42 0.0 3.574223143600138e-42 5.993541580616878 0.0 0.0 0.0 16.48663387266016" Properties=species:S:1:pos:R:3:spacegroup_kinds:I:1:forces:R:3 spacegroup="P 1" unit_cell=conventional occupancy="_JSON {\"0\": {\"In\": 1}, \"1\": {\"In\": 1}, \"2\": {\"In\": 1}, \"3\": {\"In\": 1}, \"4\": {\"In\": 1}, \"5\": {\"In\": 1}, \"6\": {\"In\": 1}, \"7\": {\"In\": 1}, \"8\": {\"In\": 1}, \"9\": {\"In\": 1}, \"10\": {\"In\": 1}, \"11\": {\"In\": 1}, \"12\": {\"In\": 1}, \"13\": {\"In\": 1}, \"14\": {\"In\": 1}, \"15\": {\"In\": 1}, \"16\": {\"O\": 1}, \"17\": {\"O\": 1}, \"18\": {\"O\": 1}, \"19\": {\"O\": 1}, \"20\": {\"O\": 1}, \"21\": {\"O\": 1}, \"22\": {\"O\": 1}, \"23\": {\"O\": 1}, \"24\": {\"O\": 1}, \"25\": {\"O\": 1}, \"26\": {\"O\": 1}, \"27\": {\"O\": 1}, \"28\": {\"O\": 1}, \"29\": {\"O\": 1}, \"30\": {\"O\": 1}, \"31\": {\"O\": 1}, \"32\": {\"O\": 1}, \"33\": {\"O\": 1}, \"34\": {\"O\": 1}, \"35\": {\"O\": 1}, \"36\": {\"O\": 1}, \"37\": {\"O\": 1}, \"38\": {\"O\": 1}, \"39\": {\"O\": 1}}" n_minim_iter=2 energy=-45150.063496160794 stress="0.021852761923876876 6.795566539862229e-13 -8.558945165081706e-14 6.795566539862229e-13 0.020689755147484033 1.9484316913764056e-12 -8.558945165081706e-14 1.9484316913764056e-12 0.020861823316713733" free_energy=-45150.063496160794 pbc="T T T"
In       2.81413372       4.81274695       9.39971557        0       0.02269205       0.13825081      -0.00604225
In      -0.00664784       4.17756542       7.08691830        1       0.02269205      -0.13825081       0.00604225
In       2.82742939       1.81597616      15.33023524        2      -0.02269205       0.13825081       0.00604225
In       5.64821094       1.18079463       1.15639864        3      -0.02269205      -0.13825081      -0.00604225
In       2.82742939       1.18079463       7.08691830        4      -0.02269205      -0.13825081       0.00604225
In       5.64821094       1.81597616       9.39971557        5      -0.02269205       0.13825081      -0.00604225
In       2.81413372       4.17756542       1.15639864        6       0.02269205      -0.13825081      -0.00604225
In      -0.00664784       4.81274695      15.33023524        7       0.02269205       0.13825081       0.00604225
In       2.79144489       4.49487789      13.49012447        8      -0.06264673      -0.00408386       0.00155983
In       5.61222644       4.49543448       2.99650940        9      -0.06264673       0.00408386      -0.00155983
In       2.85011822       1.49810710      11.23982634       10       0.06264673      -0.00408386      -0.00155983
In       0.02933666       1.49866369       5.24680754       11       0.06264673       0.00408386       0.00155983
In       2.85011822       1.49866369       2.99650940       12       0.06264673       0.00408386      -0.00155983
In       0.02933666       1.49810710      13.49012447       13       0.06264673      -0.00408386       0.00155983
In       2.79144489       4.49543448       5.24680754       14      -0.06264673       0.00408386       0.00155983
In       5.61222644       4.49487789      11.23982634       15      -0.06264673      -0.00408386      -0.00155983
O        4.84661153       5.29460082      13.15584144       16       0.03058563      -0.08024199      -0.00204244
O        2.02582998       3.69571155       3.33079243       17       0.03058563       0.08024199       0.00204244
O        0.79495157       2.29783003      11.57410937       18      -0.03058563      -0.08024199       0.00204244
O        3.61573312       0.69894076       4.91252450       19      -0.03058563       0.08024199      -0.00204244
O        0.79495157       0.69894076       3.33079243       20      -0.03058563       0.08024199       0.00204244
O        3.61573312       2.29783003      13.15584144       21      -0.03058563      -0.08024199      -0.00204244
O        4.84661153       3.69571155       4.91252450       22       0.03058563       0.08024199      -0.00204244
O        2.02582998       5.29460082      11.57410937       23       0.03058563      -0.08024199       0.00204244
O        3.95874583       3.18085617      10.27022890       24      -0.07516383      -0.01370496      -0.02162115
O        1.13796428       5.80945620       6.21640497       25      -0.07516383       0.01370496       0.02162115
O        1.68281728       0.18408538      14.45972191       26       0.07516383      -0.01370496       0.02162115
O        4.50359883       2.81268541       2.02691196       27       0.07516383       0.01370496      -0.02162115
O        1.68281728       2.81268541       6.21640497       28       0.07516383       0.01370496       0.02162115
O        4.50359883       0.18408538      10.27022890       29       0.07516383      -0.01370496      -0.02162115
O        3.95874583       5.80945620       2.02691196       30      -0.07516383       0.01370496      -0.02162115
O        1.13796428       3.18085617      14.45972191       31      -0.07516383      -0.01370496       0.02162115
O        3.65490236       3.95497026      15.62819087       32       0.01775063      -0.04889749       0.00890150
O        0.83412081       5.03534211       0.85844300       33       0.01775063       0.04889749      -0.00890150
O        1.98666074       0.95819947       9.10175994       34      -0.01775063      -0.04889749      -0.00890150
O        4.80744229       2.03857132       7.38487393       35      -0.01775063       0.04889749       0.00890150
O        1.98666074       2.03857132       0.85844300       36      -0.01775063       0.04889749      -0.00890150
O        4.80744229       0.95819947      15.62819087       37      -0.01775063      -0.04889749       0.00890150
O        3.65490236       5.03534211       7.38487393       38       0.01775063       0.04889749       0.00890150
O        0.83412081       3.95497026       9.10175994       39       0.01775063      -0.04889749      -0.00890150
40
Lattice="5.632620527501683 -3.5173172154347715e-42 0.0 3.6229014883988044e-42 5.9977461791093605 0.0 0.0 0.0 16.50123274563753" Properties=species:S:1:pos:R:3:spacegroup_kinds:I:1:forces:R:3 spacegroup="P 1" unit_cell=conventional occupancy="_JSON {\"0\": {\"In\": 1}, \"1\": {\"In\": 1}, \"2\": {\"In\": 1}, \"3\": {\"In\": 1}, \"4\": {\"In\": 1}, \"5\": {\"In\": 1}, \"6\": {\"In\": 1}, \"7\": {\"In\": 1}, \"8\": {\"In\": 1}, \"9\": {\"In\": 1}, \"10\": {\"In\": 1}, \"11\": {\"In\": 1}, \"12\": {\"In\": 1}, \"13\": {\"In\": 1}, \"14\": {\"In\": 1}, \"15\": {\"In\": 1}, \"16\": {\"O\": 1}, \"17\": {\"O\": 1}, \"18\": {\"O\": 1}, \"19\": {\"O\": 1}, \"20\": {\"O\": 1}, \"21\": {\"O\": 1}, \"22\": {\"O\": 1}, \"23\": {\"O\": 1}, \"24\": {\"O\": 1}, \"25\": {\"O\": 1}, \"26\": {\"O\": 1}, \"27\": {\"O\": 1}, \"28\": {\"O\": 1}, \"29\": {\"O\": 1}, \"30\": {\"O\": 1}, \"31\": {\"O\": 1}, \"32\": {\"O\": 1}, \"33\": {\"O\": 1}, \"34\": {\"O\": 1}, \"35\": {\"O\": 1}, \"36\": {\"O\": 1}, \"37\": {\"O\": 1}, \"38\": {\"O\": 1}, \"39\": {\"O\": 1}}" n_minim_iter=3 energy=-45150.06464733938 stress="0.020044678617768482 3.108719041598347e-14 -1.3553986342781403e-12 3.108719041598347e-14 0.02105146678240992 1.2484485143654968e-12 -1.3553986342781403e-12 1.2484485143654968e-12 0.021935027305957578" free_energy=-45150.06464733938 pbc="T T T"
In       2.80976548       4.81669875       9.40801719        0       0.03467445       0.13936614      -0.00817475
In      -0.00654478       4.17992052       7.09321556        1       0.03467445      -0.13936614       0.00817475
In       2.82285505       1.81782566      15.34383193        2      -0.03467445       0.13936614       0.00817475
In       5.63916531       1.18104743       1.15740082        3      -0.03467445      -0.13936614      -0.00817475
In       2.82285505       1.18104743       7.09321556        4      -0.03467445      -0.13936614       0.00817475
In       5.63916531       1.81782566       9.40801719        5      -0.03467445       0.13936614      -0.00817475
In       2.80976548       4.17992052       1.15740082        6       0.03467445      -0.13936614      -0.00817475
In      -0.00654478       4.81669875      15.34383193        7       0.03467445       0.13936614       0.00817475
In       2.78676231       4.49801122      13.50207748        8      -0.06880258      -0.00606957       0.00044887
In       5.60307257       4.49860804       2.99915527        9      -0.06880258       0.00606958      -0.00044887
In       2.84585822       1.49913814      11.24977164       10       0.06880258      -0.00606958      -0.00044887
In       0.02954795       1.49973495       5.25146110       11       0.06880258       0.00606957       0.00044887
In       2.84585822       1.49973495       2.99915527       12       0.06880258       0.00606958      -0.00044887
In       0.02954795       1.49913814      13.50207748       13       0.06880258      -0.00606958       0.00044887
In       2.78676231       4.49860804       5.25146110       14      -0.06880258       0.00606958       0.00044887
In       5.60307257       4.49801122      11.24977164       15      -0.06880258      -0.00606958      -0.00044887
O        4.83905236       5.29798400      13.16748405       16       0.02849955      -0.07606511      -0.01021080
O        2.02274209       3.69863527       3.33374869       17       0.02849955       0.07606511       0.01021080
O        0.79356817       2.29911091      11.58436507       18      -0.02849955      -0.07606511       0.01021080
O        3.60987843       0.69976218       4.91686768       19      -0.02849955       0.07606511      -0.01021080
O        0.79356817       0.69976218       3.33374869       20      -0.02849955       0.07606511       0.01021080
O        3.60987843       2.29911091      13.16748405       21      -0.02849955      -0.07606511      -0.01021080
O        4.83905236       3.69863527       4.91686768       22       0.02849955       0.07606511      -0.01021080
O        2.02274209       5.29798400      11.58436507       23       0.02849955      -0.07606511       0.01021080
O        3.95216086       3.18303122      10.27923354       24      -0.07323232      -0.01776283      -0.01933841
O        1.13585060       5.81358805       6.22199921       25      -0.07323232       0.01776283       0.01933841
O        1.68045967       0.18415813      14.47261558       26       0.07323232      -0.01776283       0.01933841
O        4.49676993       2.81471496       2.02861716       27       0.07323232       0.01776283      -0.01933841
O        1.68045967       2.81471496       6.22199921       28       0.07323232       0.01776283       0.01933841
O        4.49676993       0.18415813      10.27923354       29       0.07323232      -0.01776283      -0.01933841
O        3.95216086       5.81358805       2.02861716       30      -0.07323232       0.01776283      -0.01933841
O        1.13585060       3.18303122      14.47261558       31      -0.07323232      -0.01776283       0.01933841
O        3.64918220       3.95753842      15.64206517       32       0.01269329      -0.05552113       0.01248465
O        0.83287194       5.03908085       0.85916758       33       0.01269329       0.05552113      -0.01248465
O        1.98343833       0.95866533       9.10978395       34      -0.01269329      -0.05552113      -0.01248465
O        4.79974859       2.04020776       7.39144879       35      -0.01269329       0.05552113       0.01248465
O        1.98343833       2.04020776       0.85916758       36      -0.01269329       0.05552113      -0.01248465
O        4.79974859       0.95866533      15.64206517       37      -0.01269329      -0.05552113       0.01248465
O        3.64918220       5.03908085       7.39144879       38       0.01269329       0.05552113       0.01248465
O        0.83287194       3.95753842       9.10978395       39       0.01269329      -0.05552113      -0.01248465
40
Lattice="5.627237290169426 -3.575274499538199e-42 0.0 3.6160221208172816e-42 6.014097818971919 0.0 0.0 0.0 16.47211060383847" Properties=species:S:1:pos:R:3:spacegroup_kinds:I:1:forces:R:3 spacegroup="P 1" unit_cell=conventional occupancy="_JSON {\"0\": {\"In\": 1}, \"1\": {\"In\": 1}, \"2\": {\"In\": 1}, \"3\": {\"In\": 1}, \"4\": {\"In\": 1}, \"5\": {\"In\": 1}, \"6\": {\"In\": 1}, \"7\": {\"In\": 1}, \"8\": {\"In\": 1}, \"9\": {\"In\": 1}, \"10\": {\"In\": 1}, \"11\": {\"In\": 1}, \"12\": {\"In\": 1}, \"13\": {\"In\": 1}, \"14\": {\"In\": 1}, \"15\": {\"In\": 1}, \"16\": {\"O\": 1}, \"17\": {\"O\": 1}, \"18\": {\"O\": 1}, \"19\": {\"O\": 1}, \"20\": {\"O\": 1}, \"21\": {\"O\": 1}, \"22\": {\"O\": 1}, \"23\": {\"O\": 1}, \"24\": {\"O\": 1}, \"25\": {\"O\": 1}, \"26\": {\"O\": 1}, \"27\": {\"O\": 1}, \"28\": {\"O\": 1}, \"29\": {\"O\": 1}, \"30\": {\"O\": 1}, \"31\": {\"O\": 1}, \"32\": {\"O\": 1}, \"33\": {\"O\": 1}, \"34\": {\"O\": 1}, \"35\": {\"O\": 1}, \"36\": {\"O\": 1}, \"37\": {\"O\": 1}, \"38\": {\"O\": 1}, \"39\": {\"O\": 1}}" n_minim_iter=4 energy=-45150.076399505306 stress="0.01876850258813715 -5.078563580333078e-13 -8.341335429640393e-13 -5.078563580333078e-13 0.022214039832963724 1.2149882704215004e-13 -8.341335429640393e-13 1.2149882704215004e-13 0.017279681024767093" free_energy=-45150.076399505306 pbc="T T T"
In       2.80899307       4.83979436       9.39099774        0      -0.00997533       0.01743903       0.01686656
In      -0.00462558       4.18135237       7.08111286        1      -0.00997533      -0.01743903      -0.01686656
In       2.81824422       1.83274545      15.31716816        2       0.00997533       0.01743903      -0.01686656
In       5.63186287       1.17430346       1.15494244        3       0.00997533      -0.01743903       0.01686656
In       2.81824422       1.17430346       7.08111286        4       0.00997533      -0.01743903      -0.01686656
In       5.63186287       1.83274545       9.39099774        5       0.00997533       0.01743903       0.01686656
In       2.80899307       4.18135237       1.15494244        6      -0.00997533      -0.01743903       0.01686656
In      -0.00462558       4.83979436      15.31716816        7      -0.00997533       0.01743903      -0.01686656
In       2.77950275       4.50985834      13.47835346        8      -0.00022713      -0.01450713       0.00334702
In       5.59312140       4.51128839       2.99375714        9      -0.00022713       0.01450713      -0.00334703
In       2.84773454       1.50280943      11.22981244       10       0.00022713      -0.01450713      -0.00334702
In       0.03411589       1.50423948       5.24229816       11       0.00022713       0.01450713       0.00334702
In       2.84773454       1.50423948       2.99375714       12       0.00022713       0.01450713      -0.00334703
In       0.03411589       1.50280943      13.47835346       13       0.00022713      -0.01450713       0.00334703
In       2.77950275       4.51128839       5.24229816       14      -0.00022713       0.01450713       0.00334702
In       5.59312140       4.50985834      11.22981244       15      -0.00022713      -0.01450713      -0.00334702
O        4.83647313       5.30684733      13.14391168       16      -0.01287955      -0.04741830       0.01200166
O        2.02285449       3.71429940       3.32819892       17      -0.01287955       0.04741830      -0.01200166
O        0.79076416       2.29979842      11.56425423       18       0.01287955      -0.04741830      -0.01200166
O        3.60438280       0.70725049       4.90785638       19       0.01287955       0.04741830       0.01200166
O        0.79076416       0.70725049       3.32819892       20       0.01287955       0.04741830      -0.01200166
O        3.60438280       2.29979842      13.14391168       21       0.01287955      -0.04741830       0.01200166
O        4.83647313       3.71429940       4.90785638       22      -0.01287955       0.04741830       0.01200166
O        2.02285449       5.30684733      11.56425423       23      -0.01287955      -0.04741830      -0.01200166
O        3.94311220       3.19062648      10.25961259       24      -0.04610838       0.02411504      -0.02930732
O        1.12949356       5.83052025       6.21249802       25      -0.04610838      -0.02411504       0.02930732
O        1.68412509       0.18357757      14.44855332       26       0.04610838       0.02411504       0.02930732
O        4.49774373       2.82347134       2.02355728       27       0.04610838      -0.02411504      -0.02930732
O        1.68412509       2.82347134       6.21249802       28       0.04610838      -0.02411504       0.02930732
O        4.49774373       0.18357757      10.25961259       29       0.04610838       0.02411504      -0.02930732
O        3.94311220       5.83052025       2.02355728       30      -0.04610838      -0.02411504      -0.02930732
O        1.12949356       3.19062648      14.44855332       31      -0.04610838       0.02411504       0.02930732
O        3.64681612       3.96456599      15.61516278       32       0.03637805      -0.01775837      -0.01096106
O        0.83319747       5.05658074       0.85694783       33       0.03637805       0.01775837       0.01096106
O        1.98042117       0.95751708       9.09300313       34      -0.03637805      -0.01775837       0.01096107
O        4.79403982       2.04953183       7.37910747       35      -0.03637805       0.01775837      -0.01096106
O        1.98042117       2.04953183       0.85694783       36      -0.03637805       0.01775837       0.01096106
O        4.79403982       0.95751708      15.61516278       37      -0.03637805      -0.01775837      -0.01096106
O        3.64681612       5.05658074       7.37910747       38       0.03637805       0.01775837      -0.01096106
O        0.83319747       3.96456599       9.09300313       39       0.03637805      -0.01775837       0.01096106
40
Lattice="5.63071188913074 -3.578828548131657e-42 0.0 3.6229048104740785e-42 6.002385103026963 0.0 0.0 0.0 16.4940689094485" Properties=species:S:1:pos:R:3:spacegroup_kinds:I:1:forces:R:3 spacegroup="P 1" unit_cell=conventional occupancy="_JSON {\"0\": {\"In\": 1}, \"1\": {\"In\": 1}, \"2\": {\"In\": 1}, \"3\": {\"In\": 1}, \"4\": {\"In\": 1}, \"5\": {\"In\": 1}, \"6\": {\"In\": 1}, \"7\": {\"In\": 1}, \"8\": {\"In\": 1}, \"9\": {\"In\": 1}, \"10\": {\"In\": 1}, \"11\": {\"In\": 1}, \"12\": {\"In\": 1}, \"13\": {\"In\": 1}, \"14\": {\"In\": 1}, \"15\": {\"In\": 1}, \"16\": {\"O\": 1}, \"17\": {\"O\": 1}, \"18\": {\"O\": 1}, \"19\": {\"O\": 1}, \"20\": {\"O\": 1}, \"21\": {\"O\": 1}, \"22\": {\"O\": 1}, \"23\": {\"O\": 1}, \"24\": {\"O\": 1}, \"25\": {\"O\": 1}, \"26\": {\"O\": 1}, \"27\": {\"O\": 1}, \"28\": {\"O\": 1}, \"29\": {\"O\": 1}, \"30\": {\"O\": 1}, \"31\": {\"O\": 1}, \"32\": {\"O\": 1}, \"33\": {\"O\": 1}, \"34\": {\"O\": 1}, \"35\": {\"O\": 1}, \"36\": {\"O\": 1}, \"37\": {\"O\": 1}, \"38\": {\"O\": 1}, \"39\": {\"O\": 1}}" n_minim_iter=5 energy=-45150.08067035395 stress="0.019085267604522574 1.20034944481426e-12 -2.289605311308734e-12 1.20034944481426e-12 0.01940517662760958 -2.1911635706352136e-14 -2.289605311308734e-12 -2.1911635706352136e-14 0.018850835074564563" free_energy=-45150.08067035395 pbc="T T T"
In       2.81110184       4.83299230       9.40346897        0      -0.01742708      -0.01390356       0.00218741
In      -0.00425411       4.17058536       7.09059994        1      -0.01742708       0.01390356      -0.00218741
In       2.81961005       1.83179975      15.33763440        2       0.01742708      -0.01390356      -0.00218741
In       5.63496600       1.16939281       1.15643451        3       0.01742708       0.01390356       0.00218741
In       2.81961005       1.16939281       7.09059994        4       0.01742708       0.01390356      -0.00218741
In       5.63496600       1.83179975       9.40346897        5       0.01742708      -0.01390356       0.00218741
In       2.81110184       4.17058536       1.15643451        6      -0.01742708       0.01390356       0.00218741
In      -0.00425411       4.83299230      15.33763440        7      -0.01742708      -0.01390356      -0.00218741
In       2.78010077       4.50094304      13.49632836        8       0.01939030      -0.00541442      -0.00062052
In       5.59545671       4.50263462       2.99774054        9       0.01939030       0.00541442       0.00062052
In       2.85061112       1.49975049      11.24477500       10      -0.01939030      -0.00541442       0.00062052
In       0.03525518       1.50144207       5.24929391       11      -0.01939030       0.00541442      -0.00062052
In       2.85061112       1.50144207       2.99774054       12      -0.01939030       0.00541442       0.00062052
In       0.03525518       1.49975049      13.49632836       13      -0.01939030      -0.00541442      -0.00062052
In       2.78010077       4.50263462       5.24929391       14       0.01939030       0.00541442      -0.00062052
In       5.59545671       4.50094304      11.24477500       15       0.01939030      -0.00541442       0.00062052
O        4.83992910       5.29434088      13.16142916       16      -0.01255861      -0.03955090       0.00684241
O        2.02457315       3.70923677       3.33263975       17      -0.01255861       0.03955090      -0.00684241
O        0.79078279       2.29314833      11.57967420       18       0.01255861      -0.03955090      -0.00684241
O        3.60613874       0.70804422       4.91439471       19       0.01255861       0.03955090       0.00684241
O        0.79078279       0.70804422       3.33263975       20       0.01255861       0.03955090      -0.00684241
O        3.60613874       2.29314833      13.16142916       21       0.01255861      -0.03955090       0.00684241
O        4.83992910       3.70923677       4.91439471       22      -0.01255861       0.03955090       0.00684241
O        2.02457315       5.29434088      11.57967420       23      -0.01255861      -0.03955090      -0.00684241
O        3.94366273       3.18445420      10.27255639       24      -0.02736313       0.01936619      -0.02337571
O        1.12830679       5.81912345       6.22151252       25      -0.02736313      -0.01936619       0.02337571
O        1.68704916       0.18326165      14.46854698       26       0.02736313       0.01936619       0.02337571
O        4.50240510       2.81793090       2.02552193       27       0.02736313      -0.01936619      -0.02337571
O        1.68704916       2.81793090       6.22151252       28       0.02736313      -0.01936619       0.02337571
O        4.50240510       0.18326165      10.27255639       29       0.02736313       0.01936619      -0.02337571
O        3.94366273       5.81912345       2.02552193       30      -0.02736313      -0.01936619      -0.02337571
O        1.12830679       3.18445420      14.46854698       31      -0.02736313       0.01936619       0.02337571
O        3.64982787       3.95586104      15.63606126       32       0.03390354       0.00274471      -0.00715531
O        0.83447193       5.04771661       0.85800765       33       0.03390354      -0.00274471       0.00715531
O        1.98088402       0.95466849       9.10504210       34      -0.03390354       0.00274471       0.00715531
O        4.79623996       2.04652406       7.38902681       35      -0.03390354      -0.00274471      -0.00715531
O        1.98088402       2.04652406       0.85800765       36      -0.03390354      -0.00274471       0.00715531
O        4.79623996       0.95466849      15.63606126       37      -0.03390354       0.00274471      -0.00715531
O        3.64982787       5.04771661       7.38902681       38       0.03390354      -0.00274471      -0.00715531
O        0.83447193       3.95586104       9.10504210       39       0.03390354       0.00274471       0.00715531
40