40
Lattice="5.006116000259122 1.207894877107999e-42 0.0 -1.3023119155354125e-42 5.397427078504795 0.0 0.0 0.0 14.873751188851525" Properties=species:S:1:pos:R:3:spacegroup_kinds:I:1:forces:R:3 spacegroup="P 1" unit_cell=conventional occupancy="_JSON {\"0\": {\"In\": 1}, \"1\": {\"In\": 1}, \"2\": {\"In\": 1}, \"3\": {\"In\": 1}, \"4\": {\"In\": 1}, \"5\": {\"In\": 1}, \"6\": {\"In\": 1}, \"7\": {\"In\": 1}, \"8\": {\"In\": 1}, \"9\": {\"In\": 1}, \"10\": {\"In\": 1}, \"11\": {\"In\": 1}, \"12\": {\"In\": 1}, \"13\": {\"In\": 1}, \"14\": {\"In\": 1}, \"15\": {\"In\": 1}, \"16\": {\"O\": 1}, \"17\": {\"O\": 1}, \"18\": {\"O\": 1}, \"19\": {\"O\": 1}, \"20\": {\"O\": 1}, \"21\": {\"O\": 1}, \"22\": {\"O\": 1}, \"23\": {\"O\": 1}, \"24\": {\"O\": 1}, \"25\": {\"O\": 1}, \"26\": {\"O\": 1}, \"27\": {\"O\": 1}, \"28\": {\"O\": 1}, \"29\": {\"O\": 1}, \"30\": {\"O\": 1}, \"31\": {\"O\": 1}, \"32\": {\"O\": 1}, \"33\": {\"O\": 1}, \"34\": {\"O\": 1}, \"35\": {\"O\": 1}, \"36\": {\"O\": 1}, \"37\": {\"O\": 1}, \"38\": {\"O\": 1}, \"39\": {\"O\": 1}}" n_minim_iter=1 energy=-45153.219411218175 stress="-0.0295073450191681 6.513844004203387e-13 -2.223059761901455e-13 6.513844004203387e-13 -0.016209520033900464 -1.6104801756238201e-12 -2.223059761901455e-13 -1.6104801756238201e-12 -0.017420394272647795" free_energy=-45153.219411218175 pbc="T T T"
In       2.52917972       4.33596178       8.48446471        0       0.08566350       0.87938537       0.45809243
In       0.02612172       3.76017883       6.38928648        1       0.08566350      -0.87938537      -0.45809243
In       2.47693628       1.63724825      13.82616207        2      -0.08566350       0.87938537      -0.45809243
In       4.97999428       1.06146529       1.04758912        3      -0.08566350      -0.87938537       0.45809243
In       2.47693628       1.06146529       6.38928648        4      -0.08566350      -0.87938537      -0.45809243
In       4.97999428       1.63724825       8.48446471        5      -0.08566350       0.87938537       0.45809243
In       2.52917972       3.76017883       1.04758912        6       0.08566350      -0.87938537       0.45809243
In       0.02612172       4.33596178      13.82616207        7       0.08566350       0.87938537      -0.45809243
In       2.50405378       3.89819635      12.15829108        8       0.10894423      -0.59022924       0.77191114
In       5.00711178       4.19794427       2.71546011        9       0.10894423       0.59022924      -0.77191114
In       2.50206222       1.19948281      10.15233570       10      -0.10894423      -0.59022924      -0.77191114
In      -0.00099578       1.49923073       4.72141549       11      -0.10894423       0.59022924       0.77191114
In       2.50206222       1.49923073       2.71546011       12      -0.10894423       0.59022924      -0.77191114
In      -0.00099578       1.19948281      12.15829108       13      -0.10894423      -0.59022924       0.77191114
In       2.50405378       4.19794427       4.72141549       14       0.10894423       0.59022924       0.77191114
In       5.00711178       3.89819635      10.15233570       15       0.10894423      -0.59022924      -0.77191114
O        4.33582365       4.65948721      11.90925471       16      -0.29732920       0.16131525      -0.36524846
O        1.83276565       3.43665340       2.96449648       17      -0.29732920      -0.16131525       0.36524846
O        0.67029235       1.96077367      10.40137208       18       0.29732920       0.16131525       0.36524846
O        3.17335035       0.73793987       4.47237911       19       0.29732920      -0.16131525      -0.36524846
O        0.67029235       0.73793987       2.96449648       20       0.29732920      -0.16131525       0.36524846
O        3.17335035       1.96077367      11.90925471       21       0.29732920       0.16131525      -0.36524846
O        4.33582365       3.43665340       4.47237911       22      -0.29732920      -0.16131525      -0.36524846
O        1.83276565       4.65948721      10.40137208       23      -0.29732920       0.16131525       0.36524846
O        3.44426367       2.75581540       9.29266809       24      -0.43258410      -0.05132629       0.00030754
O        0.94120567       5.34032522       5.58108310       25      -0.43258410       0.05132629      -0.00030754
O        1.56185233       0.05710186      13.01795870       26       0.43258410      -0.05132629      -0.00030754
O        4.06491033       2.64161168       1.85579249       27       0.43258410       0.05132629       0.00030754
O        1.56185233       2.64161168       5.58108310       28       0.43258410       0.05132629      -0.00030754
O        4.06491033       0.05710186       9.29266809       29       0.43258410      -0.05132629       0.00030754
O        3.44426367       5.34032522       1.85579249       30      -0.43258410       0.05132629       0.00030754
O        0.94120567       2.75581540      13.01795870       31      -0.43258410      -0.05132629      -0.00030754
O        3.22303568       3.52321789      14.04078128       32       0.25100333      -0.01225952       0.11891955
O        0.71997768       4.57292273       0.83296991       33       0.25100333       0.01225952      -0.11891955
O        1.78308032       0.82450435       8.26984550       34      -0.25100333      -0.01225952      -0.11891955
O        4.28613832       1.87420919       6.60390568       35      -0.25100333       0.01225952       0.11891955
O        1.78308032       1.87420919       0.83296991       36      -0.25100333       0.01225952      -0.11891955
O        4.28613832       0.82450435      14.04078128       37      -0.25100333      -0.01225952       0.11891955
O        3.22303568       4.57292273       6.60390568       38       0.25100333       0.01225952       0.11891955
O        0.71997768       3.52321789       8.26984550       39       0.25100333      -0.01225952      -0.11891955
40
Lattice="5.03499505326159 1.2530140303890443e-42 0.0 -1.2159439874834737e-42 5.379711285832339 0.0 0.0 0.0 14.83713975369374" Properties=species:S:1:pos:R:3:spacegroup_kinds:I:1:forces:R:3 spacegroup="P 1" unit_cell=conventional occupancy="_JSON {\"0\": {\"In\": 1}, \"1\": {\"In\": 1}, \"2\": {\"In\": 1}, \"3\": {\"In\": 1}, \"4\": {\"In\": 1}, \"5\": {\"In\": 1}, \"6\": {\"In\": 1}, \"7\": {\"In\": 1}, \"8\": {\"In\": 1}, \"9\": {\"In\": 1}, \"10\": {\"In\": 1}, \"11\": {\"In\": 1}, \"12\": {\"In\": 1}, \"13\": {\"In\": 1}, \"14\": {\"In\": 1}, \"15\": {\"In\": 1}, \"16\": {\"O\": 1}, \"17\": {\"O\": 1}, \"18\": {\"O\": 1}, \"19\": {\"O\": 1}, \"20\": {\"O\": 1}, \"21\": {\"O\": 1}, \"22\": {\"O\": 1}, \"23\": {\"O\": 1}, \"24\": {\"O\": 1}, \"25\": {\"O\": 1}, \"26\": {\"O\": 1}, \"27\": {\"O\": 1}, \"28\": {\"O\": 1}, \"29\": {\"O\": 1}, \"30\": {\"O\": 1}, \"31\": {\"O\": 1}, \"32\": {\"O\": 1}, \"33\": {\"O\": 1}, \"34\": {\"O\": 1}, \"35\": {\"O\": 1}, \"36\": {\"O\": 1}, \"37\": {\"O\": 1}, \"38\": {\"O\": 1}, \"39\": {\"O\": 1}}" n_minim_iter=2 energy=-45153.251068015474 stress="-0.007057203674099047 -1.275528357237178e-13 -4.536525044386251e-13 -1.275528357237178e-13 -0.02328627536553772 3.6022388523744465e-12 -4.536525044386251e-13 3.6022388523744465e-12 -0.011173913160132064" free_energy=-45153.251068015474 pbc="T T T"
In       2.54391567       4.32321260       8.46435333        0      -0.01609534       0.59137932       0.50719750
In       0.02641814       3.74635433       6.37278642        1      -0.01609534      -0.59137932      -0.50719750
In       2.49107938       1.63335696      13.79135630        2       0.01609534       0.59137932      -0.50719750
In       5.00857691       1.05649868       1.04578345        3       0.01609534      -0.59137932       0.50719750
In       2.49107938       1.05649868       6.37278642        4       0.01609534      -0.59137932      -0.50719750
In       5.00857691       1.63335696       8.46435333        5       0.01609534       0.59137932       0.50719750
In       2.54391567       3.74635433       1.04578345        6      -0.01609534      -0.59137932       0.50719750
In       0.02641814       4.32321260      13.79135630        7      -0.01609534       0.59137932      -0.50719750
In       2.51868439       3.88440634      12.12966617        8       0.23471208      -0.38419106       0.56754702
In       5.03618192       4.18516059       2.70747358        9       0.23471208       0.38419106      -0.56754702
In       2.51631066       1.19455069      10.12604346       10      -0.23471208      -0.38419106      -0.56754702
In      -0.00118687       1.49530495       4.71109629       11      -0.23471208       0.38419106       0.56754702
In       2.51631066       1.49530495       2.70747358       12      -0.23471208       0.38419106      -0.56754702
In      -0.00118687       1.19455069      12.12966617       13      -0.23471208      -0.38419106       0.56754702
In       2.51868439       4.18516059       4.71109629       14       0.23471208       0.38419106       0.56754702
In       5.03618192       3.88440634      10.12604346       15       0.23471208      -0.38419106      -0.56754702
O        4.36033012       4.64446550      11.87932402       16      -0.39730951       0.13771348      -0.33977688
O        1.84283259       3.42510142       2.95781573       17      -0.39730951      -0.13771348       0.33977688
O        0.67466494       1.95460986      10.37638561       18       0.39730951       0.13771348       0.33977688
O        3.19216246       0.73524578       4.46075415       19       0.39730951      -0.13771348      -0.33977688
O        0.67466494       0.73524578       2.95781573       20       0.39730951      -0.13771348       0.33977688
O        3.19216246       1.95460986      11.87932402       21       0.39730951       0.13771348      -0.33977688
O        4.36033012       3.42510142       4.46075415       22      -0.39730951      -0.13771348      -0.33977688
O        1.84283259       4.64446550      10.37638561       23      -0.39730951       0.13771348       0.33977688
O        3.46339684       2.74668355       9.26979489       24      -0.35998590      -0.02754023       0.01284726
O        0.94589932       5.32288338       5.56734486       25      -0.35998590       0.02754023      -0.01284726
O        1.57159821       0.05682790      12.98591474       26       0.35998590      -0.02754023      -0.01284726
O        4.08909574       2.63302774       1.85122502       27       0.35998590       0.02754023       0.01284726
O        1.57159821       2.63302774       5.56734486       28       0.35998590       0.02754023      -0.01284726
O        4.08909574       0.05682790       9.26979489       29       0.35998590      -0.02754023       0.01284726
O        3.46339684       5.32288338       1.85122502       30      -0.35998590       0.02754023       0.01284726
O        0.94589932       2.74668355      12.98591474       31      -0.35998590      -0.02754023      -0.01284726
O        3.24205560       3.51163308      14.00642084       32       0.36391686       0.06509205       0.07386539
O        0.72455808       4.55793385       0.83071891       33       0.36391686      -0.06509205      -0.07386539
O        1.79293945       0.82177744       8.24928879       34      -0.36391686       0.06509205      -0.07386539
O        4.31043698       1.86807820       6.58785096       35      -0.36391686      -0.06509205       0.07386539
O        1.79293945       1.86807820       0.83071891       36      -0.36391686      -0.06509205      -0.07386539
O        4.31043698       0.82177744      14.00642084       37      -0.36391686       0.06509205       0.07386539
O        3.24205560       4.55793385       6.58785096       38       0.36391686      -0.06509205       0.07386539
O        0.72455808       3.51163308       8.24928879       39       0.36391686       0.06509205      -0.07386539
40
Lattice="5.055440346709365 1.2664321216873926e-42 0.0 -1.2250865007540109e-42 5.445673979552956 0.0 0.0 0.0 14.598141764765895" Properties=species:S:1:pos:R:3:spacegroup_kinds:I:1:forces:R:3 spacegroup="P 1" unit_cell=conventional occupancy="_JSON {\"0\": {\"In\": 1}, \"1\": {\"In\": 1}, \"2\": {\"In\": 1}, \"3\": {\"In\": 1}, \"4\": {\"In\": 1}, \"5\": {\"In\": 1}, \"6\": {\"In\": 1}, \"7\": {\"In\": 1}, \"8\": {\"In\": 1}, \"9\": {\"In\": 1}, \"10\": {\"In\": 1}, \"11\": {\"In\": 1}, \"12\": {\"In\": 1}, \"13\": {\"In\": 1}, \"14\": {\"In\": 1}, \"15\": {\"In\": 1}, \"16\": {\"O\": 1}, \"17\": {\"O\": 1}, \"18\": {\"O\": 1}, \"19\": {\"O\": 1}, \"20\": {\"O\": 1}, \"21\": {\"O\": 1}, \"22\": {\"O\": 1}, \"23\": {\"O\": 1}, \"24\": {\"O\": 1}, \"25\": {\"O\": 1}, \"26\": {\"O\": 1}, \"27\": {\"O\": 1}, \"28\": {\"O\": 1}, \"29\": {\"O\": 1}, \"30\": {\"O\": 1}, \"31\": {\"O\": 1}, \"32\": {\"O\": 1}, \"33\": {\"O\": 1}, \"34\": {\"O\": 1}, \"35\": {\"O\": 1}, \"36\": {\"O\": 1}, \"37\": {\"O\": 1}, \"38\": {\"O\": 1}, \"39\": {\"O\": 1}}" n_minim_iter=3 energy=-45153.379152377405 stress="0.02416127438374426 -1.6929639559753949e-13 -1.1015252169727127e-12 -1.6929639559753949e-13 0.024080219220357916 1.445274073189266e-12 -1.1015252169727127e-12 1.445274073189266e-12 0.004156263357814599" free_energy=-45153.379152377405 pbc="T T T"
In       2.55469192       4.38573726       8.33409548        0      -0.19510373       0.09211279       1.02281136
In       0.02697174       3.78277371       6.26404628        1      -0.19510373      -0.09211279      -1.02281136
In       2.50074843       1.66290027      13.56311717        2       0.19510373       0.09211279      -1.02281136
In       5.02846860       1.05993672       1.03502460        3       0.19510373      -0.09211279       1.02281136
In       2.50074843       1.05993672       6.26404628        4       0.19510373      -0.09211279      -1.02281136
In       5.02846860       1.66290027       8.33409548        5       0.19510373       0.09211279       1.02281136
In       2.55469192       3.78277371       1.03502460        6      -0.19510373      -0.09211279       1.02281136
In       0.02697174       4.38573726      13.56311717        7      -0.19510373       0.09211279      -1.02281136
In       2.53115840       3.92573042      11.94271602        8       0.35082277      -0.31048466       0.19183197
In       5.05887857       4.24278055       2.65542575        9       0.35082277       0.31048466      -0.19183197
In       2.52428195       1.20289343       9.95449663       10      -0.35082277      -0.31048466      -0.19183197
In      -0.00343822       1.51994356       4.64364513       11      -0.35082277       0.31048466       0.19183197
In       2.52428195       1.51994356       2.65542575       12      -0.35082277       0.31048466      -0.19183197
In      -0.00343822       1.20289343      11.94271602       13      -0.35082277      -0.31048466       0.19183197
In       2.53115840       4.24278055       4.64364513       14       0.35082277       0.31048466       0.19183197
In       5.05887857       3.92573042       9.95449663       15       0.35082277      -0.31048466      -0.19183197
O        4.37350512       4.70334912      11.68352755       16      -0.42099056       0.01552268      -0.14745402
O        1.84578495       3.46516185       2.91461421       17      -0.42099056      -0.01552268       0.14745402
O        0.68193522       1.98051213      10.21368509       18       0.42099056       0.01552268       0.14745402
O        3.20965540       0.74232486       4.38445667       19       0.42099056      -0.01552268      -0.14745402
O        0.68193522       0.74232486       2.91461421       20       0.42099056      -0.01552268       0.14745402
O        3.20965540       1.98051213      11.68352755       21       0.42099056       0.01552268      -0.14745402
O        4.37350512       3.46516185       4.38445667       22      -0.42099056      -0.01552268      -0.14745402
O        1.84578495       4.70334912      10.21368509       23      -0.42099056       0.01552268       0.14745402
O        3.47230338       2.77985171       9.12055960       24      -0.41250080       0.12710738      -0.07234612
O        0.94458321       5.38865926       5.47758216       25      -0.41250080      -0.12710738       0.07234612
O        1.58313696       0.05701472      12.77665304       26       0.41250080       0.12710738       0.07234612
O        4.11085714       2.66582227       1.82148872       27       0.41250080      -0.12710738      -0.07234612
O        1.58313696       2.66582227       5.47758216       28       0.41250080      -0.12710738       0.07234612
O        4.11085714       0.05701472       9.12055960       29       0.41250080       0.12710738      -0.07234612
O        3.47230338       5.38865926       1.82148872       30      -0.41250080      -0.12710738      -0.07234612
O        0.94458321       2.77985171      12.77665304       31      -0.41250080       0.12710738       0.07234612
O        3.25923280       3.55503562      13.78201766       32       0.44358751       0.08949839      -0.28361371
O        0.73151263       4.61347535       0.81612410       33       0.44358751      -0.08949839       0.28361371
O        1.79620755       0.83219863       8.11519499       34      -0.44358751       0.08949839       0.28361371
O        4.32392772       1.89063836       6.48294678       35      -0.44358751      -0.08949839      -0.28361371
O        1.79620755       1.89063836       0.81612410       36      -0.44358751      -0.08949839       0.28361371
O        4.32392772       0.83219863      13.78201766       37      -0.44358751       0.08949839      -0.28361371
O        3.25923280       4.61347535       6.48294678       38       0.44358751      -0.08949839      -0.28361371
O        0.73151263       3.55503562       8.11519499       39       0.44358751       0.08949839       0.28361371
40
Lattice="5.027431021276306 1.251052353634952e-42 0.0 -1.2335171358020747e-42 5.448839264200629 0.0 0.0 0.0 14.670944938258593" Properties=species:S:1:pos:R:3:spacegroup_kinds:I:1:forces:R:3 spacegroup="P 1" unit_cell=conventional occupancy="_JSON {\"0\": {\"In\": 1}, \"1\": {\"In\": 1}, \"2\": {\"In\": 1}, \"3\": {\"In\": 1}, \"4\": {\"In\": 1}, \"5\": {\"In\": 1}, \"6\": {\"In\": 1}, \"7\": {\"In\": 1}, \"8\": {\"In\": 1}, \"9\": {\"In\": 1}, \"10\": {\"In\": 1}, \"11\": {\"In\": 1}, \"12\": {\"In\": 1}, \"13\": {\"In\": 1}, \"14\": {\"In\": 1}, \"15\": {\"In\": 1}, \"16\": {\"O\": 1}, \"17\": {\"O\": 1}, \"18\": {\"O\": 1}, \"19\": {\"O\": 1}, \"20\": {\"O\": 1}, \"21\": {\"O\": 1}, \"22\": {\"O\": 1}, \"23\": {\"O\": 1}, \"24\": {\"O\": 1}, \"25\": {\"O\": 1}, \"26\": {\"O\": 1}, \"27\": {\"O\": 1}, \"28\": {\"O\": 1}, \"29\": {\"O\": 1}, \"30\": {\"O\": 1}, \"31\": {\"O\": 1}, \"32\": {\"O\": 1}, \"33\": {\"O\": 1}, \"34\": {\"O\": 1}, \"35\": {\"O\": 1}, \"36\": {\"O\": 1}, \"37\": {\"O\": 1}, \"38\": {\"O\": 1}, \"39\": {\"O\": 1}}" n_minim_iter=4 energy=-45153.50713824035 stress="0.03592017436832915 5.9986767392916e-13 1.0955996580394123e-12 5.9986767392916e-13 0.0319426617381613 2.226651769426873e-12 1.0955996580394123e-12 2.226651769426873e-12 0.035510919704456356" free_energy=-45153.50713824035 pbc="T T T"
In       2.54020873       4.39865172       8.38608866        0       0.07526314      -0.20634576       0.26095282
In       0.02649322       3.77460718       6.28485628        1       0.07526314       0.20634576      -0.26095282
In       2.48722229       1.67423209      13.62032875        2      -0.07526314      -0.20634576      -0.26095282
In       5.00093780       1.05018754       1.05061619        3      -0.07526314       0.20634576       0.26095282
In       2.48722229       1.05018754       6.28485628        4      -0.07526314       0.20634576      -0.26095282
In       5.00093780       1.67423209       8.38608866        5      -0.07526314      -0.20634576       0.26095282
In       2.54020873       3.77460718       1.05061619        6       0.07526314       0.20634576       0.26095282
In       0.02649322       4.39865172      13.62032875        7       0.07526314      -0.20634576      -0.26095282
In       2.52089686       3.92009868      12.01191268        8      -0.02079402       0.09718464      -0.54606883
In       5.03461237       4.25316022       2.65903225        9      -0.02079402      -0.09718464       0.54606883
In       2.50653416       1.19567905       9.99450472       10       0.02079402       0.09718464       0.54606883
In      -0.00718135       1.52874058       4.67644022       11       0.02079402      -0.09718464      -0.54606883
In       2.50653416       1.52874058       2.65903225       12       0.02079402      -0.09718464       0.54606883
In      -0.00718135       1.19567905      12.01191268       13       0.02079402       0.09718464      -0.54606883
In       2.52089686       4.25316022       4.67644022       14      -0.02079402      -0.09718464      -0.54606883
In       5.03461237       3.92009868       9.99450472       15      -0.02079402       0.09718464       0.54606883
O        4.34284803       4.70817094      11.73655161       16      -0.14464845      -0.05516281      -0.35366293
O        1.82913251       3.46508795       2.93439333       17      -0.14464845       0.05516281       0.35366293
O        0.68458300       1.98375131      10.26986580       18       0.14464845      -0.05516281       0.35366293
O        3.19829851       0.74066832       4.40107914       19       0.14464845       0.05516281      -0.35366293
O        0.68458300       0.74066832       2.93439333       20       0.14464845       0.05516281       0.35366293
O        3.19829851       1.98375131      11.73655161       21       0.14464845      -0.05516281      -0.35366293
O        4.34284803       3.46508795       4.40107914       22      -0.14464845       0.05516281      -0.35366293
O        1.82913251       4.70817094      10.26986580       23      -0.14464845      -0.05516281       0.35366293
O        3.44598970       2.78146271       9.16584229       24      -0.26906022       0.11047542      -0.06332439
O        0.93227419       5.39179619       5.50510265       25      -0.26906022      -0.11047542       0.06332439
O        1.58144132       0.05704308      12.84057511       26       0.26906022       0.11047542       0.06332439
O        4.09515683       2.66737655       1.83036982       27       0.26906022      -0.11047542      -0.06332439
O        1.58144132       2.66737655       5.50510265       28       0.26906022      -0.11047542       0.06332439
O        4.09515683       0.05704308       9.16584229       29       0.26906022       0.11047542      -0.06332439
O        3.44598970       5.39179619       1.83036982       30      -0.26906022      -0.11047542      -0.06332439
O        0.93227419       2.78146271      12.84057511       31      -0.26906022       0.11047542       0.06332439
O        3.24715573       3.55781988      13.85090264       32       0.23159719      -0.00706518       0.00013172
O        0.73344022       4.61543902       0.82004230       33       0.23159719       0.00706518      -0.00013172
O        1.78027529       0.83340025       8.15551477       34      -0.23159719      -0.00706518      -0.00013172
O        4.29399080       1.89101939       6.51543017       35      -0.23159719       0.00706518       0.00013172
O        1.78027529       1.89101939       0.82004230       36      -0.23159719       0.00706518      -0.00013172
O        4.29399080       0.83340025      13.85090264       37      -0.23159719      -0.00706518       0.00013172
O        3.24715573       4.61543902       6.51543017       38       0.23159719       0.00706518       0.00013172
O        0.73344022       3.55781988       8.15551477       39       0.23159719      -0.00706518      -0.00013172
40
Lattice="5.044789081472185 1.3885965086862344e-42 0.0 -1.3105997565140244e-42 5.4737666891927645 0.0 0.0 0.0 14.553883987413576" Properties=species:S:1:pos:R:3:spacegroup_kinds:I:1:forces:R:3 spacegroup="P 1" unit_cell=conventional occupancy="_JSON {\"0\": {\"In\": 1}, \"1\": {\"In\": 1}, \"2\": {\"In\": 1}, \"3\": {\"In\": 1}, \"4\": {\"In\": 1}, \"5\": {\"In\": 1}, \"6\": {\"In\": 1}, \"7\": {\"In\": 1}, \"8\": {\"In\": 1}, \"9\": {\"In\": 1}, \"10\": {\"In\": 1}, \"11\": {\"In\": 1}, \"12\": {\"In\": 1}, \"13\": {\"In\": 1}, \"14\": {\"In\": 1}, \"15\": {\"In\": 1}, \"16\": {\"O\": 1}, \"17\": {\"O\": 1}, \"18\": {\"O\": 1}, \"19\": {\"O\": 1}, \"20\": {\"O\": 1}, \"21\": {\"O\": 1}, \"22\": {\"O\": 1}, \"23\": {\"O\": 1}, \"24\": {\"O\": 1}, \"25\": {\"O\": 1}, \"26\": {\"O\": 1}, \"27\": {\"O\": 1}, \"28\": {\"O\": 1}, \"29\": {\"O\": 1}, \"30\": {\"O\": 1}, \"31\": {\"O\": 1}, \"32\": {\"O\": 1}, \"33\": {\"O\": 1}, \"34\": {\"O\": 1}, \"35\": {\"O\": 1}, \"36\": {\"O\": 1}, \"37\": {\"O\": 1}, \"38\": {\"O\": 1}, \"39\": {\"O\": 1}}" n_minim_iter=5 energy=-45153.58464827111 stress="0.05286187951734856 -1.4941817581258792e-12 -5.28380294458664e-13 -1.4941817581258792e-12 0.056090116874043944 1.0818451097560162e-12 -5.28380294458664e-13 1.0818451097560162e-12 0.051817760770310646" free_energy=-45153.58464827111 pbc="T T T"
In       2.55121142       4.42068562       8.33288296        0       0.03257144       0.01447491      -0.03342661
In       0.02881688       3.78996441       6.22100102        1       0.03257144      -0.01447491       0.03342662
In       2.49357766       1.68380228      13.49794302        2      -0.03257144       0.01447491       0.03342661
In       5.01597220       1.05308107       1.05594097        3      -0.03257144      -0.01447491      -0.03342661
In       2.49357766       1.05308107       6.22100102        4      -0.03257144      -0.01447491       0.03342662
In       5.01597220       1.68380228       8.33288296        5      -0.03257144       0.01447491      -0.03342661
In       2.55121142       3.78996441       1.05594097        6       0.03257144      -0.01447491      -0.03342661
In       0.02881688       4.42068562      13.49794302        7       0.03257144       0.01447491       0.03342661
In       2.53103005       3.93481975      11.90835446        8       0.09924067      -0.02584174      -0.08867770
In       5.05342459       4.27583028       2.64552952        9       0.09924067       0.02584174       0.08867770
In       2.51375904       1.19793641       9.92247152       10      -0.09924067      -0.02584174       0.08867770
In      -0.00863551       1.53894694       4.63141247       11      -0.09924067       0.02584174      -0.08867770
In       2.51375904       1.53894694       2.64552952       12      -0.09924067       0.02584174       0.08867770
In      -0.00863551       1.19793641      11.90835446       13      -0.09924067      -0.02584174      -0.08867770
In       2.53103005       4.27583028       4.63141247       14       0.09924067       0.02584174      -0.08867770
In       5.05342459       3.93481975       9.92247152       15       0.09924067      -0.02584174       0.08867770
O        4.34995858       4.72956951      11.63000391       16      -0.08860946       0.02688897       0.00151219
O        1.82756404       3.48108052       2.92388008       17      -0.08860946      -0.02688897      -0.00151219
O        0.69483050       1.99268617      10.20082207       18       0.08860946       0.02688897      -0.00151219
O        3.21722504       0.74419718       4.35306192       19       0.08860946      -0.02688897       0.00151219
O        0.69483050       0.74419718       2.92388008       20       0.08860946      -0.02688897      -0.00151219
O        3.21722504       1.99268617      11.63000391       21       0.08860946       0.02688897       0.00151219
O        4.34995858       3.48108052       4.35306192       22      -0.08860946      -0.02688897       0.00151219
O        1.82756404       4.72956951      10.20082207       23      -0.08860946       0.02688897      -0.00151219
O        3.44541464       2.79727551       9.09080970       24       0.06226820      -0.01218558       0.23186788
O        0.92302010       5.41337452       5.46307428       25       0.06226820       0.01218558      -0.23186788
O        1.59937445       0.06039217      12.74001628       26      -0.06226820      -0.01218558      -0.23186788
O        4.12176899       2.67649117       1.81386771       27      -0.06226820       0.01218558       0.23186788
O        1.59937445       2.67649117       5.46307428       28      -0.06226820       0.01218558      -0.23186788
O        4.12176899       0.06039217       9.09080970       29      -0.06226820      -0.01218558       0.23186788
O        3.44541464       5.41337452       1.81386771       30       0.06226820       0.01218558       0.23186788
O        0.92302010       2.79727551      12.74001628       31       0.06226820      -0.01218558      -0.23186788
O        3.26836687       3.57407618      13.74055126       32       0.05481993      -0.10692183      -0.24032422
O        0.74597233       4.63657386       0.81333272       33       0.05481993       0.10692183       0.24032422
O        1.77642221       0.83719283       8.09027472       34      -0.05481993      -0.10692183       0.24032422
O        4.29881675       1.89969051       6.46360927       35      -0.05481993       0.10692183      -0.24032422
O        1.77642221       1.89969051       0.81333272       36      -0.05481993       0.10692183       0.24032422
O        4.29881675       0.83719283      13.74055126       37      -0.05481993      -0.10692183      -0.24032422
O        3.26836687       4.63657386       6.46360927       38       0.05481993       0.10692183      -0.24032422
O        0.74597233       3.57407618       8.09027472       39       0.05481993      -0.10692183       0.24032422
40