40
Lattice="5.402657392405804 2.6763349866622547e-42 0.0 -3.411429042410483e-42 5.56380268557262 0.0 0.0 0.0 15.526367587108696" Properties=species:S:1:pos:R:3:spacegroup_kinds:I:1:forces:R:3 spacegroup="P 1" unit_cell=conventional occupancy="_JSON {\"0\": {\"In\": 1}, \"1\": {\"In\": 1}, \"2\": {\"In\": 1}, \"3\": {\"In\": 1}, \"4\": {\"In\": 1}, \"5\": {\"In\": 1}, \"6\": {\"In\": 1}, \"7\": {\"In\": 1}, \"8\": {\"In\": 1}, \"9\": {\"In\": 1}, \"10\": {\"In\": 1}, \"11\": {\"In\": 1}, \"12\": {\"In\": 1}, \"13\": {\"In\": 1}, \"14\": {\"In\": 1}, \"15\": {\"In\": 1}, \"16\": {\"O\": 1}, \"17\": {\"O\": 1}, \"18\": {\"O\": 1}, \"19\": {\"O\": 1}, \"20\": {\"O\": 1}, \"21\": {\"O\": 1}, \"22\": {\"O\": 1}, \"23\": {\"O\": 1}, \"24\": {\"O\": 1}, \"25\": {\"O\": 1}, \"26\": {\"O\": 1}, \"27\": {\"O\": 1}, \"28\": {\"O\": 1}, \"29\": {\"O\": 1}, \"30\": {\"O\": 1}, \"31\": {\"O\": 1}, \"32\": {\"O\": 1}, \"33\": {\"O\": 1}, \"34\": {\"O\": 1}, \"35\": {\"O\": 1}, \"36\": {\"O\": 1}, \"37\": {\"O\": 1}, \"38\": {\"O\": 1}, \"39\": {\"O\": 1}}" n_minim_iter=13 energy=-45150.768980023924 stress="0.029269883228777903 -2.4267340680563334e-12 2.5398045215944723e-13 -2.4267340680563334e-12 0.029287242905233907 -1.0920214977767169e-15 2.5398045215944723e-13 -1.0920214977767169e-15 0.02932976918824445" free_energy=-45150.768980023924 pbc="T T T"
In       2.71068102       4.43680981       8.88669981        0       0.00429209      -0.00397092      -0.00040649
In       0.00935232       3.90889422       6.63966778        1       0.00429209       0.00397092       0.00040649
In       2.69197637       1.65490847      14.40285157        2      -0.00429209      -0.00397092       0.00040649
In       5.39330507       1.12699288       1.12351601        3      -0.00429209       0.00397092      -0.00040649
In       2.69197637       1.12699288       6.63966778        4      -0.00429209       0.00397092       0.00040649
In       5.39330507       1.65490847       8.88669981        5      -0.00429209      -0.00397092      -0.00040649
In       2.71068102       3.90889422       1.12351601        6       0.00429209       0.00397092      -0.00040649
In       0.00935232       4.43680981      14.40285157        7       0.00429209      -0.00397092       0.00040649
In       2.70720793       4.10700046      12.70073642        8      -0.00392389      -0.00471668       0.00144706
In       5.40853662       4.23870357       2.82563117        9      -0.00392389       0.00471668      -0.00144706
In       2.69544947       1.32509912      10.58881496       10       0.00392389      -0.00471668      -0.00144706
In      -0.00587923       1.45680223       4.93755263       11       0.00392389       0.00471668       0.00144706
In       2.69544947       1.45680223       2.82563117       12       0.00392389       0.00471668      -0.00144706
In      -0.00587923       1.32509912      12.70073642       13       0.00392389      -0.00471668       0.00144706
In       2.70720793       4.23870357       4.93755263       14      -0.00392389       0.00471668       0.00144706
In       5.40853662       4.10700046      10.58881496       15      -0.00392389      -0.00471668      -0.00144706
O        4.66140373       4.82614527      12.41737770       16       0.00412503       0.00067551      -0.00119613
O        1.96007504       3.51955876       3.10898989       17       0.00412503      -0.00067551       0.00119613
O        0.74125366       2.04424392      10.87217368       18      -0.00412503       0.00067551       0.00119613
O        3.44258235       0.73765742       4.65419391       19      -0.00412503      -0.00067551      -0.00119613
O        0.74125366       0.73765742       3.10898989       20      -0.00412503      -0.00067551       0.00119613
O        3.44258235       2.04424392      12.41737770       21      -0.00412503       0.00067551      -0.00119613
O        4.66140373       3.51955876       4.65419391       22       0.00412503      -0.00067551      -0.00119613
O        1.96007504       4.82614527      10.87217368       23       0.00412503       0.00067551       0.00119613
O        3.81016928       2.91718340       9.75886071       24       0.00308725       0.00228335      -0.00424904
O        1.10884059       5.42852063       5.76750688       25       0.00308725      -0.00228335       0.00424904
O        1.59248811       0.13528206      13.53069067       26      -0.00308725       0.00228335       0.00424904
O        4.29381681       2.64661928       1.99567691       27      -0.00308725      -0.00228335      -0.00424904
O        1.59248811       2.64661928       5.76750688       28      -0.00308725      -0.00228335       0.00424904
O        4.29381681       0.13528206       9.75886071       29      -0.00308725       0.00228335      -0.00424905
O        3.81016928       5.42852063       1.99567691       30       0.00308725      -0.00228335      -0.00424904
O        1.10884059       2.91718340      13.53069067       31       0.00308725       0.00228335       0.00424904
O        3.48857400       3.64811770      14.71479205       32      -0.00265428      -0.00167045      -0.00054860
O        0.78724530       4.69758633       0.81157554       33      -0.00265428       0.00167045       0.00054860
O        1.91408339       0.86621636       8.57475933       34       0.00265428      -0.00167045       0.00054860
O        4.61541209       1.91568498       6.95160826       35       0.00265428       0.00167045      -0.00054860
O        1.91408339       1.91568498       0.81157554       36       0.00265428       0.00167045       0.00054860
O        4.61541209       0.86621636      14.71479205       37       0.00265428      -0.00167045      -0.00054860
O        3.48857400       4.69758633       6.95160826       38      -0.00265428       0.00167045      -0.00054860
O        0.78724530       3.64811770       8.57475933       39      -0.00265428      -0.00167045       0.00054860
