40
Lattice="5.603897318292218 -3.3607858587223444e-42 0.0 5.6643153816975965e-42 5.928969093514559 0.0 0.0 0.0 16.388018503291498" Properties=species:S:1:pos:R:3:spacegroup_kinds:I:1:forces:R:3 spacegroup="P 1" unit_cell=conventional occupancy="_JSON {\"0\": {\"In\": 1}, \"1\": {\"In\": 1}, \"2\": {\"In\": 1}, \"3\": {\"In\": 1}, \"4\": {\"In\": 1}, \"5\": {\"In\": 1}, \"6\": {\"In\": 1}, \"7\": {\"In\": 1}, \"8\": {\"In\": 1}, \"9\": {\"In\": 1}, \"10\": {\"In\": 1}, \"11\": {\"In\": 1}, \"12\": {\"In\": 1}, \"13\": {\"In\": 1}, \"14\": {\"In\": 1}, \"15\": {\"In\": 1}, \"16\": {\"O\": 1}, \"17\": {\"O\": 1}, \"18\": {\"O\": 1}, \"19\": {\"O\": 1}, \"20\": {\"O\": 1}, \"21\": {\"O\": 1}, \"22\": {\"O\": 1}, \"23\": {\"O\": 1}, \"24\": {\"O\": 1}, \"25\": {\"O\": 1}, \"26\": {\"O\": 1}, \"27\": {\"O\": 1}, \"28\": {\"O\": 1}, \"29\": {\"O\": 1}, \"30\": {\"O\": 1}, \"31\": {\"O\": 1}, \"32\": {\"O\": 1}, \"33\": {\"O\": 1}, \"34\": {\"O\": 1}, \"35\": {\"O\": 1}, \"36\": {\"O\": 1}, \"37\": {\"O\": 1}, \"38\": {\"O\": 1}, \"39\": {\"O\": 1}}" n_minim_iter=12 energy=-45150.23969655082 stress="0.006632305031929155 1.4264018092809486e-13 4.406252660597085e-13 1.4264018092809486e-13 0.006688332091952454 1.6950802303116844e-12 4.406252660597085e-13 1.6950802303116844e-12 0.006615698430703901" free_energy=-45150.23969655082 pbc="T T T"
In       2.79530439       4.76069363       9.34352461        0       0.00184036       0.00029167       0.00308263
In      -0.00664426       4.13276001       7.04449390        1       0.00184036      -0.00029167      -0.00308263
In       2.80859292       1.79620908      15.23850315        2      -0.00184036       0.00029167      -0.00308263
In       5.61054158       1.16827547       1.14951535        3      -0.00184036      -0.00029167       0.00308263
In       2.80859292       1.16827547       7.04449390        4      -0.00184036      -0.00029167      -0.00308263
In       5.61054158       1.79620908       9.34352461        5      -0.00184036       0.00029167       0.00308263
In       2.79530439       4.13276001       1.14951535        6       0.00184036      -0.00029167       0.00308263
In      -0.00664426       4.76069363      15.23850315        7       0.00184036       0.00029167      -0.00308263
In       2.77290137       4.44643422      13.40943938        8      -0.00110856      -0.00485278      -0.00354937
In       5.57485003       4.44701942       2.97857912        9      -0.00110856       0.00485278       0.00354937
In       2.83099595       1.48194967      11.17258837       10       0.00110856      -0.00485278       0.00354937
In       0.02904729       1.48253488       5.21543013       11       0.00110856       0.00485278      -0.00354937
In       2.83099595       1.48253488       2.97857912       12       0.00110856       0.00485278       0.00354937
In       0.02904729       1.48194967      13.40943938       13       0.00110856      -0.00485278      -0.00354937
In       2.77290137       4.44701942       5.21543013       14      -0.00110856       0.00485278      -0.00354937
In       5.57485003       4.44643422      11.17258837       15      -0.00110856      -0.00485278       0.00354937
O        4.81418701       5.23769953      13.07716490       16      -0.00240212      -0.00355687       0.00440617
O        2.01223835       3.65575411       3.31085361       17      -0.00240212       0.00355687      -0.00440617
O        0.78971031       2.27321498      11.50486286       18       0.00240212      -0.00355687      -0.00440617
O        3.59165896       0.69126956       4.88315564       19       0.00240212       0.00355687       0.00440617
O        0.78971031       0.69126956       3.31085361       20       0.00240212       0.00355687      -0.00440617
O        3.59165896       2.27321498      13.07716490       21       0.00240212      -0.00355687       0.00440617
O        4.81418701       3.65575411       4.88315564       22      -0.00240212       0.00355687       0.00440617
O        2.01223835       5.23769953      11.50486286       23      -0.00240212      -0.00355687      -0.00440617
O        3.93242300       3.14661204      10.20882494       24       0.00491600       0.00365493      -0.00408389
O        1.13047434       5.74684160       6.17919356       25       0.00491600      -0.00365493       0.00408389
O        1.67147432       0.18212749      14.37320282       26      -0.00491600       0.00365493       0.00408389
O        4.47342298       2.78235706       2.01481569       27      -0.00491600      -0.00365493      -0.00408389
O        1.67147432       2.78235706       6.17919356       28      -0.00491600      -0.00365493       0.00408389
O        4.47342298       0.18212749      10.20882494       29      -0.00491600       0.00365493      -0.00408389
O        3.93242300       5.74684160       2.01481569       30       0.00491600      -0.00365493      -0.00408389
O        1.13047434       3.14661204      14.37320282       31       0.00491600       0.00365493       0.00408389
O        3.63047611       3.91241006      15.53468824       32      -0.00788744      -0.00167502       0.00102464
O        0.82852745       4.98104358       0.85333027       33      -0.00788744       0.00167502      -0.00102464
O        1.97342121       0.94792551       9.04733952       34       0.00788744      -0.00167502      -0.00102464
O        4.77536987       2.01655904       7.34067899       35       0.00788744       0.00167502       0.00102464
O        1.97342121       2.01655904       0.85333027       36       0.00788744       0.00167502      -0.00102464
O        4.77536987       0.94792551      15.53468824       37       0.00788744      -0.00167502       0.00102464
O        3.63047611       4.98104358       7.34067899       38      -0.00788744       0.00167502       0.00102464
O        0.82852745       3.91241006       9.04733952       39      -0.00788744      -0.00167502      -0.00102464
