40
Lattice="5.5979868775458295 -3.4914232893688153e-42 0.0 7.0535828151905005e-43 5.823095853365495 0.0 0.0 0.0 16.305891653820815" Properties=species:S:1:pos:R:3:spacegroup_kinds:I:1:forces:R:3 spacegroup="P 1" unit_cell=conventional occupancy="_JSON {\"0\": {\"In\": 1}, \"1\": {\"In\": 1}, \"2\": {\"In\": 1}, \"3\": {\"In\": 1}, \"4\": {\"In\": 1}, \"5\": {\"In\": 1}, \"6\": {\"In\": 1}, \"7\": {\"In\": 1}, \"8\": {\"In\": 1}, \"9\": {\"In\": 1}, \"10\": {\"In\": 1}, \"11\": {\"In\": 1}, \"12\": {\"In\": 1}, \"13\": {\"In\": 1}, \"14\": {\"In\": 1}, \"15\": {\"In\": 1}, \"16\": {\"O\": 1}, \"17\": {\"O\": 1}, \"18\": {\"O\": 1}, \"19\": {\"O\": 1}, \"20\": {\"O\": 1}, \"21\": {\"O\": 1}, \"22\": {\"O\": 1}, \"23\": {\"O\": 1}, \"24\": {\"O\": 1}, \"25\": {\"O\": 1}, \"26\": {\"O\": 1}, \"27\": {\"O\": 1}, \"28\": {\"O\": 1}, \"29\": {\"O\": 1}, \"30\": {\"O\": 1}, \"31\": {\"O\": 1}, \"32\": {\"O\": 1}, \"33\": {\"O\": 1}, \"34\": {\"O\": 1}, \"35\": {\"O\": 1}, \"36\": {\"O\": 1}, \"37\": {\"O\": 1}, \"38\": {\"O\": 1}, \"39\": {\"O\": 1}}" n_minim_iter=16 energy=-45150.28805731698 stress="0.0008663877330601117 -2.054580243800026e-13 8.486870614317575e-13 -2.054580243800026e-13 0.0008795109775923468 -1.2774552806809852e-12 8.486870614317575e-13 -1.2774552806809852e-12 0.0007897294421854381" free_energy=-45150.28805731698 pbc="T T T"
In       2.79550110       4.66593755       9.30287748        0      -0.00441615       0.00498821      -0.00108302
In      -0.00349234       4.06870623       7.00301418        1      -0.00441615      -0.00498821       0.00108302
In       2.80248578       1.75438963      15.15596000        2       0.00441615       0.00498821       0.00108302
In       5.60147922       1.15715830       1.14993165        3       0.00441615      -0.00498821      -0.00108302
In       2.80248578       1.15715830       7.00301418        4       0.00441615      -0.00498821       0.00108302
In       5.60147922       1.75438963       9.30287748        5       0.00441615       0.00498821      -0.00108302
In       2.79550110       4.06870623       1.14993165        6      -0.00441615      -0.00498821      -0.00108302
In      -0.00349234       4.66593755      15.15596000        7      -0.00441615       0.00498821       0.00108302
In       2.77898412       4.37220137      13.34566874        8      -0.00548444       0.00314461      -0.00256690
In       5.57797755       4.36244241       2.96022291        9      -0.00548444      -0.00314461       0.00256690
In       2.81900276       1.46065344      11.11316874       10       0.00548444       0.00314461       0.00256690
In       0.02000932       1.45089449       5.19272292       11       0.00548444      -0.00314461      -0.00256690
In       2.81900276       1.45089449       2.96022291       12       0.00548444      -0.00314461       0.00256690
In       0.02000932       1.46065344      13.34566874       13       0.00548444       0.00314461      -0.00256690
In       2.77898412       4.36244241       5.19272292       14      -0.00548444      -0.00314461      -0.00256690
In       5.57797755       4.37220137      11.11316874       15      -0.00548444       0.00314461       0.00256690
O        4.81257827       5.14813248      13.01054067       16      -0.00312311       0.00231912       0.00029906
O        2.01358483       3.58651130       3.29535099       17      -0.00312311      -0.00231912      -0.00029906
O        0.78540861       2.23658455      11.44829682       18       0.00312311       0.00231912      -0.00029906
O        3.58440205       0.67496338       4.85759484       19       0.00312311      -0.00231912       0.00029906
O        0.78540861       0.67496338       3.29535099       20       0.00312311      -0.00231912      -0.00029906
O        3.58440205       2.23658455      13.01054067       21       0.00312311       0.00231912       0.00029906
O        4.81257827       3.58651130       4.85759484       22      -0.00312311      -0.00231912       0.00029906
O        2.01358483       5.14813248      11.44829682       23      -0.00312311       0.00231912      -0.00029906
O        3.94892563       3.08317412      10.16616606       24       0.00095592      -0.00311527      -0.00024860
O        1.14993220       5.65146966       6.13972559       25       0.00095592       0.00311527       0.00024860
O        1.64906124       0.17162619      14.29267142       26      -0.00095592      -0.00311527       0.00024860
O        4.44805468       2.73992173       2.01322023       27      -0.00095592       0.00311527      -0.00024860
O        1.64906124       2.73992173       6.13972559       28      -0.00095592       0.00311527       0.00024860
O        4.44805468       0.17162619      10.16616606       29      -0.00095592      -0.00311527      -0.00024860
O        3.94892563       5.65146966       2.01322023       30       0.00095592       0.00311527      -0.00024860
O        1.14993220       3.08317412      14.29267142       31       0.00095592      -0.00311527       0.00024860
O        3.62243082       3.85314799      15.45687240       32      -0.00442004      -0.00204433      -0.00021144
O        0.82343738       4.88149579       0.84901925       33      -0.00442004       0.00204433       0.00021144
O        1.97555606       0.94160006       9.00196508       34       0.00442004      -0.00204433       0.00021144
O        4.77454950       1.96994786       7.30392658       35       0.00442004       0.00204433      -0.00021144
O        1.97555606       1.96994786       0.84901925       36       0.00442004       0.00204433       0.00021144
O        4.77454950       0.94160006      15.45687240       37       0.00442004      -0.00204433      -0.00021144
O        3.62243082       4.88149579       7.30392658       38      -0.00442004       0.00204433      -0.00021144
O        0.82343738       3.85314799       9.00196508       39      -0.00442004      -0.00204433       0.00021144
