40
Lattice="5.879958816307782 -4.671685469032539e-42 0.0 4.9285462665661336e-42 6.203253464681076 0.0 0.0 0.0 17.416014583034748" Properties=species:S:1:pos:R:3:spacegroup_kinds:I:1:forces:R:3 spacegroup="P 1" unit_cell=conventional occupancy="_JSON {\"0\": {\"In\": 1}, \"1\": {\"In\": 1}, \"2\": {\"In\": 1}, \"3\": {\"In\": 1}, \"4\": {\"In\": 1}, \"5\": {\"In\": 1}, \"6\": {\"In\": 1}, \"7\": {\"In\": 1}, \"8\": {\"In\": 1}, \"9\": {\"In\": 1}, \"10\": {\"In\": 1}, \"11\": {\"In\": 1}, \"12\": {\"In\": 1}, \"13\": {\"In\": 1}, \"14\": {\"In\": 1}, \"15\": {\"In\": 1}, \"16\": {\"O\": 1}, \"17\": {\"O\": 1}, \"18\": {\"O\": 1}, \"19\": {\"O\": 1}, \"20\": {\"O\": 1}, \"21\": {\"O\": 1}, \"22\": {\"O\": 1}, \"23\": {\"O\": 1}, \"24\": {\"O\": 1}, \"25\": {\"O\": 1}, \"26\": {\"O\": 1}, \"27\": {\"O\": 1}, \"28\": {\"O\": 1}, \"29\": {\"O\": 1}, \"30\": {\"O\": 1}, \"31\": {\"O\": 1}, \"32\": {\"O\": 1}, \"33\": {\"O\": 1}, \"34\": {\"O\": 1}, \"35\": {\"O\": 1}, \"36\": {\"O\": 1}, \"37\": {\"O\": 1}, \"38\": {\"O\": 1}, \"39\": {\"O\": 1}}" n_minim_iter=1 energy=-45149.743291801526 stress="0.03704658337763271 9.711828442545953e-14 7.200054990013047e-13 9.711828442545953e-14 0.03920137413889983 -1.0821695017610101e-12 7.200054990013047e-13 -1.0821695017610101e-12 0.0398875595074019" free_energy=-45149.743291801526 pbc="T T T"
In       2.58594198       5.21174188      10.06949882        0       0.05258382       0.09963656       0.03840555
In      -0.35403743       4.09313831       7.34651576        1       0.05258382      -0.09963656      -0.03840555
In       3.29401684       2.11011515      16.05452305        2      -0.05258382       0.09963656      -0.03840555
In       6.23399624       0.99151158       1.36149153        3      -0.05258382      -0.09963656       0.03840555
In       3.29401684       0.99151158       7.34651576        4      -0.05258382      -0.09963656      -0.03840555
In       6.23399624       2.11011515      10.06949882        5      -0.05258382       0.09963656       0.03840555
In       2.58594198       4.09313831       1.36149153        6       0.05258382      -0.09963656       0.03840555
In      -0.35403743       5.21174188      16.05452305        7       0.05258382       0.09963656      -0.03840555
In       2.58484826       5.03576427      14.06730426        8       0.09965280       0.01243446       0.10512943
In       5.52482767       4.26911593       3.34871032        9       0.09965280      -0.01243446      -0.10512943
In       3.29511056       1.93413754      12.05671761       10      -0.09965280       0.01243446      -0.10512943
In       0.35513115       1.16748919       5.35929697       11      -0.09965280      -0.01243446       0.10512943
In       3.29511056       1.16748919       3.34871032       12      -0.09965280      -0.01243446      -0.10512943
In       0.35513115       1.93413754      14.06730426       13      -0.09965280       0.01243446       0.10512943
In       2.58484826       4.26911593       5.35929697       14       0.09965280      -0.01243446       0.10512943
In       5.52482767       5.03576427      12.05671761       15       0.09965280       0.01243446      -0.10512943
O        4.71427677       5.80244542      13.97668656       16      -0.00671339      -0.11283643       0.01344117
O        1.77429736       3.50243478       3.43932803       17      -0.00671339       0.11283643      -0.01344117
O        1.16568205       2.70081869      12.14733532       18       0.00671339      -0.11283643      -0.01344117
O        4.10566146       0.40080805       5.26867927       19       0.00671339       0.11283643       0.01344117
O        1.16568205       0.40080805       3.43932803       20       0.00671339       0.11283643      -0.01344117
O        4.10566146       2.70081869      13.97668656       21       0.00671339      -0.11283643       0.01344117
O        4.71427677       3.50243478       5.26867927       22      -0.00671339       0.11283643       0.01344117
O        1.77429736       5.80244542      12.14733532       23      -0.00671339      -0.11283643      -0.01344117
O        3.95826387       3.83462854      11.16588095       24      -0.05873178       0.12903131       0.01878193
O        1.01828446       5.47025166       6.25013363       25      -0.05873178      -0.12903131      -0.01878193
O        1.92169495       0.73300180      14.95814092       26       0.05873178       0.12903131      -0.01878193
O        4.86167436       2.36862493       2.45787366       27       0.05873178      -0.12903131       0.01878193
O        1.92169495       2.36862493       6.25013363       28       0.05873178      -0.12903131      -0.01878193
O        4.86167436       0.73300180      11.16588095       29       0.05873178       0.12903131       0.01878193
O        3.95826387       5.47025166       2.45787366       30      -0.05873178      -0.12903131       0.01878193
O        1.01828446       3.83462854      14.95814092       31      -0.05873178       0.12903131      -0.01878193
O        3.56798210       4.21165365      16.66431813       32       0.00033038      -0.15969134       0.05993645
O        0.62800269       5.09322655       0.75169646       33       0.00033038       0.15969134      -0.05993645
O        2.31197671       1.11002692       9.45970375       34      -0.00033038      -0.15969134      -0.05993645
O        5.25195612       1.99159982       7.95631083       35      -0.00033038       0.15969134       0.05993645
O        2.31197671       1.99159982       0.75169646       36      -0.00033038       0.15969134      -0.05993645
O        5.25195612       1.11002692      16.66431813       37      -0.00033038      -0.15969134       0.05993645
O        3.56798210       5.09322655       7.95631083       38       0.00033038       0.15969134       0.05993645
O        0.62800269       4.21165365       9.45970375       39       0.00033038      -0.15969134      -0.05993645
40
Lattice="5.8921999623689025 -4.684740828733587e-42 0.0 4.909863596467374e-42 6.199462184749296 0.0 0.0 0.0 17.390461148573664" Properties=species:S:1:pos:R:3:spacegroup_kinds:I:1:forces:R:3 spacegroup="P 1" unit_cell=conventional occupancy="_JSON {\"0\": {\"In\": 1}, \"1\": {\"In\": 1}, \"2\": {\"In\": 1}, \"3\": {\"In\": 1}, \"4\": {\"In\": 1}, \"5\": {\"In\": 1}, \"6\": {\"In\": 1}, \"7\": {\"In\": 1}, \"8\": {\"In\": 1}, \"9\": {\"In\": 1}, \"10\": {\"In\": 1}, \"11\": {\"In\": 1}, \"12\": {\"In\": 1}, \"13\": {\"In\": 1}, \"14\": {\"In\": 1}, \"15\": {\"In\": 1}, \"16\": {\"O\": 1}, \"17\": {\"O\": 1}, \"18\": {\"O\": 1}, \"19\": {\"O\": 1}, \"20\": {\"O\": 1}, \"21\": {\"O\": 1}, \"22\": {\"O\": 1}, \"23\": {\"O\": 1}, \"24\": {\"O\": 1}, \"25\": {\"O\": 1}, \"26\": {\"O\": 1}, \"27\": {\"O\": 1}, \"28\": {\"O\": 1}, \"29\": {\"O\": 1}, \"30\": {\"O\": 1}, \"31\": {\"O\": 1}, \"32\": {\"O\": 1}, \"33\": {\"O\": 1}, \"34\": {\"O\": 1}, \"35\": {\"O\": 1}, \"36\": {\"O\": 1}, \"37\": {\"O\": 1}, \"38\": {\"O\": 1}, \"39\": {\"O\": 1}}" n_minim_iter=2 energy=-45149.74576500676 stress="0.03907951986762924 1.6471432558133266e-12 -7.513348235109835e-13 1.6471432558133266e-12 0.03840473136803651 -5.305215463840907e-13 -7.513348235109835e-13 -5.305215463840907e-13 0.037723528563706726" free_energy=-45149.74576500676 pbc="T T T"
In       2.59142910       5.20875235      10.05479987        0       0.05210247       0.07729374       0.06718963
In      -0.35467089       4.09044092       7.33566128        1       0.05210247      -0.07729374      -0.06718963
In       3.30077087       2.10902126      16.03089186        2      -0.05210247       0.07729374      -0.06718963
In       6.24687085       0.99070983       1.35956929        3      -0.05210247      -0.07729374       0.06718963
In       3.30077087       0.99070983       7.33566128        4      -0.05210247      -0.07729374      -0.06718963
In       6.24687085       2.10902126      10.05479987        5      -0.05210247       0.07729374       0.06718963
In       2.59142910       4.09044092       1.35956929        6       0.05210247      -0.07729374       0.06718963
In      -0.35467089       5.20875235      16.03089186        7       0.05210247       0.07729374      -0.06718963
In       2.59042582       5.03271096      14.04687056        8       0.12478249       0.01614752       0.08776422
In       5.53652581       4.26648231       3.34359059        9       0.12478249      -0.01614752      -0.08776422
In       3.30177414       1.93297987      12.03882117       10      -0.12478249       0.01614752      -0.08776422
In       0.35567416       1.16675122       5.35163998       11      -0.12478249      -0.01614752       0.08776422
In       3.30177414       1.16675122       3.34359059       12      -0.12478249      -0.01614752      -0.08776422
In       0.35567416       1.93297987      14.04687056       13      -0.12478249       0.01614752       0.08776422
In       2.59042582       4.26648231       5.35163998       14       0.12478249      -0.01614752       0.08776422
In       5.53652581       5.03271096      12.03882117       15       0.12478249       0.01614752      -0.08776422
O        4.72407792       5.79867741      13.95620582       16      -0.01356394      -0.11124111       0.02534962
O        1.77797794       3.50051587       3.43425533       17      -0.01356394       0.11124111      -0.02534962
O        1.16812204       2.69894632      12.12948590       18       0.01356394      -0.11124111      -0.02534962
O        4.11422202       0.40078478       5.26097525       19       0.01356394       0.11124111       0.02534962
O        1.16812204       0.40078478       3.43425533       20       0.01356394       0.11124111      -0.02534962
O        4.11422202       2.69894632      13.95620582       21       0.01356394      -0.11124111       0.02534962
O        4.72407792       3.50051587       5.26097525       22      -0.01356394       0.11124111       0.02534962
O        1.77797794       5.79867741      12.12948590       23      -0.01356394      -0.11124111      -0.02534962
O        3.96638864       3.83253842      11.14953482       24      -0.05600027       0.13683480       0.01710037
O        1.02028866       5.46665486       6.24092633       25      -0.05600027      -0.13683480      -0.01710037
O        1.92581132       0.73280732      14.93615690       26       0.05600027       0.13683480      -0.01710037
O        4.87191130       2.36692377       2.45430424       27       0.05600027      -0.13683480       0.01710037
O        1.92581132       2.36692377       6.24092633       28       0.05600027      -0.13683480      -0.01710037
O        4.87191130       0.73280732      11.14953482       29       0.05600027       0.13683480       0.01710037
O        3.96638864       5.46665486       2.45430424       30      -0.05600027      -0.13683480       0.01710037
O        1.02028866       3.83253842      14.93615690       31      -0.05600027       0.13683480      -0.01710037
O        3.57541073       4.20876583      16.63998527       32       0.00953764      -0.14347920       0.05269117
O        0.62931075       5.09042744       0.75047588       33       0.00953764       0.14347920      -0.05269117
O        2.31678923       1.10903474       9.44570646       34      -0.00953764      -0.14347920      -0.05269117
O        5.26288921       1.99069635       7.94475469       35      -0.00953764       0.14347920       0.05269117
O        2.31678923       1.99069635       0.75047588       36      -0.00953764       0.14347920      -0.05269117
O        5.26288921       1.10903474      16.63998527       37      -0.00953764      -0.14347920       0.05269117
O        3.57541073       5.09042744       7.94475469       38       0.00953764       0.14347920       0.05269117
O        0.62931075       4.20876583       9.44570646       39       0.00953764      -0.14347920      -0.05269117
40
Lattice="5.895747379247603 -4.226224209592349e-42 0.0 5.142711753926553e-42 6.1871285402409955 0.0 0.0 0.0 17.41464338022608" Properties=species:S:1:pos:R:3:spacegroup_kinds:I:1:forces:R:3 spacegroup="P 1" unit_cell=conventional occupancy="_JSON {\"0\": {\"In\": 1}, \"1\": {\"In\": 1}, \"2\": {\"In\": 1}, \"3\": {\"In\": 1}, \"4\": {\"In\": 1}, \"5\": {\"In\": 1}, \"6\": {\"In\": 1}, \"7\": {\"In\": 1}, \"8\": {\"In\": 1}, \"9\": {\"In\": 1}, \"10\": {\"In\": 1}, \"11\": {\"In\": 1}, \"12\": {\"In\": 1}, \"13\": {\"In\": 1}, \"14\": {\"In\": 1}, \"15\": {\"In\": 1}, \"16\": {\"O\": 1}, \"17\": {\"O\": 1}, \"18\": {\"O\": 1}, \"19\": {\"O\": 1}, \"20\": {\"O\": 1}, \"21\": {\"O\": 1}, \"22\": {\"O\": 1}, \"23\": {\"O\": 1}, \"24\": {\"O\": 1}, \"25\": {\"O\": 1}, \"26\": {\"O\": 1}, \"27\": {\"O\": 1}, \"28\": {\"O\": 1}, \"29\": {\"O\": 1}, \"30\": {\"O\": 1}, \"31\": {\"O\": 1}, \"32\": {\"O\": 1}, \"33\": {\"O\": 1}, \"34\": {\"O\": 1}, \"35\": {\"O\": 1}, \"36\": {\"O\": 1}, \"37\": {\"O\": 1}, \"38\": {\"O\": 1}, \"39\": {\"O\": 1}}" n_minim_iter=3 energy=-45149.75614538585 stress="0.03853121743263533 6.053347708935179e-13 7.535006644904878e-13 6.053347708935179e-13 0.03451805585435691 1.006451666163428e-12 7.535006644904878e-13 1.006451666163428e-12 0.039183737378890235" free_energy=-45149.75614538585 pbc="T T T"
In       2.59406711       5.20011410      10.06997779        0       0.03025386       0.02840610       0.03912973
In      -0.35380658       4.08057871       7.34466559        1       0.03025386      -0.02840610      -0.03912973
In       3.30168027       2.10654983      16.05198728        2      -0.03025386       0.02840610      -0.03912973
In       6.24955396       0.98701444       1.36265610        3      -0.03025386      -0.02840610       0.03912973
In       3.30168027       0.98701444       7.34466559        4      -0.03025386      -0.02840610      -0.03912973
In       6.24955396       2.10654983      10.06997779        5      -0.03025386       0.02840610       0.03912973
In       2.59406711       4.08057871       1.36265610        6       0.03025386      -0.02840610       0.03912973
In      -0.35380658       5.20011410      16.05198728        7       0.03025386       0.02840610      -0.03912973
In       2.59439963       5.02300577      14.06831449        8       0.09671215       0.02102398       0.06177194
In       5.54227332       4.25768704       3.34632889        9       0.09671215      -0.02102398      -0.06177194
In       3.30134775       1.92944150      12.05365058       10      -0.09671215       0.02102398      -0.06177194
In       0.35347406       1.16412277       5.36099280       11      -0.09671215      -0.02102398       0.06177194
In       3.30134775       1.16412277       3.34632889       12      -0.09671215      -0.02102398      -0.06177194
In       0.35347406       1.92944150      14.06831449       13      -0.09671215       0.02102398       0.06177194
In       2.59439963       4.25768704       5.36099280       14       0.09671215      -0.02102398       0.06177194
In       5.54227332       5.02300577      12.05365058       15       0.09671215       0.02102398      -0.06177194
O        4.72668583       5.78485266      13.97605724       16       0.00465989      -0.08878979       0.00499566
O        1.77881214       3.49584015       3.43858614       17       0.00465989       0.08878979      -0.00499566
O        1.16906155       2.69128839      12.14590783       18      -0.00465989      -0.08878979      -0.00499566
O        4.11693524       0.40227588       5.26873555       19      -0.00465989       0.08878979       0.00499566
O        1.16906155       0.40227588       3.43858614       20      -0.00465989       0.08878979      -0.00499566
O        4.11693524       2.69128839      13.97605724       21      -0.00465989      -0.08878979       0.00499566
O        4.72668583       3.49584015       5.26873555       22       0.00465989       0.08878979       0.00499566
O        1.77881214       5.78485266      12.14590783       23       0.00465989      -0.08878979      -0.00499566
O        3.96760407       3.82766689      11.16540034       24      -0.02832697       0.11128714       0.01098685
O        1.01973038       5.45302592       6.24924305       25      -0.02832697      -0.11128714      -0.01098685
O        1.92814331       0.73410262      14.95656474       26       0.02832697       0.11128714      -0.01098685
O        4.87601700       2.35946165       2.45807864       27       0.02832697      -0.11128714       0.01098685
O        1.92814331       2.35946165       6.24924305       28       0.02832697      -0.11128714      -0.01098685
O        4.87601700       0.73410262      11.16540034       29       0.02832697       0.11128714       0.01098685
O        3.96760407       5.45302592       2.45807864       30      -0.02832697      -0.11128714       0.01098685
O        1.01973038       3.82766689      14.95656474       31      -0.02832697       0.11128714      -0.01098685
O        3.57770151       4.19735144      16.66425114       32       0.03091015      -0.06869608       0.03712521
O        0.62982782       5.08334137       0.75039224       33       0.03091015       0.06869608      -0.03712521
O        2.31804587       1.10378717       9.45771393       34      -0.03091015      -0.06869608      -0.03712521
O        5.26591956       1.98977710       7.95692945       35      -0.03091015       0.06869608       0.03712521
O        2.31804587       1.98977710       0.75039224       36      -0.03091015       0.06869608      -0.03712521
O        5.26591956       1.10378717      16.66425114       37      -0.03091015      -0.06869608       0.03712521
O        3.57770151       5.08334137       7.95692945       38       0.03091015       0.06869608       0.03712521
O        0.62982782       4.19735144       9.45771393       39       0.03091015      -0.06869608      -0.03712521
40
Lattice="5.88492760186426 -4.016930750672604e-42 0.0 5.135031843264297e-42 6.219924571386815 0.0 0.0 0.0 17.35466953296077" Properties=species:S:1:pos:R:3:spacegroup_kinds:I:1:forces:R:3 spacegroup="P 1" unit_cell=conventional occupancy="_JSON {\"0\": {\"In\": 1}, \"1\": {\"In\": 1}, \"2\": {\"In\": 1}, \"3\": {\"In\": 1}, \"4\": {\"In\": 1}, \"5\": {\"In\": 1}, \"6\": {\"In\": 1}, \"7\": {\"In\": 1}, \"8\": {\"In\": 1}, \"9\": {\"In\": 1}, \"10\": {\"In\": 1}, \"11\": {\"In\": 1}, \"12\": {\"In\": 1}, \"13\": {\"In\": 1}, \"14\": {\"In\": 1}, \"15\": {\"In\": 1}, \"16\": {\"O\": 1}, \"17\": {\"O\": 1}, \"18\": {\"O\": 1}, \"19\": {\"O\": 1}, \"20\": {\"O\": 1}, \"21\": {\"O\": 1}, \"22\": {\"O\": 1}, \"23\": {\"O\": 1}, \"24\": {\"O\": 1}, \"25\": {\"O\": 1}, \"26\": {\"O\": 1}, \"27\": {\"O\": 1}, \"28\": {\"O\": 1}, \"29\": {\"O\": 1}, \"30\": {\"O\": 1}, \"31\": {\"O\": 1}, \"32\": {\"O\": 1}, \"33\": {\"O\": 1}, \"34\": {\"O\": 1}, \"35\": {\"O\": 1}, \"36\": {\"O\": 1}, \"37\": {\"O\": 1}, \"38\": {\"O\": 1}, \"39\": {\"O\": 1}}" n_minim_iter=4 energy=-45149.78016042635 stress="0.03268330164700674 -2.085926559393305e-12 2.369556914819193e-12 -2.085926559393305e-12 0.03379692956039607 -3.3927582172782724e-13 2.369556914819193e-12 -3.3927582172782724e-13 0.03245779743568159" free_energy=-45149.78016042635 pbc="T T T"
In       2.59273256       5.23308247      10.03911241        0       0.01962112      -0.03381298       0.00303887
In      -0.34973124       4.09680439       7.31555712        1       0.01962112       0.03381298      -0.00303887
In       3.29219504       2.12312018      15.99289189        2      -0.01962112      -0.03381298      -0.00303887
In       6.23465884       0.98684211       1.36177764        3      -0.01962112       0.03381298       0.00303887
In       3.29219504       0.98684211       7.31555712        4      -0.01962112       0.03381298      -0.00303887
In       6.23465884       2.12312018      10.03911241        5      -0.01962112      -0.03381298       0.00303887
In       2.59273256       4.09680439       1.36177764        6       0.01962112       0.03381298       0.00303887
In      -0.34973124       5.23308247      15.99289189        7       0.01962112      -0.03381298      -0.00303887
In       2.59747941       5.05068934      14.02598731        8       0.02748090       0.08100468       0.01640327
In       5.53994321       4.27919751       3.32868222        9       0.02748090      -0.08100468      -0.01640327
In       3.28744819       1.94072706      12.00601699       10      -0.02748090       0.08100467      -0.01640327
In       0.34498439       1.16923523       5.34865255       11      -0.02748090      -0.08100468       0.01640327
In       3.28744819       1.16923523       3.32868222       12      -0.02748090      -0.08100468      -0.01640327
In       0.34498439       1.94072706      14.02598731       13      -0.02748090       0.08100468       0.01640327
In       2.59747941       4.27919751       5.34865255       14       0.02748090      -0.08100468       0.01640327
In       5.53994321       5.05068934      12.00601699       15       0.02748090       0.08100468      -0.01640327
O        4.71733479       5.80804115      13.92928348       16       0.01520621      -0.05034804      -0.03998331
O        1.77487099       3.52184571       3.42538605       17       0.01520621       0.05034804       0.03998331
O        1.16759281       2.69807886      12.10272082       18      -0.01520621      -0.05034804       0.03998331
O        4.11005661       0.41188342       5.25194871       19      -0.01520621       0.05034804      -0.03998331
O        1.16759281       0.41188342       3.42538605       20      -0.01520621       0.05034804       0.03998331
O        4.11005661       2.69807886      13.92928348       21      -0.01520621      -0.05034804      -0.03998331
O        4.71733479       3.52184571       5.25194871       22       0.01520621       0.05034804      -0.03998331
O        1.77487099       5.80804115      12.10272082       23       0.01520621      -0.05034804       0.03998331
O        3.95662318       3.85697211      11.12810124       24       0.04364538       0.00801437       0.07032639
O        1.01415938       5.47291475       6.22656829       25       0.04364538      -0.00801437      -0.07032639
O        1.92830442       0.74700982      14.90390306       26      -0.04364538       0.00801437      -0.07032639
O        4.87076822       2.36295246       2.45076647       27      -0.04364538      -0.00801437       0.07032639
O        1.92830442       2.36295246       6.22656829       28      -0.04364538      -0.00801437      -0.07032639
O        4.87076822       0.74700982      11.12810124       29      -0.04364538       0.00801437       0.07032639
O        3.95662318       5.47291475       2.45076647       30       0.04364538      -0.00801437       0.07032639
O        1.01415938       3.85697211      14.90390306       31       0.04364538       0.00801437      -0.07032639
O        3.57173904       4.20996578      16.61047534       32       0.05755480       0.00855910      -0.00270204
O        0.62927524       5.11992107       0.74419420       33       0.05755480      -0.00855910       0.00270204
O        2.31318856       1.10000350       9.42152896       34      -0.05755480       0.00855910       0.00270203
O        5.25565236       2.00995879       7.93314057       35      -0.05755480      -0.00855910      -0.00270204
O        2.31318856       2.00995879       0.74419420       36      -0.05755480      -0.00855910       0.00270204
O        5.25565236       1.10000350      16.61047534       37      -0.05755480       0.00855910      -0.00270204
O        3.57173904       5.11992107       7.93314057       38       0.05755480      -0.00855910      -0.00270204
O        0.62927524       4.20996578       9.42152896       39       0.05755480       0.00855910       0.00270204
40
Lattice="5.8925126310915195 -4.4307036288286604e-42 0.0 5.06331329216341e-42 6.208460077306748 0.0 0.0 0.0 17.3643357975136" Properties=species:S:1:pos:R:3:spacegroup_kinds:I:1:forces:R:3 spacegroup="P 1" unit_cell=conventional occupancy="_JSON {\"0\": {\"In\": 1}, \"1\": {\"In\": 1}, \"2\": {\"In\": 1}, \"3\": {\"In\": 1}, \"4\": {\"In\": 1}, \"5\": {\"In\": 1}, \"6\": {\"In\": 1}, \"7\": {\"In\": 1}, \"8\": {\"In\": 1}, \"9\": {\"In\": 1}, \"10\": {\"In\": 1}, \"11\": {\"In\": 1}, \"12\": {\"In\": 1}, \"13\": {\"In\": 1}, \"14\": {\"In\": 1}, \"15\": {\"In\": 1}, \"16\": {\"O\": 1}, \"17\": {\"O\": 1}, \"18\": {\"O\": 1}, \"19\": {\"O\": 1}, \"20\": {\"O\": 1}, \"21\": {\"O\": 1}, \"22\": {\"O\": 1}, \"23\": {\"O\": 1}, \"24\": {\"O\": 1}, \"25\": {\"O\": 1}, \"26\": {\"O\": 1}, \"27\": {\"O\": 1}, \"28\": {\"O\": 1}, \"29\": {\"O\": 1}, \"30\": {\"O\": 1}, \"31\": {\"O\": 1}, \"32\": {\"O\": 1}, \"33\": {\"O\": 1}, \"34\": {\"O\": 1}, \"35\": {\"O\": 1}, \"36\": {\"O\": 1}, \"37\": {\"O\": 1}, \"38\": {\"O\": 1}, \"39\": {\"O\": 1}}" n_minim_iter=5 energy=-45149.78666406259 stress="0.03173987283562231 -3.803283172727143e-13 -1.9751322366053048e-12 -3.803283172727143e-13 0.029308599363344946 -5.919132854772463e-13 -1.9751322366053048e-12 -5.919132854772463e-13 0.032679438552752856" free_energy=-45149.78666406259 pbc="T T T"
In       2.59841785       5.22370408      10.04641971        0      -0.00233549      -0.06925214      -0.01093619
In      -0.34783847       4.08898604       7.31791609        1      -0.00233549       0.06925214       0.01093619
In       3.29409478       2.11947404      16.00008399        2       0.00233549      -0.06925214       0.01093619
In       6.24035110       0.98475600       1.36425181        3       0.00233549       0.06925214      -0.01093619
In       3.29409478       0.98475600       7.31791609        4       0.00233549       0.06925214       0.01093619
In       6.24035110       2.11947404      10.04641971        5       0.00233549      -0.06925214      -0.01093619
In       2.59841785       4.08898604       1.36425181        6      -0.00233549       0.06925214      -0.01093619
In      -0.34783847       5.22370408      16.00008399        7      -0.00233549      -0.06925214       0.01093619
In       2.60564462       5.04594949      14.03715880        8       0.00965268       0.05623887      -0.02510978
In       5.55190094       4.26674063       3.32717700        9       0.00965268      -0.05623887       0.02510978
In       3.28686801       1.94171945      12.00934490       10      -0.00965268       0.05623887       0.02510978
In       0.34061169       1.16251059       5.35499090       11      -0.00965268      -0.05623887      -0.02510978
In       3.28686801       1.16251059       3.32717700       12      -0.00965268      -0.05623887       0.02510978
In       0.34061169       1.94171945      14.03715880       13      -0.00965268       0.05623887      -0.02510978
In       2.60564462       4.26674063       5.35499090       14       0.00965268      -0.05623887      -0.02510978
In       5.55190094       5.04594949      12.00934490       15       0.00965268       0.05623887       0.02510978
O        4.72403218       5.79158174      13.93553090       16       0.04097468      -0.01205176      -0.01833564
O        1.77777587       3.52110838       3.42880490       17       0.04097468       0.01205176       0.01833564
O        1.16848045       2.68735170      12.11097279       18      -0.04097468      -0.01205176       0.01833564
O        4.11473676       0.41687834       5.25336300       19      -0.04097468       0.01205176      -0.01833564
O        1.16848045       0.41687834       3.42880490       20      -0.04097468       0.01205176       0.01833564
O        4.11473676       2.68735170      13.93553090       21      -0.04097468      -0.01205176      -0.01833564
O        4.72403218       3.52110838       5.25336300       22       0.04097468       0.01205176      -0.01833564
O        1.77777587       5.79158174      12.11097279       23       0.04097468      -0.01205176       0.01833564
O        3.96244952       3.85423823      11.13821623       24       0.07141881      -0.00894789       0.02323689
O        1.01619320       5.45845189       6.22611957       25       0.07141881       0.00894789      -0.02323689
O        1.93006311       0.75000819      14.90828747       26      -0.07141881      -0.00894789      -0.02323689
O        4.87631943       2.35422185       2.45604833       27      -0.07141881       0.00894789       0.02323689
O        1.93006311       2.35422185       6.22611957       28      -0.07141881       0.00894789      -0.02323689
O        4.87631943       0.75000819      11.13821623       29      -0.07141881      -0.00894789       0.02323689
O        3.96244952       5.45845189       2.45604833       30       0.07141881       0.00894789       0.02323689
O        1.01619320       3.85423823      14.90828747       31       0.07141881      -0.00894789      -0.02323689
O        3.57973697       4.19897030      16.62110890       32       0.05910048       0.06613383      -0.01263005
O        0.63348065       5.11371982       0.74322690       33       0.05910048      -0.06613383       0.01263005
O        2.31277567       1.09474026       9.42539480       34      -0.05910048       0.06613383       0.01263005
O        5.25903198       2.00948978       7.93894100       35      -0.05910048      -0.06613383      -0.01263005
O        2.31277567       2.00948978       0.74322690       36      -0.05910048      -0.06613383       0.01263005
O        5.25903198       1.09474026      16.62110890       37      -0.05910048       0.06613383      -0.01263005
O        3.57973697       5.11371982       7.93894100       38       0.05910048      -0.06613383      -0.01263005
O        0.63348065       4.19897030       9.42539480       39       0.05910048       0.06613383       0.01263005
40