40
Lattice="5.481755320806786 2.2274685898862904e-42 0.0 -2.2766244061870473e-42 5.602726794334514 0.0 0.0 0.0 15.618133920637534" Properties=species:S:1:pos:R:3:spacegroup_kinds:I:1:forces:R:3 spacegroup="P 1" unit_cell=conventional occupancy="_JSON {\"0\": {\"In\": 1}, \"1\": {\"In\": 1}, \"2\": {\"In\": 1}, \"3\": {\"In\": 1}, \"4\": {\"In\": 1}, \"5\": {\"In\": 1}, \"6\": {\"In\": 1}, \"7\": {\"In\": 1}, \"8\": {\"In\": 1}, \"9\": {\"In\": 1}, \"10\": {\"In\": 1}, \"11\": {\"In\": 1}, \"12\": {\"In\": 1}, \"13\": {\"In\": 1}, \"14\": {\"In\": 1}, \"15\": {\"In\": 1}, \"16\": {\"O\": 1}, \"17\": {\"O\": 1}, \"18\": {\"O\": 1}, \"19\": {\"O\": 1}, \"20\": {\"O\": 1}, \"21\": {\"O\": 1}, \"22\": {\"O\": 1}, \"23\": {\"O\": 1}, \"24\": {\"O\": 1}, \"25\": {\"O\": 1}, \"26\": {\"O\": 1}, \"27\": {\"O\": 1}, \"28\": {\"O\": 1}, \"29\": {\"O\": 1}, \"30\": {\"O\": 1}, \"31\": {\"O\": 1}, \"32\": {\"O\": 1}, \"33\": {\"O\": 1}, \"34\": {\"O\": 1}, \"35\": {\"O\": 1}, \"36\": {\"O\": 1}, \"37\": {\"O\": 1}, \"38\": {\"O\": 1}, \"39\": {\"O\": 1}}" n_minim_iter=1 energy=-45150.46492926053 stress="0.013555375161365834 4.0388472311093894e-13 1.025733764298992e-12 4.0388472311093894e-13 0.013250335203490074 -9.002770577168715e-14 1.025733764298992e-12 -9.002770577168715e-14 0.011390993329850916" free_energy=-45150.46492926053 pbc="T T T"
In       2.74428284       4.46137325       8.92408716        0       0.00143962       0.04440098       0.09680854
In       0.00340518       3.94271694       6.69404676        1       0.00143962      -0.04440098      -0.09680854
In       2.73747248       1.66000985      14.50311372        2      -0.00143962       0.04440098      -0.09680854
In       5.47835014       1.14135355       1.11502020        3      -0.00143962      -0.04440098       0.09680854
In       2.73747248       1.14135355       6.69404676        4      -0.00143962      -0.04440098      -0.09680854
In       5.47835014       1.66000985       8.92408716        5      -0.00143962       0.04440098       0.09680854
In       2.74428284       3.94271694       1.11502020        6       0.00143962      -0.04440098       0.09680854
In       0.00340518       4.46137325      14.50311372        7       0.00143962       0.04440098      -0.09680854
In       2.73548208       4.13253002      12.76723692        8       0.00201089      -0.01129678       0.06061631
In       5.47635974       4.27156017       2.85089700        9       0.00201089       0.01129678      -0.06061631
In       2.74627324       1.33116663      10.65996396       10      -0.00201089      -0.01129678      -0.06061631
In       0.00539558       1.47019677       4.95816996       11      -0.00201089       0.01129678       0.06061631
In       2.74627324       1.47019677       2.85089700       12      -0.00201089       0.01129678      -0.06061631
In       0.00539558       1.33116663      12.76723692       13      -0.00201089      -0.01129678       0.06061631
In       2.73548208       4.27156017       4.95816996       14       0.00201089       0.01129678       0.06061631
In       5.47635974       4.13253002      10.65996396       15       0.00201089      -0.01129678      -0.06061631
O        4.70013103       4.88825626      12.48178537       16       0.02872490      -0.05979926       0.12478614
O        1.95925337       3.51583393       3.13634855       17       0.02872490       0.05979926      -0.12478614
O        0.78162429       2.08689287      10.94541551       18      -0.02872490      -0.05979926      -0.12478614
O        3.52250195       0.71447053       4.67271841       19      -0.02872490       0.05979926       0.12478614
O        0.78162429       0.71447053       3.13634855       20      -0.02872490       0.05979926      -0.12478614
O        3.52250195       2.08689287      12.48178537       21      -0.02872490      -0.05979926       0.12478614
O        4.70013103       3.51583393       4.67271841       22       0.02872490       0.05979926       0.12478614
O        1.95925337       4.88825626      10.94541551       23       0.02872490      -0.05979926      -0.12478614
O        3.86914715       2.93068680       9.79579090       24      -0.01142270       0.02186796       0.02531638
O        1.12826949       5.47340339       5.82234302       25      -0.01142270      -0.02186796      -0.02531638
O        1.61260817       0.12932340      13.63140998       26       0.01142270       0.02186796      -0.02531638
O        4.35348583       2.67203999       1.98672394       27       0.01142270      -0.02186796       0.02531638
O        1.61260817       2.67203999       5.82234302       28       0.01142270      -0.02186796      -0.02531638
O        4.35348583       0.12932340       9.79579090       29       0.01142270       0.02186796       0.02531638
O        3.86914715       5.47340339       1.98672394       30      -0.01142270      -0.02186796       0.02531638
O        1.12826949       2.93068680      13.63140998       31      -0.01142270       0.02186796      -0.02531638
O        3.54160459       3.68112421      14.79885233       32      -0.02870678      -0.00455316      -0.02216690
O        0.80072693       4.72296598       0.81928159       33      -0.02870678       0.00455316       0.02216690
O        1.94015073       0.87976082       8.62834855       34       0.02870678      -0.00455316       0.02216690
O        4.68102839       1.92160258       6.98978537       35       0.02870678       0.00455316      -0.02216690
O        1.94015073       1.92160258       0.81928159       36       0.02870678       0.00455316       0.02216690
O        4.68102839       0.87976082      14.79885233       37       0.02870678      -0.00455316      -0.02216690
O        3.54160459       4.72296598       6.98978537       38      -0.02870678       0.00455316      -0.02216690
O        0.80072693       3.68112421       8.62834855       39      -0.02870678      -0.00455316       0.02216690
40
Lattice="5.47856757942681 2.2261426382859853e-42 0.0 -2.275822469750116e-42 5.6006758692819725 0.0 0.0 0.0 15.632944006906536" Properties=species:S:1:pos:R:3:spacegroup_kinds:I:1:forces:R:3 spacegroup="P 1" unit_cell=conventional occupancy="_JSON {\"0\": {\"In\": 1}, \"1\": {\"In\": 1}, \"2\": {\"In\": 1}, \"3\": {\"In\": 1}, \"4\": {\"In\": 1}, \"5\": {\"In\": 1}, \"6\": {\"In\": 1}, \"7\": {\"In\": 1}, \"8\": {\"In\": 1}, \"9\": {\"In\": 1}, \"10\": {\"In\": 1}, \"11\": {\"In\": 1}, \"12\": {\"In\": 1}, \"13\": {\"In\": 1}, \"14\": {\"In\": 1}, \"15\": {\"In\": 1}, \"16\": {\"O\": 1}, \"17\": {\"O\": 1}, \"18\": {\"O\": 1}, \"19\": {\"O\": 1}, \"20\": {\"O\": 1}, \"21\": {\"O\": 1}, \"22\": {\"O\": 1}, \"23\": {\"O\": 1}, \"24\": {\"O\": 1}, \"25\": {\"O\": 1}, \"26\": {\"O\": 1}, \"27\": {\"O\": 1}, \"28\": {\"O\": 1}, \"29\": {\"O\": 1}, \"30\": {\"O\": 1}, \"31\": {\"O\": 1}, \"32\": {\"O\": 1}, \"33\": {\"O\": 1}, \"34\": {\"O\": 1}, \"35\": {\"O\": 1}, \"36\": {\"O\": 1}, \"37\": {\"O\": 1}, \"38\": {\"O\": 1}, \"39\": {\"O\": 1}}" n_minim_iter=2 energy=-45150.46562225697 stress="0.012661914261542815 -3.3033854173102292e-12 9.097641102349116e-13 -3.3033854173102292e-12 0.012614833802687101 -1.0173418078859415e-12 9.097641102349116e-13 -1.0173418078859415e-12 0.013562333201633357" free_energy=-45150.46562225697 pbc="T T T"
In       2.74268911       4.45980551       8.93269229        0       0.01244669       0.04595637       0.09329499
In       0.00340532       3.94120829       6.70025172        1       0.01244669      -0.04595637      -0.09329499
In       2.73587847       1.65946758      14.51672372        2      -0.01244669       0.04595637      -0.09329499
In       5.47516226       1.14087036       1.11622028        3      -0.01244669      -0.04595637       0.09329499
In       2.73587847       1.14087036       6.70025172        4      -0.01244669      -0.04595637      -0.09329499
In       5.47516226       1.65946758       8.93269229        5      -0.01244669       0.04595637       0.09329499
In       2.74268911       3.94120829       1.11622028        6       0.01244669      -0.04595637       0.09329499
In       0.00340532       4.45980551      14.51672372        7       0.01244669       0.04595637      -0.09329499
In       2.73389430       4.13100064      12.77943299        8      -0.00912426      -0.00431974       0.06101728
In       5.47317809       4.27001316       2.85351101        9      -0.00912426       0.00431974      -0.06101728
In       2.74467328       1.33066271      10.66998302       10       0.00912426      -0.00431974      -0.06101728
In       0.00538949       1.46967523       4.96296099       11       0.00912426       0.00431974       0.06101728
In       2.74467328       1.46967523       2.85351101       12       0.00912426       0.00431974      -0.06101728
In       0.00538949       1.33066271      12.77943299       13       0.00912426      -0.00431974       0.06101728
In       2.73389430       4.27001316       4.96296099       14      -0.00912426       0.00431974       0.06101728
In       5.47317809       4.13100064      10.66998302       15      -0.00912426      -0.00431974      -0.06101728
O        4.69744011       4.88637881      12.49380539       16       0.04152782      -0.06269160       0.11343411
O        1.95815632       3.51463499       3.13913861       17       0.04152782       0.06269160      -0.11343411
O        0.78112747       2.08604088      10.95561062       18      -0.04152782      -0.06269160      -0.11343411
O        3.52041126       0.71429706       4.67733339       19      -0.04152782       0.06269160       0.11343411
O        0.78112747       0.71429706       3.13913861       20      -0.04152782       0.06269160      -0.11343411
O        3.52041126       2.08604088      12.49380539       21      -0.04152782      -0.06269160       0.11343411
O        4.69744011       3.51463499       4.67733339       22       0.04152782       0.06269160       0.11343411
O        1.95815632       4.88637881      10.95561062       23       0.04152782      -0.06269160      -0.11343411
O        3.86688035       2.92964620       9.80511721       24      -0.00687366       0.01847447       0.02766307
O        1.12759656       5.47136760       5.82782680       25      -0.00687366      -0.01847447      -0.02766307
O        1.61168723       0.12930827      13.64429880       26       0.00687366       0.01847447      -0.02766307
O        4.35097102       2.67102967       1.98864520       27       0.00687366      -0.01847447       0.02766307
O        1.61168723       2.67102967       5.82782680       28       0.00687366      -0.01847447      -0.02766307
O        4.35097102       0.12930827       9.80511721       29       0.00687366       0.01847447       0.02766307
O        3.86688035       5.47136760       1.98864520       30      -0.00687366      -0.01847447       0.02766307
O        1.12759656       2.92964620      13.64429880       31      -0.00687366       0.01847447      -0.02766307
O        3.53950282       3.67977000      14.81285284       32      -0.03978059      -0.00599684      -0.00969278
O        0.80021903       4.72124380       0.82009117       33      -0.03978059       0.00599684       0.00969278
O        1.93906476       0.87943207       8.63656317       34       0.03978059      -0.00599684       0.00969278
O        4.67834855       1.92090587       6.99638084       35       0.03978059       0.00599684      -0.00969278
O        1.93906476       1.92090587       0.82009117       36       0.03978059       0.00599684       0.00969278
O        4.67834855       0.87943207      14.81285284       37       0.03978059      -0.00599684      -0.00969278
O        3.53950282       4.72124380       6.99638084       38      -0.03978059       0.00599684      -0.00969278
O        0.80021903       3.67977000       8.63656317       39      -0.03978059      -0.00599684       0.00969278
40
Lattice="5.471161278412417 4.015819874379027e-42 0.0 -2.4106399772096066e-42 5.609753883370496 0.0 0.0 0.0 15.628773953757" Properties=species:S:1:pos:R:3:spacegroup_kinds:I:1:forces:R:3 spacegroup="P 1" unit_cell=conventional occupancy="_JSON {\"0\": {\"In\": 1}, \"1\": {\"In\": 1}, \"2\": {\"In\": 1}, \"3\": {\"In\": 1}, \"4\": {\"In\": 1}, \"5\": {\"In\": 1}, \"6\": {\"In\": 1}, \"7\": {\"In\": 1}, \"8\": {\"In\": 1}, \"9\": {\"In\": 1}, \"10\": {\"In\": 1}, \"11\": {\"In\": 1}, \"12\": {\"In\": 1}, \"13\": {\"In\": 1}, \"14\": {\"In\": 1}, \"15\": {\"In\": 1}, \"16\": {\"O\": 1}, \"17\": {\"O\": 1}, \"18\": {\"O\": 1}, \"19\": {\"O\": 1}, \"20\": {\"O\": 1}, \"21\": {\"O\": 1}, \"22\": {\"O\": 1}, \"23\": {\"O\": 1}, \"24\": {\"O\": 1}, \"25\": {\"O\": 1}, \"26\": {\"O\": 1}, \"27\": {\"O\": 1}, \"28\": {\"O\": 1}, \"29\": {\"O\": 1}, \"30\": {\"O\": 1}, \"31\": {\"O\": 1}, \"32\": {\"O\": 1}, \"33\": {\"O\": 1}, \"34\": {\"O\": 1}, \"35\": {\"O\": 1}, \"36\": {\"O\": 1}, \"37\": {\"O\": 1}, \"38\": {\"O\": 1}, \"39\": {\"O\": 1}}" n_minim_iter=3 energy=-45150.472769319465 stress="0.013285223672325312 4.306619330743491e-13 5.630025741256626e-14 4.306619330743491e-13 0.015270772734957253 3.798754254215078e-12 5.630025741256626e-14 3.798754254215078e-12 0.014039373387187715" free_energy=-45150.472769319465 pbc="T T T"
In       2.73942247       4.46925949       8.93492916        0       0.01128388       0.02824988      -0.02329482
In       0.00384183       3.94537133       6.69384480        1       0.01128388      -0.02824988       0.02329482
In       2.73173881       1.66438255      14.50823177        2      -0.01128388       0.02824988       0.02329482
In       5.46731945       1.14049439       1.12054218        3      -0.01128388      -0.02824988      -0.02329482
In       2.73173881       1.14049439       6.69384480        4      -0.01128388      -0.02824988       0.02329482
In       5.46731945       1.66438255       8.93492916        5      -0.01128388       0.02824988      -0.02329482
In       2.73942247       3.94537133       1.12054218        6       0.01128388      -0.02824988      -0.02329482
In       0.00384183       4.46925949      14.50823177        7       0.01128388       0.02824988       0.02329482
In       2.72992128       4.13737964      12.77900469        8      -0.00596208       0.00836590       0.00523588
In       5.46550192       4.27725119       2.84976926        9      -0.00596208      -0.00836590      -0.00523588
In       2.74124000       1.33250269      10.66415624       10       0.00596208       0.00836590      -0.00523588
In       0.00565936       1.47237425       4.96461771       11       0.00596208      -0.00836590       0.00523588
In       2.74124000       1.47237425       2.84976926       12       0.00596208      -0.00836590      -0.00523588
In       0.00565936       1.33250269      12.77900469       13       0.00596208       0.00836590       0.00523588
In       2.72992128       4.27725119       4.96461771       14      -0.00596208      -0.00836590       0.00523588
In       5.46550192       4.13737964      10.66415624       15      -0.00596208       0.00836590      -0.00523588
O        4.69292207       4.89127520      12.49619654       16       0.03187576      -0.04088755      -0.01357976
O        1.95734143       3.52335562       3.13257741       17       0.03187576       0.04088755       0.01357976
O        0.77823921       2.08639826      10.94696439       18      -0.03187576      -0.04088755       0.01357976
O        3.51381985       0.71847868       4.68180956       19      -0.03187576       0.04088755      -0.01357976
O        0.77823921       0.71847868       3.13257741       20      -0.03187576       0.04088755       0.01357976
O        3.51381985       2.08639826      12.49619654       21      -0.03187576      -0.04088755      -0.01357976
O        4.69292207       3.52335562       4.68180956       22       0.03187576       0.04088755      -0.01357976
O        1.95734143       4.89127520      10.94696439       23       0.03187576      -0.04088755       0.01357976
O        3.86124907       2.93535008       9.80382029       24      -0.01089109       0.01345086       0.04070204
O        1.12566843       5.47928074       5.82495366       25      -0.01089109      -0.01345086      -0.04070204
O        1.60991221       0.13047314      13.63934064       26       0.01089109       0.01345086      -0.04070204
O        4.34549285       2.67440380       1.98943332       27       0.01089109      -0.01345086       0.04070204
O        1.60991221       2.67440380       5.82495366       28       0.01089109      -0.01345086      -0.04070204
O        4.34549285       0.13047314       9.80382029       29       0.01089109       0.01345086       0.04070204
O        3.86124907       5.47928074       1.98943332       30      -0.01089109      -0.01345086       0.04070204
O        1.12566843       2.93535008      13.63934064       31      -0.01089109       0.01345086      -0.04070204
O        3.53294475       3.68546286      14.80823862       32      -0.02153342      -0.00981101       0.04113529
O        0.79736411       4.72916797       0.82053533       33      -0.02153342       0.00981101      -0.04113529
O        1.93821653       0.88058592       8.63492231       34       0.02153341      -0.00981101      -0.04113529
O        4.67379717       1.92429103       6.99385164       35       0.02153341       0.00981101       0.04113529
O        1.93821653       1.92429103       0.82053533       36       0.02153342       0.00981101      -0.04113529
O        4.67379717       0.88058592      14.80823862       37       0.02153341      -0.00981101       0.04113529
O        3.53294475       4.72916797       6.99385164       38      -0.02153341       0.00981101       0.04113529
O        0.79736411       3.68546286       8.63492231       39      -0.02153341      -0.00981101      -0.04113529
40
Lattice="5.475186348501665 4.016748774893767e-42 0.0 -2.4019717370368164e-42 5.605175554902828 0.0 0.0 0.0 15.630040754831256" Properties=species:S:1:pos:R:3:spacegroup_kinds:I:1:forces:R:3 spacegroup="P 1" unit_cell=conventional occupancy="_JSON {\"0\": {\"In\": 1}, \"1\": {\"In\": 1}, \"2\": {\"In\": 1}, \"3\": {\"In\": 1}, \"4\": {\"In\": 1}, \"5\": {\"In\": 1}, \"6\": {\"In\": 1}, \"7\": {\"In\": 1}, \"8\": {\"In\": 1}, \"9\": {\"In\": 1}, \"10\": {\"In\": 1}, \"11\": {\"In\": 1}, \"12\": {\"In\": 1}, \"13\": {\"In\": 1}, \"14\": {\"In\": 1}, \"15\": {\"In\": 1}, \"16\": {\"O\": 1}, \"17\": {\"O\": 1}, \"18\": {\"O\": 1}, \"19\": {\"O\": 1}, \"20\": {\"O\": 1}, \"21\": {\"O\": 1}, \"22\": {\"O\": 1}, \"23\": {\"O\": 1}, \"24\": {\"O\": 1}, \"25\": {\"O\": 1}, \"26\": {\"O\": 1}, \"27\": {\"O\": 1}, \"28\": {\"O\": 1}, \"29\": {\"O\": 1}, \"30\": {\"O\": 1}, \"31\": {\"O\": 1}, \"32\": {\"O\": 1}, \"33\": {\"O\": 1}, \"34\": {\"O\": 1}, \"35\": {\"O\": 1}, \"36\": {\"O\": 1}, \"37\": {\"O\": 1}, \"38\": {\"O\": 1}, \"39\": {\"O\": 1}}" n_minim_iter=4 energy=-45150.473251952884 stress="0.014374884026174916 1.976452132636198e-12 5.926249147245119e-13 1.976452132636198e-12 0.014082427185142144 1.6135545483573396e-12 5.926249147245119e-13 1.6135545483573396e-12 0.014141996052843542" free_energy=-45150.473251952884 pbc="T T T"
In       2.74148817       4.46581126       8.93591687        0       0.00632213       0.01525747      -0.03711546
In       0.00389500       3.94195207       6.69412389        1       0.00632213      -0.01525747       0.03711546
In       2.73369818       1.66322348      14.50914427        2      -0.00632213       0.01525747       0.03711546
In       5.47129135       1.13936430       1.12089649        3      -0.00632213      -0.01525747      -0.03711546
In       2.73369818       1.13936430       6.69412389        4      -0.00632213      -0.01525747       0.03711546
In       5.47129135       1.66322348       8.93591687        5      -0.00632213       0.01525747      -0.03711546
In       2.74148817       3.94195207       1.12089649        6       0.00632213      -0.01525747      -0.03711546
In       0.00389500       4.46581126      14.50914427        7       0.00632213       0.01525747       0.03711546
In       2.73189990       4.13399762      12.78024777        8       0.00086487       0.01887986      -0.00513570
In       5.46949307       4.27376571       2.84979298        9       0.00086487      -0.01887986       0.00513570
In       2.74328645       1.33140984      10.66481336       10      -0.00086487       0.01887986       0.00513570
In       0.00569328       1.47117794       4.96522739       11      -0.00086487      -0.01887986      -0.00513570
In       2.74328645       1.47117794       2.84979298       12      -0.00086487      -0.01887986       0.00513570
In       0.00569328       1.33140984      12.78024777       13      -0.00086487       0.01887986      -0.00513570
In       2.73189990       4.27376571       4.96522739       14       0.00086487      -0.01887986      -0.00513570
In       5.46949307       4.13399762      10.66481336       15       0.00086487       0.01887986       0.00513570
O        4.69655491       4.88700781      12.49756360       16       0.02828371      -0.04661399      -0.02553049
O        1.95896174       3.52075553       3.13247715       17       0.02828371       0.04661399       0.02553049
O        0.77863144       2.08442003      10.94749753       18      -0.02828371      -0.04661399       0.02553049
O        3.51622461       0.71816775       4.68254323       19      -0.02828371       0.04661399      -0.02553049
O        0.77863144       0.71816775       3.13247715       20      -0.02828371       0.04661399       0.02553049
O        3.51622461       2.08442003      12.49756360       21      -0.02828371      -0.04661399      -0.02553049
O        4.69655491       3.52075553       4.68254323       22       0.02828371       0.04661399      -0.02553049
O        1.95896174       4.88700781      10.94749753       23       0.02828371      -0.04661399       0.02553049
O        3.86404327       2.93304224       9.80477711       24      -0.00720753       0.01409886       0.03987103
O        1.12645010       5.47472109       5.82526365       25      -0.00720753      -0.01409886      -0.03987103
O        1.61114307       0.13045447      13.64028402       26       0.00720753       0.01409886      -0.03987103
O        4.34873625       2.67213331       1.98975673       27       0.00720753      -0.01409886       0.03987103
O        1.61114307       2.67213331       5.82526365       28       0.00720753      -0.01409886      -0.03987103
O        4.34873625       0.13045447       9.80477711       29       0.00720753       0.01409886       0.03987103
O        3.86404327       5.47472109       1.98975673       30      -0.00720753      -0.01409886       0.03987103
O        1.12645010       2.93304224      13.64028402       31      -0.00720753       0.01409886      -0.03987103
O        3.53538646       3.68241897      14.80947091       32      -0.01700888      -0.00001206       0.04472068
O        0.79779328       4.72534437       0.82056985       33      -0.01700888       0.00001206      -0.04472068
O        1.93979989       0.87983119       8.63559022       34       0.01700888      -0.00001206      -0.04472068
O        4.67739306       1.92275659       6.99445053       35       0.01700888       0.00001206       0.04472068
O        1.93979989       1.92275659       0.82056985       36       0.01700888       0.00001206      -0.04472068
O        4.67739306       0.87983119      14.80947091       37       0.01700888      -0.00001206       0.04472068
O        3.53538646       4.72534437       6.99445053       38      -0.01700888       0.00001206       0.04472068
O        0.79779328       3.68241897       8.63559022       39      -0.01700888      -0.00001206      -0.04472068
40
Lattice="5.4724138985167325 2.4784426359448233e-42 0.0 -1.6159511716232314e-42 5.603429729025086 0.0 0.0 0.0 15.642831512865474" Properties=species:S:1:pos:R:3:spacegroup_kinds:I:1:forces:R:3 spacegroup="P 1" unit_cell=conventional occupancy="_JSON {\"0\": {\"In\": 1}, \"1\": {\"In\": 1}, \"2\": {\"In\": 1}, \"3\": {\"In\": 1}, \"4\": {\"In\": 1}, \"5\": {\"In\": 1}, \"6\": {\"In\": 1}, \"7\": {\"In\": 1}, \"8\": {\"In\": 1}, \"9\": {\"In\": 1}, \"10\": {\"In\": 1}, \"11\": {\"In\": 1}, \"12\": {\"In\": 1}, \"13\": {\"In\": 1}, \"14\": {\"In\": 1}, \"15\": {\"In\": 1}, \"16\": {\"O\": 1}, \"17\": {\"O\": 1}, \"18\": {\"O\": 1}, \"19\": {\"O\": 1}, \"20\": {\"O\": 1}, \"21\": {\"O\": 1}, \"22\": {\"O\": 1}, \"23\": {\"O\": 1}, \"24\": {\"O\": 1}, \"25\": {\"O\": 1}, \"26\": {\"O\": 1}, \"27\": {\"O\": 1}, \"28\": {\"O\": 1}, \"29\": {\"O\": 1}, \"30\": {\"O\": 1}, \"31\": {\"O\": 1}, \"32\": {\"O\": 1}, \"33\": {\"O\": 1}, \"34\": {\"O\": 1}, \"35\": {\"O\": 1}, \"36\": {\"O\": 1}, \"37\": {\"O\": 1}, \"38\": {\"O\": 1}, \"39\": {\"O\": 1}}" n_minim_iter=5 energy=-45150.475992102474 stress="0.014518827228686807 7.986131828142741e-13 1.2746233851805448e-12 7.986131828142741e-13 0.014483053214902177 2.3575031345587204e-12 1.2746233851805448e-12 2.3575031345587204e-12 0.014874900710225172" free_energy=-45150.475992102474 pbc="T T T"
In       2.74077339       4.46642907       8.94233666        0      -0.01504572      -0.03025706       0.02599623
In       0.00456644       3.93871552       6.70049485        1      -0.01504572       0.03025706      -0.02599623
In       2.73164051       1.66471421      14.52191061        2       0.01504572      -0.03025706      -0.02599623
In       5.46784746       1.13700066       1.12092090        3       0.01504572       0.03025706       0.02599623
In       2.73164051       1.13700066       6.70049485        4       0.01504572       0.03025706      -0.02599623
In       5.46784746       1.66471421       8.94233666        5       0.01504572      -0.03025706       0.02599623
In       2.74077339       3.93871552       1.12092090        6      -0.01504572       0.03025706       0.02599623
In       0.00456644       4.46642907      14.52191061        7      -0.01504572      -0.03025706      -0.02599623
In       2.73039523       4.13385745      12.79149731        8       0.03883633      -0.00135629      -0.01223635
In       5.46660218       4.27128715       2.85133420        9       0.03883633       0.00135629       0.01223635
In       2.74201866       1.33214258      10.67274996       10      -0.03883633      -0.00135629       0.01223635
In       0.00581172       1.46957228       4.97008155       11      -0.03883633       0.00135629      -0.01223635
In       2.74201866       1.46957228       2.85133420       12      -0.03883633       0.00135629       0.01223635
In       0.00581172       1.33214258      12.79149731       13      -0.03883633      -0.00135629      -0.01223635
In       2.73039523       4.27128715       4.97008155       14       0.03883633       0.00135629      -0.01223635
In       5.46660218       4.13385745      10.67274996       15       0.03883633      -0.00135629       0.01223635
O        4.69689830       4.88113167      12.50808864       16       0.01348782      -0.02261554      -0.00508551
O        1.96069136       3.52401293       3.13474287       17       0.01348782       0.02261554       0.00508551
O        0.77551559       2.07941680      10.95615863       18      -0.01348782      -0.02261554       0.00508551
O        3.51172254       0.72229806       4.68667288       19      -0.01348782       0.02261554      -0.00508551
O        0.77551559       0.72229806       3.13474287       20      -0.01348782       0.02261554       0.00508551
O        3.51172254       2.07941680      12.50808864       21      -0.01348782      -0.02261554      -0.00508551
O        4.69689830       3.52401293       4.68667288       22       0.01348782       0.02261554      -0.00508551
O        1.96069136       4.88113167      10.95615863       23       0.01348782      -0.02261554       0.00508551
O        3.86140134       2.93346360       9.81613810       24      -0.00996137       0.03172182       0.00277043
O        1.12519439       5.47168100       5.82669342       25      -0.00996137      -0.03172182      -0.00277043
O        1.61101256       0.13174873      13.64810917       26       0.00996137       0.03172182      -0.00277043
O        4.34721951       2.66996613       1.99472234       27       0.00996137      -0.03172182       0.00277043
O        1.61101256       2.66996613       5.82669342       28       0.00996137      -0.03172182      -0.00277043
O        4.34721951       0.13174873       9.81613810       29       0.00996137       0.03172182       0.00277043
O        3.86140134       5.47168100       1.99472234       30      -0.00996137      -0.03172182       0.00277043
O        1.12519439       2.93346360      13.64810917       31      -0.00996137       0.03172182      -0.00277043
O        3.53169323       3.68107673      14.82454598       32       0.02594841       0.00645864      -0.00451215
O        0.79548628       4.72406786       0.81828553       33       0.02594841      -0.00645864       0.00451215
O        1.94072066       0.87936187       8.63970129       34      -0.02594841       0.00645864       0.00451215
O        4.67692761       1.92235300       7.00313022       35      -0.02594841      -0.00645864      -0.00451215
O        1.94072066       1.92235300       0.81828553       36      -0.02594841      -0.00645864       0.00451215
O        4.67692761       0.87936187      14.82454598       37      -0.02594841       0.00645864      -0.00451215
O        3.53169323       4.72406786       7.00313022       38       0.02594841      -0.00645864      -0.00451215
O        0.79548628       3.68107673       8.63970129       39       0.02594841       0.00645864       0.00451215
40