1
Lattice="3.371407522305914 -0.056947527710937584 -2.1543429566270387e-10 0.17652342112211414 3.3672646442132574 -6.770068536153537e-10 -1.773965471556571 -1.6551585577886214 2.3416080706807993" Properties=species:S:1:pos:R:3:spacegroup_kinds:I:1:forces:R:3 spacegroup="P 1" unit_cell=conventional occupancy="_JSON {\"0\": {\"In\": 1}}" n_minim_iter=1 energy=-1970.686054398761 stress="-0.007046495016045757 0.0006713963767686794 -1.8099788237231852e-13 0.0006713963767686794 -0.007139652796728347 -1.688876969068533e-13 -1.8099788237231852e-13 -1.688876969068533e-13 -0.007766084075525327" pbc="T T T"
In       0.00000000       0.00000000       0.00000000        0       0.00000000       0.00000000       0.00000000
