1
Lattice="3.43062895015736 -1.6865208127632101e-10 -2.306651133119863e-10 0.23743309816913125 3.422402740407913 -6.919944817354176e-10 -1.8340310240058855 -1.7112013696573352 2.340370711901124" Properties=species:S:1:pos:R:3:spacegroup_kinds:I:1:forces:R:3 spacegroup="P 1" unit_cell=conventional occupancy="_JSON {\"0\": {\"In\": 1}}" n_minim_iter=1 energy=-1970.6870300630071 stress="0.0014862491304676341 0.002980948210472216 -8.036457783966444e-13 0.002980948210472216 0.0010726357580603035 -7.49824247830988e-13 -8.036457783966444e-13 -7.49824247830988e-13 -0.001708670880055582" pbc="T T T"
In       0.00000000       0.00000000       0.00000000        0       0.00000000       0.00000000       0.00000000
