10
Lattice="5.478785710623588 -0.08966624140223914 -0.06191327970072728 2.931367983163634 4.62949399449481 -0.061913279700730905 2.9313679831636343 1.5823617747109857 4.351112399513522" Properties=species:S:1:pos:R:3:spacegroup_kinds:I:1:forces:R:3 spacegroup="P 1" unit_cell=conventional occupancy="_JSON {\"0\": {\"In\": 1}, \"1\": {\"In\": 1}, \"2\": {\"In\": 1}, \"3\": {\"In\": 1}, \"4\": {\"O\": 1}, \"5\": {\"O\": 1}, \"6\": {\"O\": 1}, \"7\": {\"O\": 1}, \"8\": {\"O\": 1}, \"9\": {\"O\": 1}}" n_minim_iter=5 energy=-11285.848767434607 stress="-0.2037428399779844 4.881505444933157e-05 3.3706108405535795e-05 4.881505444933157e-05 -0.20380692066360367 1.819466346785054e-05 3.3706108405535795e-05 1.819466346785054e-05 -0.20382070802434885" free_energy=-11285.848767434607 pbc="T T T"
In       9.79211283       5.28581370       3.64978008        0      -0.00343004      -0.00185155      -0.00127847
In       7.22016970       3.89747060       2.69114868        1       0.00343004       0.00185155       0.00127847
In       4.12135199       2.22471893       1.53613716        2      -0.00343004      -0.00185155      -0.00127847
In       1.54940886       0.83637584       0.57750576        3       0.00343004       0.00185155       0.00127847
O        5.57477328       2.13782716       0.08143880        4      -0.00000000       0.00069434      -0.00100559
O        6.49528764       4.81040275       0.99490818        5      -0.00058047       0.00107535      -0.00000000
O        7.58562690       1.91906656       2.25699500        6       0.00058047      -0.00038100      -0.00100559
O        3.75589478       4.20312298       1.97029084        7      -0.00058047       0.00038100       0.00100559
O        5.76674841       3.98436238       4.14584704        8      -0.00000000      -0.00069434       0.00100559
O        4.84623405       1.31178679       3.23237766        9       0.00058047      -0.00107535      -0.00000000
