10
Lattice="5.056905764639455 -0.3035043972914819 -0.20956552149445146 2.5211034760560023 4.394137923943376 -0.2095655214944574 2.521103476055999 1.3608996869429641 4.183338122183661" Properties=species:S:1:pos:R:3:spacegroup_kinds:I:1:forces:R:3 spacegroup="P 1" unit_cell=conventional occupancy="_JSON {\"0\": {\"In\": 1}, \"1\": {\"In\": 1}, \"2\": {\"In\": 1}, \"3\": {\"In\": 1}, \"4\": {\"O\": 1}, \"5\": {\"O\": 1}, \"6\": {\"O\": 1}, \"7\": {\"O\": 1}, \"8\": {\"O\": 1}, \"9\": {\"O\": 1}}" n_minim_iter=5 energy=-11281.673879621796 stress="-0.4683473887871717 0.0001256890929455133 8.678655175604446e-05 0.0001256890929455133 -0.46851238386157956 4.684765808503324e-05 8.678655175604446e-05 4.684765808503324e-05 -0.4685478835846813" free_energy=-11281.673879621796 pbc="T T T"
In       8.79843871       4.74942524       3.27941139        0      -0.00153753      -0.00082996      -0.00057308
In       6.35023036       3.42787458       2.36689923        1       0.00153753       0.00082996       0.00057308
In       3.74888235       2.02365864       1.39730785        2      -0.00153753      -0.00082996      -0.00057308
In       1.30067400       0.70210797       0.48479569        3       0.00153753       0.00082996       0.00057308
O        5.05323106       1.85550679      -0.09695156        4      -0.00000000       0.00186176      -0.00269630
O        5.77508151       4.40615877       0.73148625        5      -0.00155644       0.00288334       0.00000000
O        6.85248408       1.53799793       1.99471750        6       0.00155644      -0.00102159      -0.00269630
O        3.24662862       3.91353528       1.76948957        7      -0.00155644       0.00102159       0.00269630
O        5.04588165       3.59602642       3.86115863        8      -0.00000000      -0.00186176       0.00269630
O        4.32403120       1.04537444       3.03272083        9       0.00155644      -0.00288334      -0.00000000
