10
Lattice="6.069357403124247 0.052964951662091544 0.03657155486065203 3.374667960865688 5.044950022237112 0.03657155486065593 3.3746679608656893 1.8216565147350205 4.7047237695552955" Properties=species:S:1:pos:R:3:spacegroup_kinds:I:1:forces:R:3 spacegroup="P 1" unit_cell=conventional occupancy="_JSON {\"0\": {\"In\": 1}, \"1\": {\"In\": 1}, \"2\": {\"In\": 1}, \"3\": {\"In\": 1}, \"4\": {\"O\": 1}, \"5\": {\"O\": 1}, \"6\": {\"O\": 1}, \"7\": {\"O\": 1}, \"8\": {\"O\": 1}, \"9\": {\"O\": 1}}" n_minim_iter=6 energy=-11287.37935640203 stress="0.0562980886195926 9.145824673060524e-06 6.315062914600914e-06 9.145824673060524e-06 0.05628608267919689 3.408891600673602e-06 6.315062914600914e-06 3.408891600673602e-06 0.05628349952492629" free_energy=-11287.37935640203 pbc="T T T"
In      10.94112000       5.90605143       4.07804552        0       0.00024662       0.00013313       0.00009192
In       8.28691999       4.47330581       3.08875480        1      -0.00024662      -0.00013313      -0.00009192
In       4.53177334       2.44626569       1.68911208        2       0.00024662       0.00013313       0.00009192
In       1.87757333       1.01352007       0.69982136        3      -0.00024662      -0.00013313      -0.00009192
O        6.23935204       2.40158980       0.27831719        4       0.00000000       0.00009488      -0.00013741
O        7.38728352       5.27810808       1.23103828        5      -0.00007932       0.00014695       0.00000000
O        8.46608851       2.31316035       2.63067908        6       0.00007932      -0.00005206      -0.00013741
O        4.35260482       4.60641115       2.14718781        7      -0.00007932       0.00005206       0.00013741
O        6.57934130       4.51798170       4.49954969        8       0.00000000      -0.00009488       0.00013741
O        5.43140981       1.64146342       3.54682861        9       0.00007932      -0.00014695      -0.00000000
