10
Lattice="5.20696150918806 -0.2010130795245897 -0.13879670678154876 2.689125593813136 4.4633460494347865 -0.13879670678155587 2.689125593813136 1.4515985613155906 4.222982843868186" Properties=species:S:1:pos:R:3:spacegroup_kinds:I:1:forces:R:3 spacegroup="P 1" unit_cell=conventional occupancy="_JSON {\"0\": {\"In\": 1}, \"1\": {\"In\": 1}, \"2\": {\"In\": 1}, \"3\": {\"In\": 1}, \"4\": {\"O\": 1}, \"5\": {\"O\": 1}, \"6\": {\"O\": 1}, \"7\": {\"O\": 1}, \"8\": {\"O\": 1}, \"9\": {\"O\": 1}}" n_minim_iter=1 energy=-11283.061175242352 stress="-0.3866489080558184 0.005410524988321141 0.0037358914764374774 0.005410524988321141 -0.39375143330466866 0.0020166461172061484 0.0037358914764374774 0.0020166461172061484 -0.39527958611975333" free_energy=-11283.061175242352 pbc="T T T"
In       9.20592154       4.96938577       3.43129104        0       0.05811584       0.03137111       0.02166131
In       6.67189750       3.60151152       2.48679310        1      -0.05811584      -0.03137111      -0.02166131
In       3.91331519       2.11242001       1.45859633        2       0.05811584       0.03137111       0.02166131
In       1.37929115       0.74454576       0.51409838        3      -0.05811584      -0.03137111      -0.02166131
O        5.24978392       1.97880782      -0.02562119        4      -0.00000000      -0.03703291       0.05363312
O        6.05024836       4.56760629       0.84755065        5       0.03095970      -0.05735368      -0.00000000
O        7.13844508       1.69665018       2.08587023        6      -0.03095970       0.02032077       0.05363312
O        3.44676761       4.01728135       1.85951919        7       0.03095970      -0.02032077      -0.05363312
O        5.33542876       3.73512371       3.97101062        8       0.00000000       0.03703291      -0.05363312
O        4.53496432       1.14632524       3.09783878        9      -0.03095970       0.05735368      -0.00000000
10
Lattice="5.190115281137164 -0.2195990210809889 -0.15163003825711063 2.6643437606590146 4.459461030953256 -0.15163003825711777 2.6643437606590146 1.4382212488404698 4.223896778387971" Properties=species:S:1:pos:R:3:spacegroup_kinds:I:1:forces:R:3 spacegroup="P 1" unit_cell=conventional occupancy="_JSON {\"0\": {\"In\": 1}, \"1\": {\"In\": 1}, \"2\": {\"In\": 1}, \"3\": {\"In\": 1}, \"4\": {\"O\": 1}, \"5\": {\"O\": 1}, \"6\": {\"O\": 1}, \"7\": {\"O\": 1}, \"8\": {\"O\": 1}, \"9\": {\"O\": 1}}" n_minim_iter=2 energy=-11283.066045691714 stress="-0.38929778368527046 -0.0003109044560070359 -0.0002146751575477487 -0.0003109044560070359 -0.38888965198780673 -0.00011588233230993134 -0.0002146751575477487 -0.00011588233230993134 -0.38880183989644995" free_energy=-11283.066045691714 pbc="T T T"
In       9.14853547       4.93840859       3.40990174        0       0.15767526       0.08511361       0.05876975
In       6.62966872       3.57871629       2.47105331        1      -0.15767526      -0.08511361      -0.05876975
In       3.88913407       2.09936696       1.44958339        2       0.15767526       0.08511361       0.05876975
In       1.37026732       0.73967467       0.51073496        3      -0.15767526      -0.08511361      -0.05876975
O        5.22475833       1.96236578      -0.04085173        4       0.00000000      -0.09370842       0.13571372
O        6.01131618       4.55021658       0.82852914        5       0.07834070      -0.14512827       0.00000000
O        7.10254425       1.67071165       2.07109666        6      -0.07834070       0.05141986       0.13571372
O        3.41625854       4.00737161       1.84954004        7       0.07834070      -0.05141986      -0.13571372
O        5.29404445       3.71571748       3.96148843        8      -0.00000000       0.09370842      -0.13571372
O        4.50748661       1.12786668       3.09210756        9      -0.07834070       0.14512827      -0.00000000
10
Lattice="5.177836779835912 -0.23322047227481313 -0.16103545889819443 2.646218677652156 4.456670530491857 -0.16103545889820153 2.6462186776521563 1.4284372712988433 4.224619698664179" Properties=species:S:1:pos:R:3:spacegroup_kinds:I:1:forces:R:3 spacegroup="P 1" unit_cell=conventional occupancy="_JSON {\"0\": {\"In\": 1}, \"1\": {\"In\": 1}, \"2\": {\"In\": 1}, \"3\": {\"In\": 1}, \"4\": {\"O\": 1}, \"5\": {\"O\": 1}, \"6\": {\"O\": 1}, \"7\": {\"O\": 1}, \"8\": {\"O\": 1}, \"9\": {\"O\": 1}}" n_minim_iter=3 energy=-11283.071465347186 stress="-0.38489727531458867 0.0007347684061291876 0.0005073472579752195 0.0007347684061291876 -0.3858618233286138 0.0002738676685077891 0.0005073472579752195 0.0002738676685077891 -0.38606935188091224" free_energy=-11283.071465347186 pbc="T T T"
In       9.11184774       4.91860444       3.39622725        0       0.05594848       0.03020117       0.02085348
In       6.59356345       3.55922655       2.45759592        1      -0.05594848      -0.03020117      -0.02085348
In       3.87671068       2.09266077       1.44495286        2       0.05594848       0.03020117       0.02085348
In       1.35842638       0.73328289       0.50632153        3      -0.05594848      -0.03020117      -0.02085348
O        5.20648692       1.94713647      -0.04736876        4      -0.00000000       0.02270616      -0.03288432
O        5.98554521       4.53256613       0.81460173        5      -0.01898247       0.03516553       0.00000000
O        7.07364730       1.65348584       2.06494108        6       0.01898247      -0.01245937      -0.03288432
O        3.39662682       3.99840149       1.83760769        7      -0.01898247       0.01245937       0.03288432
O        5.26378721       3.70475085       3.94991754        8       0.00000000      -0.02270616       0.03288432
O        4.48472891       1.11932120       3.08794704        9       0.01898247      -0.03516553       0.00000000
10
Lattice="5.152786626696019 -0.2612117579944178 -0.18036304835481617 2.6090722569686533 4.451087907544456 -0.1803630483548234 2.6090722569686537 1.4083855150899662 4.226247109526969" Properties=species:S:1:pos:R:3:spacegroup_kinds:I:1:forces:R:3 spacegroup="P 1" unit_cell=conventional occupancy="_JSON {\"0\": {\"In\": 1}, \"1\": {\"In\": 1}, \"2\": {\"In\": 1}, \"3\": {\"In\": 1}, \"4\": {\"O\": 1}, \"5\": {\"O\": 1}, \"6\": {\"O\": 1}, \"7\": {\"O\": 1}, \"8\": {\"O\": 1}, \"9\": {\"O\": 1}}" n_minim_iter=4 energy=-11283.074250722113 stress="-0.3767304744211754 -0.0003562532160758476 -0.00024598784129240366 -0.0003562532160758476 -0.37626281232444786 -0.0001327850199721301 -0.00024598784129240366 -0.0001327850199721301 -0.3761621918900035" free_energy=-11283.074250722113 pbc="T T T"
In       9.03523748       4.87724998       3.36767257        0       0.01069939       0.00577556       0.00398795
In       6.52115921       3.52014252       2.43060894        1      -0.01069939      -0.00577556      -0.00398795
In       3.84977191       2.07811914       1.43491207        2       0.01069939       0.00577556       0.00398795
In       1.33569364       0.72101169       0.49784844        3      -0.01069939      -0.00577556      -0.00398795
O        5.16912609       1.92135058      -0.06863012        4       0.00000000       0.05635386      -0.08161478
O        5.92826006       4.50487575       0.78601720        5      -0.04711211       0.08727645      -0.00000000
O        7.01906438       1.61517108       2.04449344        6       0.04711211      -0.03092259      -0.08161478
O        3.35186674       3.98309059       1.82102757        7      -0.04711211       0.03092259       0.08161478
O        5.20180504       3.67691109       3.93415113        8      -0.00000000      -0.05635386       0.08161478
O        4.44267107       1.09338592       3.07950381        9       0.04711211      -0.08727645      -0.00000000
10
Lattice="5.1588936263590135 -0.2543624433259088 -0.17563369282258914 2.6181493623068626 4.452435021122109 -0.17563369282259633 2.618149362306862 1.4132853654651847 4.225831194822037" Properties=species:S:1:pos:R:3:spacegroup_kinds:I:1:forces:R:3 spacegroup="P 1" unit_cell=conventional occupancy="_JSON {\"0\": {\"In\": 1}, \"1\": {\"In\": 1}, \"2\": {\"In\": 1}, \"3\": {\"In\": 1}, \"4\": {\"O\": 1}, \"5\": {\"O\": 1}, \"6\": {\"O\": 1}, \"7\": {\"O\": 1}, \"8\": {\"O\": 1}, \"9\": {\"O\": 1}}" n_minim_iter=5 energy=-11283.075024044472 stress="-0.3790564208700157 0.00010874341470266598 7.508580024735211e-05 0.00010874341470266598 -0.3791991709461379 4.053155348632551e-05 7.508580024735211e-05 4.053155348632551e-05 -0.37922988451677675" free_energy=-11283.075024044472 pbc="T T T"
In       9.05470776       4.88776009       3.37492966        0       0.03424648       0.01848636       0.01276457
In       6.53808076       3.52927682       2.43691605        1      -0.03424648      -0.01848636      -0.01276457
In       3.85711158       2.08208112       1.43764776        2       0.03424648       0.01848636       0.01276457
In       1.34048458       0.72359785       0.49963415        3      -0.03424648      -0.01848636      -0.01276457
O        5.17824489       1.92849178      -0.06464557        4       0.00000000       0.02549582      -0.03692446
O        5.94154750       4.51293331       0.79300726        5      -0.02131464       0.03948594      -0.00000000
O        7.03309165       1.62407693       2.04827003        6       0.02131464      -0.01399012      -0.03692446
O        3.36210068       3.98728101       1.82629377        7      -0.02131464       0.01399012       0.03692446
O        5.21694744       3.68286616       3.93920937        8       0.00000000      -0.02549582       0.03692446
O        4.45364484       1.09842463       3.08155655        9       0.02131464      -0.03948594       0.00000000
10
Lattice="5.1559269998087265 -0.25768760838599064 -0.17792967257144918 2.6137416549422103 4.451779497245156 -0.17792967257145637 2.6137416549422103 1.4109060709897054 4.226031675143725" Properties=species:S:1:pos:R:3:spacegroup_kinds:I:1:forces:R:3 spacegroup="P 1" unit_cell=conventional occupancy="_JSON {\"0\": {\"In\": 1}, \"1\": {\"In\": 1}, \"2\": {\"In\": 1}, \"3\": {\"In\": 1}, \"4\": {\"O\": 1}, \"5\": {\"O\": 1}, \"6\": {\"O\": 1}, \"7\": {\"O\": 1}, \"8\": {\"O\": 1}, \"9\": {\"O\": 1}}" n_minim_iter=6 energy=-11283.075631376134 stress="-0.37917032216767665 -0.000704325805730205 -0.00048632707138923393 -0.000704325805730205 -0.37824573687419955 -0.0002625209023846924 -0.00048632707138923393 -0.0002625209023846924 -0.37804680655468986" free_energy=-11283.075631376134 pbc="T T T"
In       9.04701996       4.88361020       3.37206421        0       0.03265424       0.01762686       0.01217110
In       6.52809549       3.52388674       2.43319428        1      -0.03265424      -0.01762686      -0.01217110
In       3.85531481       2.08111122       1.43697805        2       0.03265424       0.01762686       0.01217110
In       1.33639034       0.72138776       0.49810811        3      -0.03265424      -0.01762686      -0.01217110
O        5.17381607       1.92676918      -0.06910722        4      -0.00000000      -0.00665018       0.00963116
O        5.93363575       4.51172247       0.78961341        5       0.00555958      -0.01029928       0.00000000
O        7.02773804       1.61879518       2.04390862        6      -0.00555958       0.00364910       0.00963116
O        3.35567225       3.98620278       1.82626371        7       0.00555958      -0.00364910      -0.00963116
O        5.20959423       3.67822878       3.93927954        8      -0.00000000       0.00665018      -0.00963116
O        4.44977454       1.09327549       3.08055892        9      -0.00555958       0.01029928       0.00000000
10
Lattice="5.156517268263107 -0.2570256921858377 -0.17747262873647152 2.6146189133813964 4.451909756736722 -0.1774726287364786 2.6146189133813955 1.4113796178895432 4.2259915511373425" Properties=species:S:1:pos:R:3:spacegroup_kinds:I:1:forces:R:3 spacegroup="P 1" unit_cell=conventional occupancy="_JSON {\"0\": {\"In\": 1}, \"1\": {\"In\": 1}, \"2\": {\"In\": 1}, \"3\": {\"In\": 1}, \"4\": {\"O\": 1}, \"5\": {\"O\": 1}, \"6\": {\"O\": 1}, \"7\": {\"O\": 1}, \"8\": {\"O\": 1}, \"9\": {\"O\": 1}}" n_minim_iter=7 energy=-11283.07579341487 stress="-0.37922751767241814 -0.00033822753319746754 -0.0002335413576942526 -0.00033822753319746754 -0.37878351831723545 -0.0001260663670893625 -0.0002335413576942526 -0.0001260663670893625 -0.37868798907657836" free_energy=-11283.07579341487 pbc="T T T"
In       9.05025161       4.88535465       3.37326873        0       0.01407145       0.00759581       0.00524480
In       6.52838102       3.52404087       2.43330070        1      -0.01407145      -0.00759581      -0.00524480
In       3.85737406       2.08222281       1.43774559        2       0.01407145       0.00759581       0.00524480
In       1.33550347       0.72090903       0.49777756        3      -0.01407145      -0.00759581      -0.00524480
O        5.17469740       1.92760940      -0.06893947        4      -0.00000000      -0.00494502       0.00716165
O        5.93479451       4.51273363       0.79028894        5       0.00413406      -0.00765846       0.00000000
O        7.02921921       1.61957353       2.04405631        6      -0.00413406       0.00271344       0.00716165
O        3.35653588       3.98669015       1.82698998        7       0.00413406      -0.00271344      -0.00716165
O        5.21105768       3.67865429       3.93998576        8      -0.00000000       0.00494502      -0.00716165
O        4.45096057       1.09353005       3.08075735        9      -0.00413406       0.00765846      -0.00000000
10
Lattice="5.157097770163167 -0.256374878109577 -0.17702325076203468 2.6154815312679407 4.4520379433180945 -0.1770232507620418 2.61548153126794 1.4118452617724302 4.225952204753989" Properties=species:S:1:pos:R:3:spacegroup_kinds:I:1:forces:R:3 spacegroup="P 1" unit_cell=conventional occupancy="_JSON {\"0\": {\"In\": 1}, \"1\": {\"In\": 1}, \"2\": {\"In\": 1}, \"3\": {\"In\": 1}, \"4\": {\"O\": 1}, \"5\": {\"O\": 1}, \"6\": {\"O\": 1}, \"7\": {\"O\": 1}, \"8\": {\"O\": 1}, \"9\": {\"O\": 1}}" n_minim_iter=8 energy=-11283.0758281545 stress="-0.3792111024080305 -4.92329580513894e-06 -3.399464104749776e-06 -4.92329580513894e-06 -0.37920463948485006 -1.835040563170572e-06 -3.399464104749776e-06 -1.835040563170572e-06 -0.3792032489452579" free_energy=-11283.0758281545 pbc="T T T"
In       9.05293886       4.88680523       3.37427034        0       0.00022417       0.00012101       0.00008355
In       6.52915238       3.52445725       2.43358821        1      -0.00022417      -0.00012101      -0.00008355
In       3.85890844       2.08305107       1.43831749        2       0.00022417       0.00012101       0.00008355
In       1.33512196       0.72070309       0.49763536        3      -0.00022417      -0.00012101      -0.00008355
O        5.17556409       1.92824233      -0.06849466        4       0.00000000      -0.00021553       0.00031214
O        5.93609554       4.51342866       0.79095317        5       0.00018018      -0.00033379      -0.00000000
O        7.03051416       1.62044491       2.04448144        6      -0.00018018       0.00011826       0.00031214
O        3.35754666       3.98706341       1.82742426        7       0.00018018      -0.00011826      -0.00031214
O        5.21249673       3.67926600       3.94040036        8      -0.00000000       0.00021553      -0.00031214
O        4.45196528       1.09407967       3.08095253        9      -0.00018018       0.00033379       0.00000000
