10
Lattice="6.052246646400491 0.03551729970894746 0.024524196360923955 3.3506925908332765 5.040219252094059 0.024524196360927952 3.3506925908332783 1.8087145336218577 4.704568341649614" Properties=species:S:1:pos:R:3:spacegroup_kinds:I:1:forces:R:3 spacegroup="P 1" unit_cell=conventional occupancy="_JSON {\"0\": {\"In\": 1}, \"1\": {\"In\": 1}, \"2\": {\"In\": 1}, \"3\": {\"In\": 1}, \"4\": {\"O\": 1}, \"5\": {\"O\": 1}, \"6\": {\"O\": 1}, \"7\": {\"O\": 1}, \"8\": {\"O\": 1}, \"9\": {\"O\": 1}}" n_minim_iter=1 energy=-11287.375978300883 stress="0.05737323833990671 -0.0007864587982149171 -0.000543038748855498 -0.0007864587982149171 0.058405641569494515 -0.00029313404608116933 -0.000543038748855498 -0.00029313404608116933 0.05862776959399201" free_energy=-11287.375978300883 pbc="T T T"
In      10.90179175       5.88482192       4.06338684        0      -0.04648639      -0.02509350      -0.01732671
In       8.22865600       4.44185472       3.06703827        1       0.04648639       0.02509350       0.01732671
In       4.52497584       2.44259637       1.68657847        2      -0.04648639      -0.02509350      -0.01732671
In       1.85184009       0.99962918       0.69022990        3       0.04648639       0.02509350       0.01732671
O        6.21453129       2.38838795       0.26000048        4      -0.00000000      -0.01447612       0.02096512
O        7.34687853       5.26490147       1.21292838        5       0.01210211      -0.02241948      -0.00000000
O        8.43287663       2.28682479       2.61228465        6      -0.01210211       0.00794336       0.02096512
O        4.32075521       4.59762631       2.14133209        7       0.01210211      -0.00794336      -0.02096512
O        6.53910055       4.49606315       4.49361626        8      -0.00000000       0.01447612      -0.02096512
O        5.40675331       1.61954962       3.54068836        9      -0.01210211       0.02241948      -0.00000000
10
Lattice="6.061736282178542 0.045203585467828246 0.031212440566014167 3.3639975444797914 5.04283755831504 0.031212440566018136 3.363997544479793 1.815896589981027 4.704647110091697" Properties=species:S:1:pos:R:3:spacegroup_kinds:I:1:forces:R:3 spacegroup="P 1" unit_cell=conventional occupancy="_JSON {\"0\": {\"In\": 1}, \"1\": {\"In\": 1}, \"2\": {\"In\": 1}, \"3\": {\"In\": 1}, \"4\": {\"O\": 1}, \"5\": {\"O\": 1}, \"6\": {\"O\": 1}, \"7\": {\"O\": 1}, \"8\": {\"O\": 1}, \"9\": {\"O\": 1}}" n_minim_iter=2 energy=-11287.37638362056 stress="0.05832012116850119 0.0005261424004325679 0.0003632939338735603 0.0005261424004325679 0.057629441483327694 0.0001961072232247851 0.0003632939338735603 0.0001961072232247851 0.05748083742146237" free_energy=-11287.37638362056 pbc="T T T"
In      10.93198363       5.90111959       4.07464015        0      -0.06152786      -0.03321293      -0.02293306
In       8.25261343       4.45478702       3.07596784        1       0.06152786       0.03321293       0.02293306
In       4.53711795       2.44915072       1.69110416        2      -0.06152786      -0.03321293      -0.02293306
In       1.85774775       1.00281816       0.69243184        3       0.06152786       0.03321293       0.02293306
O        6.22830099       2.39697895       0.26833597        4      -0.00000000      -0.01630533       0.02361428
O        7.36824022       5.27418498       1.22298044        5       0.01363134      -0.02525242      -0.00000000
O        8.45235931       2.30074728       2.62065952        6      -0.01363134       0.00894709       0.02361428
O        4.33737208       4.60319047       2.14641247        7       0.01363134      -0.00894709      -0.02361428
O        6.56143039       4.50695880       4.49873603        8      -0.00000000       0.01630533      -0.02361428
O        5.42149116       1.62975277       3.54409156        9      -0.01363134       0.02525242       0.00000000
10
Lattice="6.055988440745296 0.03933956476701456 0.027163416673157456 3.3559412277776075 5.041250050483431 0.02716341667316141 3.355941227777608 1.8115477645630917 4.704597179292933" Properties=species:S:1:pos:R:3:spacegroup_kinds:I:1:forces:R:3 spacegroup="P 1" unit_cell=conventional occupancy="_JSON {\"0\": {\"In\": 1}, \"1\": {\"In\": 1}, \"2\": {\"In\": 1}, \"3\": {\"In\": 1}, \"4\": {\"O\": 1}, \"5\": {\"O\": 1}, \"6\": {\"O\": 1}, \"7\": {\"O\": 1}, \"8\": {\"O\": 1}, \"9\": {\"O\": 1}}" n_minim_iter=3 energy=-11287.37775886461 stress="0.05664664207879397 -0.0008893304260945666 -0.0006140701623607941 -0.0008893304260945666 0.05781408734699122 -0.000331477029219308 -0.0006140701623607941 -0.000331477029219308 0.05806527051210806" free_energy=-11287.37775886461 pbc="T T T"
In      10.90837771       5.88837704       4.06584160        0      -0.02942144      -0.01588178      -0.01096615
In       8.24342864       4.44982904       3.07254442        1       0.02942144       0.01588178       0.01096615
In       4.52444226       2.44230835       1.68637959        2      -0.02942144      -0.01588178      -0.01096615
In       1.85949319       1.00376035       0.69308242        3       0.02942144       0.01588178       0.01096615
O        6.21996195       2.39028980       0.26544327        4       0.00000000      -0.00008948       0.00012959
O        7.35654772       5.26625923       1.21689442        5       0.00007480      -0.00013858       0.00000000
O        8.43931741       2.29313361       2.61774186        6      -0.00007480       0.00004910       0.00012959
O        4.32855350       4.59900378       2.14118215        7       0.00007480      -0.00004910      -0.00012959
O        6.54790896       4.50184759       4.49348074        8       0.00000000       0.00008948      -0.00012959
O        5.41132319       1.62587816       3.54202960        9      -0.00007480       0.00013858      -0.00000000
10
Lattice="6.067758630844895 0.0513380567941142 0.03544820681539487 3.3724305873688643 5.044506153395681 0.035448206815398814 3.372430587368865 1.820448773394644 4.704706703978401" Properties=species:S:1:pos:R:3:spacegroup_kinds:I:1:forces:R:3 spacegroup="P 1" unit_cell=conventional occupancy="_JSON {\"0\": {\"In\": 1}, \"1\": {\"In\": 1}, \"2\": {\"In\": 1}, \"3\": {\"In\": 1}, \"4\": {\"O\": 1}, \"5\": {\"O\": 1}, \"6\": {\"O\": 1}, \"7\": {\"O\": 1}, \"8\": {\"O\": 1}, \"9\": {\"O\": 1}}" n_minim_iter=4 energy=-11287.379118332346 stress="0.05618667707110616 -0.00020320267473663826 -0.00014030859209513094 -0.00020320267473663826 0.05645342607126602 -7.573902440464514e-05 -0.00014030859209513094 -7.573902440464514e-05 0.05651081879053486" free_energy=-11287.379118332346 pbc="T T T"
In      10.93722388       5.90394829       4.07659333        0      -0.00702973      -0.00379467      -0.00262017
In       8.28170584       4.47049119       3.08681135        1       0.00702973       0.00379467       0.00262017
In       4.53091398       2.44580180       1.68879177        2      -0.00702973      -0.00379467      -0.00262017
In       1.87539593       1.01234470       0.69900979        3       0.00702973       0.00379467       0.00262017
O        6.23703427       2.39889575       0.27872615        4       0.00000000       0.01720888      -0.02492285
O        7.38473406       5.27460990       1.22934899        5      -0.01438671       0.02665177       0.00000000
O        8.46176508       2.31150559       2.63107950        6       0.01438671      -0.00944289      -0.02492285
O        4.35085474       4.60478741       2.14452362        7      -0.01438671       0.00944289       0.02492285
O        6.57558554       4.51739725       4.49687697        8       0.00000000      -0.01720888       0.02492285
O        5.42788576       1.64168309       3.54625413        9       0.01438671      -0.02665177      -0.00000000
10
Lattice="6.069703831430995 0.053317383080838485 0.036814903802940314 3.3751526880687583 5.045046251210073 0.03681490380294423 3.37515268806876 1.8219181720232591 4.704727536047361" Properties=species:S:1:pos:R:3:spacegroup_kinds:I:1:forces:R:3 spacegroup="P 1" unit_cell=conventional occupancy="_JSON {\"0\": {\"In\": 1}, \"1\": {\"In\": 1}, \"2\": {\"In\": 1}, \"3\": {\"In\": 1}, \"4\": {\"O\": 1}, \"5\": {\"O\": 1}, \"6\": {\"O\": 1}, \"7\": {\"O\": 1}, \"8\": {\"O\": 1}, \"9\": {\"O\": 1}}" n_minim_iter=5 energy=-11287.379237573297 stress="0.056638735638257436 0.00021624930589686877 0.00014931710647479574 0.00021624930589686877 0.056354860016906684 8.06018499916884e-05 0.00014931710647479574 8.06018499916884e-05 0.056293782396708986" free_energy=-11287.379237573297 pbc="T T T"
In      10.94429462       5.90776510       4.07922878        0      -0.01315944      -0.00710351      -0.00490487
In       8.28571921       4.47265762       3.08830724        1       0.01315944       0.00710351       0.00490487
In       4.53429001       2.44762420       1.69005011        2      -0.01315944      -0.00710351      -0.00490487
In       1.87571460       1.01251672       0.69912857        3       0.01315945       0.00710351       0.00490487
O        6.23985422       2.40140026       0.27934838        4       0.00000000       0.00797760      -0.01155361
O        7.38848230       5.27766851       1.23140424        5      -0.00666932       0.01235509      -0.00000000
O        8.46637883       2.31394311       2.63171215        6       0.00666932      -0.00437749      -0.01155361
O        4.35363039       4.60633870       2.14664520        7      -0.00666932       0.00437749       0.01155361
O        6.58015499       4.51888156       4.49900897        8       0.00000000      -0.00797760       0.01155361
O        5.43152691       1.64261331       3.54695311        9       0.00666932      -0.01235509       0.00000000
10
Lattice="6.069357403124247 0.052964951662091544 0.03657155486065203 3.374667960865688 5.044950022237112 0.03657155486065593 3.3746679608656893 1.8216565147350205 4.7047237695552955" Properties=species:S:1:pos:R:3:spacegroup_kinds:I:1:forces:R:3 spacegroup="P 1" unit_cell=conventional occupancy="_JSON {\"0\": {\"In\": 1}, \"1\": {\"In\": 1}, \"2\": {\"In\": 1}, \"3\": {\"In\": 1}, \"4\": {\"O\": 1}, \"5\": {\"O\": 1}, \"6\": {\"O\": 1}, \"7\": {\"O\": 1}, \"8\": {\"O\": 1}, \"9\": {\"O\": 1}}" n_minim_iter=6 energy=-11287.37935640203 stress="0.0562980886195926 9.145824673060524e-06 6.315062914600914e-06 9.145824673060524e-06 0.05628608267919689 3.408891600673602e-06 6.315062914600914e-06 3.408891600673602e-06 0.05628349952492629" free_energy=-11287.37935640203 pbc="T T T"
In      10.94112000       5.90605143       4.07804552        0       0.00024662       0.00013313       0.00009192
In       8.28691999       4.47330581       3.08875480        1      -0.00024662      -0.00013313      -0.00009192
In       4.53177334       2.44626569       1.68911208        2       0.00024662       0.00013313       0.00009192
In       1.87757333       1.01352007       0.69982136        3      -0.00024662      -0.00013313      -0.00009192
O        6.23935204       2.40158980       0.27831719        4       0.00000000       0.00009488      -0.00013741
O        7.38728352       5.27810808       1.23103828        5      -0.00007932       0.00014695       0.00000000
O        8.46608851       2.31316035       2.63067908        6       0.00007932      -0.00005206      -0.00013741
O        4.35260482       4.60641115       2.14718781        7      -0.00007932       0.00005206       0.00013741
O        6.57934130       4.51798170       4.49954969        8       0.00000000      -0.00009488       0.00013741
O        5.43140981       1.64146342       3.54682861        9       0.00007932      -0.00014695      -0.00000000
