10
Lattice="6.004961537824942 0.03523980946918201 0.02433259324965121 3.3245142355517605 5.000840930537789 0.02433259324965524 3.324514235551761 1.794583374053975 4.667812399958398" Properties=species:S:1:pos:R:3:spacegroup_kinds:I:1:forces:R:3 spacegroup="P 1" unit_cell=conventional occupancy="_JSON {\"0\": {\"In\": 1}, \"1\": {\"In\": 1}, \"2\": {\"In\": 1}, \"3\": {\"In\": 1}, \"4\": {\"O\": 1}, \"5\": {\"O\": 1}, \"6\": {\"O\": 1}, \"7\": {\"O\": 1}, \"8\": {\"O\": 1}, \"9\": {\"O\": 1}}" n_minim_iter=6 energy=-11287.539932722575 stress="0.04031830527201608 6.575142376420719e-06 4.540043655313694e-06 6.575142376420719e-06 0.04030967392621253 2.4507303370190052e-06 4.540043655313694e-06 2.4507303370190052e-06 0.04030781683855809" free_energy=-11287.539932722575 pbc="T T T"
In      10.81661802       5.83884487       4.03164033        0      -0.00251968      -0.00136013      -0.00093915
In       8.16436700       4.40715132       3.04307605        1       0.00251968       0.00136013       0.00093915
In       4.48962302       2.42351281       1.67340154        2      -0.00251968      -0.00136013      -0.00093915
In       1.83737200       0.99181926       0.68483726        3       0.00251968       0.00136013       0.00093915
O        6.16597828       2.36972790       0.25796914        4       0.00000000      -0.00057801       0.00083710
O        7.28947870       5.22376775       1.20345199        5       0.00048322      -0.00089517      -0.00000000
O        8.36699209       2.26895824       2.59187534        6      -0.00048322       0.00031717       0.00083710
O        4.28699793       4.56170588       2.12460225        7       0.00048322      -0.00031717      -0.00083710
O        6.48801174       4.46093622       4.45850845        8      -0.00000000       0.00057801      -0.00083710
O        5.36451132       1.60689637       3.51302560        9      -0.00048322       0.00089517       0.00000000
