10
Lattice="6.270365660600522 0.07319680876406887 0.050541367892070754 3.501879516338959 5.201892265656516 0.05054136789207786 3.5018795163389633 1.8903257175913604 4.846535489891534" Properties=species:S:1:pos:R:3:spacegroup_kinds:I:1:forces:R:3 spacegroup="P 1" unit_cell=conventional occupancy="_JSON {\"0\": {\"In\": 1}, \"1\": {\"In\": 1}, \"2\": {\"In\": 1}, \"3\": {\"In\": 1}, \"4\": {\"O\": 1}, \"5\": {\"O\": 1}, \"6\": {\"O\": 1}, \"7\": {\"O\": 1}, \"8\": {\"O\": 1}, \"9\": {\"O\": 1}}" n_minim_iter=1 energy=-11286.308309207616 stress="0.10188918975051002 -0.0006132521763333385 -0.00042344201063990275 -0.0006132521763333385 0.10269422051423706 -0.00022857534602559838 -0.00042344201063990275 -0.00022857534602559838 0.10286742792970978" free_energy=-11286.308309207616 pbc="T T T"
In      11.30524279       6.10260607       4.21376374        0      -0.03589935      -0.01937858      -0.01338064
In       8.60594426       4.64551613       3.20766361        1       0.03589935       0.01937858       0.01338064
In       4.66818044       2.51989868       1.73995462        2      -0.03589935      -0.01937858      -0.01338064
In       1.96888191       1.06280873       0.73385449        3       0.03589935       0.01937858       0.01338064
O        6.45371401       2.49423216       0.29723157        4       0.00000000       0.05063139      -0.07332718
O        7.64764033       5.46078071       1.28744593        5      -0.04232809       0.07841393      -0.00000000
O        8.76166721       2.40751255       2.72049931        6       0.04232809      -0.02778255      -0.07332718
O        4.51245750       4.75790225       2.22711892        7      -0.04232809       0.02778255       0.07332718
O        6.82041069       4.67118265       4.65038666        8      -0.00000000      -0.05063139       0.07332718
O        5.62648438       1.70463410       3.66017230        9       0.04232809      -0.07841393       0.00000000
10
Lattice="6.27881606372097 0.08174483231342695 0.05644365803631428 3.5136626274412945 5.2042663575352055 0.05644365803632136 3.5136626274412985 1.8966862784975973 4.846664354756181" Properties=species:S:1:pos:R:3:spacegroup_kinds:I:1:forces:R:3 spacegroup="P 1" unit_cell=conventional occupancy="_JSON {\"0\": {\"In\": 1}, \"1\": {\"In\": 1}, \"2\": {\"In\": 1}, \"3\": {\"In\": 1}, \"4\": {\"O\": 1}, \"5\": {\"O\": 1}, \"6\": {\"O\": 1}, \"7\": {\"O\": 1}, \"8\": {\"O\": 1}, \"9\": {\"O\": 1}}" n_minim_iter=2 energy=-11286.309012460004 stress="0.10249765987462672 0.0005816055056748331 0.0004015904297369886 0.0005816055056748331 0.10173417245108864 0.00021677979216165103 0.0004015904297369886 0.00021677979216165103 0.10156990334760421" free_energy=-11286.309012460004 pbc="T T T"
In      11.33199647       6.11704779       4.22373554        0      -0.03212081      -0.01733892      -0.01197228
In       8.62721552       4.65699842       3.21559197        1       0.03212081       0.01733892       0.01197228
In       4.67892581       2.52569906       1.74395971        2      -0.03212081      -0.01733892      -0.01197228
In       1.97414486       1.06564969       0.73581613        3       0.03212081       0.01733892       0.01197228
O        6.46594337       2.50274720       0.30328141        4      -0.00000000       0.03623497      -0.05247748
O        7.66582781       5.47043910       1.29633158        5      -0.03029261       0.05611788       0.00000000
O        8.77972155       2.41933121       2.72661358        6       0.03029261      -0.01988292      -0.05247748
O        4.52641978       4.76336627       2.23293809        7      -0.03029261       0.01988292       0.05247748
O        6.84019796       4.67995028       4.65627027        8      -0.00000000      -0.03623497       0.05247748
O        5.64031351       1.71225838       3.66322010        9       0.03029261      -0.05611788      -0.00000000
10
Lattice="6.270082728100651 0.07291029252352471 0.05034353245409317 3.501484736089841 5.201812950396412 0.05034353245410023 3.5014847360898433 1.8901126139553768 4.846531414190818" Properties=species:S:1:pos:R:3:spacegroup_kinds:I:1:forces:R:3 spacegroup="P 1" unit_cell=conventional occupancy="_JSON {\"0\": {\"In\": 1}, \"1\": {\"In\": 1}, \"2\": {\"In\": 1}, \"3\": {\"In\": 1}, \"4\": {\"O\": 1}, \"5\": {\"O\": 1}, \"6\": {\"O\": 1}, \"7\": {\"O\": 1}, \"8\": {\"O\": 1}, \"9\": {\"O\": 1}}" n_minim_iter=3 energy=-11286.311057994099 stress="0.10049385049084034 -1.2829517878094853e-05 -8.858601202204357e-06 -1.2829517878094853e-05 0.10051069210443263 -4.7819011183230685e-06 -8.858601202204357e-06 -4.7819011183230685e-06 0.10051431568449795" free_energy=-11286.311057994099 pbc="T T T"
In      11.30033979       6.09995942       4.21193626        0      -0.01808094      -0.00976015      -0.00673925
In       8.60923852       4.64729438       3.20889146        1       0.01808094       0.00976015       0.00673925
In       4.66381369       2.51754149       1.73832702        2      -0.01808094      -0.00976015      -0.00673925
In       1.97271242       1.06487645       0.73528222        3       0.01808094       0.00976015       0.00673925
O        6.45330442       2.49904081       0.28965147        4      -0.00000000      -0.00583588       0.00845185
O        7.64277252       5.46834635       1.28714815        5       0.00487883      -0.00903816      -0.00000000
O        8.76532105       2.40432136       2.71291717        6      -0.00487883       0.00320228       0.00845185
O        4.50773116       4.76051451       2.23430131        7       0.00487883      -0.00320228      -0.00845185
O        6.81974779       4.66579506       4.65756702        8      -0.00000000       0.00583588      -0.00845185
O        5.63027969       1.69648952       3.66007033        9      -0.00487883       0.00903816      -0.00000000
10
Lattice="6.2710440166110795 0.07388367368870391 0.051015638470724475 3.502825967602611 5.2020824768740574 0.05101563847073154 3.502825967602612 1.8908366149982465 4.846545324966084" Properties=species:S:1:pos:R:3:spacegroup_kinds:I:1:forces:R:3 spacegroup="P 1" unit_cell=conventional occupancy="_JSON {\"0\": {\"In\": 1}, \"1\": {\"In\": 1}, \"2\": {\"In\": 1}, \"3\": {\"In\": 1}, \"4\": {\"O\": 1}, \"5\": {\"O\": 1}, \"6\": {\"O\": 1}, \"7\": {\"O\": 1}, \"8\": {\"O\": 1}, \"9\": {\"O\": 1}}" n_minim_iter=4 energy=-11286.311153938723 stress="0.10073343542199995 2.6478365906169387e-05 1.8282941105021683e-05 2.6478365906169387e-05 0.10069867663859383 9.869189667726105e-06 1.8282941105021683e-05 9.869189667726105e-06 0.10069119806809952" free_energy=-11286.311153938723 pbc="T T T"
In      11.30250766       6.10112964       4.21274428        0      -0.01101450      -0.00594566      -0.00410540
In       8.61253627       4.64907452       3.21012062        1       0.01101450       0.00594566       0.00410540
In       4.66415969       2.51772826       1.73845598        2      -0.01101450      -0.00594566      -0.00410540
In       1.97418830       1.06567314       0.73583232        3       0.01101450       0.00594566       0.00410540
O        6.45469600       2.49911706       0.29163363        4       0.00000000       0.00331211      -0.00479678
O        7.64558894       5.46806231       1.28815979        5      -0.00276894       0.00512953       0.00000000
O        8.76662903       2.40615682       2.71490629        6       0.00276894      -0.00181743      -0.00479678
O        4.51006693       4.76064595       2.23367032        7      -0.00276894       0.00181743       0.00479678
O        6.82199996       4.66768572       4.65694298        8       0.00000000      -0.00331211       0.00479678
O        5.63110702       1.69874046       3.66041682        9       0.00276894      -0.00512953       0.00000000
10
Lattice="6.270696301297583 0.0735316115362378 0.050772544501614156 3.502340842899271 5.2019849693325595 0.05077254450162121 3.5023408428992724 1.8905747431380975 4.846540272508344" Properties=species:S:1:pos:R:3:spacegroup_kinds:I:1:forces:R:3 spacegroup="P 1" unit_cell=conventional occupancy="_JSON {\"0\": {\"In\": 1}, \"1\": {\"In\": 1}, \"2\": {\"In\": 1}, \"3\": {\"In\": 1}, \"4\": {\"O\": 1}, \"5\": {\"O\": 1}, \"6\": {\"O\": 1}, \"7\": {\"O\": 1}, \"8\": {\"O\": 1}, \"9\": {\"O\": 1}}" n_minim_iter=5 energy=-11286.311209540856 stress="0.10060065521998787 1.1346354257276972e-05 7.83449887605184e-06 1.1346354257276972e-05 0.10058576059118796 4.229086411463419e-06 7.83449887605184e-06 4.229086411463419e-06 0.10058255591801221" free_energy=-11286.311209540856 pbc="T T T"
In      11.30037787       6.09997997       4.21195045        0      -0.00486962      -0.00262864      -0.00181504
In       8.61268912       4.64915702       3.21017759        1       0.00486962       0.00262864       0.00181504
In       4.66268888       2.51693431       1.73790777        2      -0.00486962      -0.00262864      -0.00181504
In       1.97500012       1.06611136       0.73613491        3       0.00486962       0.00262864       0.00181504
O        6.45419265       2.49899108       0.29105919        4       0.00000000       0.00166050      -0.00240483
O        7.64465249       5.46801264       1.28779389        5      -0.00138819       0.00257166       0.00000000
O        8.76607366       2.40554693       2.71432933        6       0.00138819      -0.00091115      -0.00240483
O        4.50930434       4.76054440       2.23375604        7      -0.00138819       0.00091115       0.00240483
O        6.82118534       4.66710026       4.65702618        8       0.00000000      -0.00166050       0.00240483
O        5.63072551       1.69807869       3.66029148        9       0.00138819      -0.00257166      -0.00000000
