10
Lattice="6.222750224108529 0.06981165757352636 0.048203968563051314 3.4729218828650765 5.163943029768319 0.04820396856305931 3.47292188286508 1.874694294802289 4.811876197317814" Properties=species:S:1:pos:R:3:spacegroup_kinds:I:1:forces:R:3 spacegroup="P 1" unit_cell=conventional occupancy="_JSON {\"0\": {\"In\": 1}, \"1\": {\"In\": 1}, \"2\": {\"In\": 1}, \"3\": {\"In\": 1}, \"4\": {\"O\": 1}, \"5\": {\"O\": 1}, \"6\": {\"O\": 1}, \"7\": {\"O\": 1}, \"8\": {\"O\": 1}, \"9\": {\"O\": 1}}" n_minim_iter=1 energy=-11286.628489550112 stress="0.0924583973435278 -0.0005219369653465398 -0.00036039014063615326 -0.0005219369653465398 0.0931435564505918 -0.00019453974631548988 -0.00036039014063615326 -0.00019453974631548988 0.09329097272524033" free_energy=-11286.628489550112 pbc="T T T"
In      11.22135606       6.05732375       4.18249693        0      -0.03854754      -0.02080809      -0.01436769
In       8.53153493       4.60534974       3.17992928        1       0.03854754       0.02080809       0.01436769
In       4.63705907       2.50309926       1.72835486        2      -0.03854754      -0.02080809      -0.01436769
In       1.94723794       1.05112524       0.72578721        3       0.03854754       0.02080809       0.01436769
O        6.40352361       2.47072013       0.29720423        4       0.00000000       0.03166608      -0.04586057
O        7.58930636       5.41413585       1.27527500        5      -0.02647300       0.04904194       0.00000000
O        8.69066275       2.38792102       2.70314233        6       0.02647300      -0.01737587      -0.04586057
O        4.47793125       4.72052797       2.20514181        7      -0.02647300       0.01737587       0.04586057
O        6.76507039       4.63772887       4.61107991        8      -0.00000000      -0.03166608       0.04586057
O        5.57928764       1.69431315       3.63300913        9       0.02647300      -0.04904194      -0.00000000
10
Lattice="6.229729149743196 0.07687753861773977 0.05308286013451752 3.482658483601682 5.165900243103926 0.05308286013452552 3.482658483601686 1.8799501428942784 4.811977823304365" Properties=species:S:1:pos:R:3:spacegroup_kinds:I:1:forces:R:3 spacegroup="P 1" unit_cell=conventional occupancy="_JSON {\"0\": {\"In\": 1}, \"1\": {\"In\": 1}, \"2\": {\"In\": 1}, \"3\": {\"In\": 1}, \"4\": {\"O\": 1}, \"5\": {\"O\": 1}, \"6\": {\"O\": 1}, \"7\": {\"O\": 1}, \"8\": {\"O\": 1}, \"9\": {\"O\": 1}}" n_minim_iter=2 energy=-11286.628866577095 stress="0.09303450062981948 0.0004358593746398195 0.000300954773575798 0.0004358593746398195 0.09246233762872355 0.00016245634535453195 0.000300954773575798 0.00016245634535453195 0.09233923317380742" free_energy=-11286.628866577095 pbc="T T T"
In      11.24334493       6.06919341       4.19069276        0      -0.03639061      -0.01964377      -0.01356374
In       8.54922425       4.61489849       3.18652256        1       0.03639061       0.01964377       0.01356374
In       4.64582187       2.50782945       1.73162099        2      -0.03639061      -0.01964377      -0.01356374
In       1.95170119       1.05353453       0.72745078        3       0.03639061       0.01964377       0.01356374
O        6.41362611       2.47761414       0.30241072        4      -0.00000000       0.02113862      -0.03061413
O        7.60445160       5.42189397       1.28261875        5      -0.01767199       0.03273785      -0.00000000
O        8.70545910       2.39776612       2.70839963        6       0.01767199      -0.01159922      -0.03061413
O        4.48958702       4.72496181       2.20974392        7      -0.01767199       0.01159922       0.03061413
O        6.78142002       4.64511380       4.61573283        8       0.00000000      -0.02113862       0.03061413
O        5.59059453       1.70083397       3.63552480        9       0.01767199      -0.03273785      -0.00000000
10
Lattice="6.221982492043012 0.06903359272204021 0.047666725716445646 3.471850145414035 5.163728143115432 0.047666725716453646 3.4718501454140402 1.8741157675123719 4.811865598985945" Properties=species:S:1:pos:R:3:spacegroup_kinds:I:1:forces:R:3 spacegroup="P 1" unit_cell=conventional occupancy="_JSON {\"0\": {\"In\": 1}, \"1\": {\"In\": 1}, \"2\": {\"In\": 1}, \"3\": {\"In\": 1}, \"4\": {\"O\": 1}, \"5\": {\"O\": 1}, \"6\": {\"O\": 1}, \"7\": {\"O\": 1}, \"8\": {\"O\": 1}, \"9\": {\"O\": 1}}" n_minim_iter=3 energy=-11286.629969296684 stress="0.09162735059632053 -0.0002730679168505097 -0.00018854955988932643 -0.0002730679168505097 0.09198581336569926 -0.00010177965330530467 -0.00018854955988932643 -0.00010177965330530467 0.09206293887743351" free_energy=-11286.629969296684 pbc="T T T"
In      11.21442239       6.05358093       4.17991257        0      -0.01377465      -0.00743560      -0.00513418
In       8.53410179       4.60673534       3.18088601        1       0.01377465       0.00743560       0.00513418
In       4.63158100       2.50014218       1.72631304        2      -0.01377465      -0.00743560      -0.00513418
In       1.95126040       1.05329658       0.72728649        3       0.01377465       0.00743560       0.00513418
O        6.40241195       2.47308911       0.29210105        4      -0.00000000      -0.00238324       0.00345155
O        7.58502467       5.41812634       1.27446649        5       0.00199240      -0.00369098      -0.00000000
O        8.69164937       2.38512090       2.69803385        6      -0.00199240       0.00130774       0.00345155
O        4.47403342       4.72175661       2.20916520        7       0.00199240      -0.00130774      -0.00345155
O        6.76327085       4.63378841       4.61509800        8      -0.00000000       0.00238324      -0.00345155
O        5.58065812       1.68875118       3.63273256        9      -0.00199240       0.00369098      -0.00000000
10
Lattice="6.223846987811723 0.07092291815546163 0.04897127837947487 3.474452720455499 5.164250156734477 0.04897127837948287 3.474452720455504 1.8755206458098361 4.811891538114633" Properties=species:S:1:pos:R:3:spacegroup_kinds:I:1:forces:R:3 spacegroup="P 1" unit_cell=conventional occupancy="_JSON {\"0\": {\"In\": 1}, \"1\": {\"In\": 1}, \"2\": {\"In\": 1}, \"3\": {\"In\": 1}, \"4\": {\"O\": 1}, \"5\": {\"O\": 1}, \"6\": {\"O\": 1}, \"7\": {\"O\": 1}, \"8\": {\"O\": 1}, \"9\": {\"O\": 1}}" n_minim_iter=4 energy=-11286.630023333679 stress="0.09177538987736175 -1.3737358816533776e-05 -9.485453745735012e-06 -1.3737358816533776e-05 0.09179342323713334 -5.120277776990326e-06 -9.485453745735012e-06 -5.120277776990326e-06 0.0917973032275841" free_energy=-11286.630023333679 pbc="T T T"
In      11.22002909       6.05660745       4.18200233        0      -0.01153561      -0.00622696      -0.00429963
In       8.53909956       4.60943315       3.18274881        1       0.01153561       0.00622696       0.00429963
In       4.63365288       2.50126059       1.72708529        2      -0.01153561      -0.00622696      -0.00429963
In       1.95272335       1.05408629       0.72783177        3       0.01153561       0.00622696       0.00429963
O        6.40511161       2.47491416       0.29351878        4      -0.00000000      -0.00501011       0.00725592
O        7.58908720       5.42017198       1.27642980        5       0.00418848      -0.00775927      -0.00000000
O        8.69558873       2.38776248       2.69946455        6      -0.00418848       0.00274916       0.00725592
O        4.47716371       4.72293125       2.21036955        7       0.00418848      -0.00274916      -0.00725592
O        6.76764083       4.63577957       4.61631532        8       0.00000000       0.00501011      -0.00725592
O        5.58366524       1.69052176       3.63340430        9      -0.00418848       0.00775927       0.00000000
10
Lattice="6.225575805482653 0.07267395656738126 0.05018034579736247 3.4768652373212934 5.164734623897031 0.050180345797370476 3.4768652373212983 1.876822930098674 4.811916197466549" Properties=species:S:1:pos:R:3:spacegroup_kinds:I:1:forces:R:3 spacegroup="P 1" unit_cell=conventional occupancy="_JSON {\"0\": {\"In\": 1}, \"1\": {\"In\": 1}, \"2\": {\"In\": 1}, \"3\": {\"In\": 1}, \"4\": {\"O\": 1}, \"5\": {\"O\": 1}, \"6\": {\"O\": 1}, \"7\": {\"O\": 1}, \"8\": {\"O\": 1}, \"9\": {\"O\": 1}}" n_minim_iter=5 energy=-11286.630066036729 stress="0.09189909539685244 0.00019997305363915772 0.0001380785843275252 0.00019997305363915772 0.09163658599706145 7.453525958245375e-05 0.0001380785843275252 7.453525958245375e-05 0.091580105454967" free_energy=-11286.630066036729 pbc="T T T"
In      11.22448830       6.05901454       4.18366440        0      -0.00479500      -0.00258836      -0.00178722
In       8.54447113       4.61233274       3.18475094        1       0.00479500       0.00258836       0.00178722
In       4.63483516       2.50189879       1.72752595        2      -0.00479500      -0.00258836      -0.00178722
In       1.95481799       1.05521698       0.72861250        3       0.00479500       0.00258836       0.00178722
O        6.40761448       2.47641560       0.29510841        4       0.00000000      -0.00513491       0.00743667
O        7.59301246       5.42177380       1.27824957        5       0.00429281      -0.00795255       0.00000000
O        8.69908173       2.39031544       2.70106651        6      -0.00429281       0.00281764       0.00743667
O        4.48022456       4.72391608       2.21121038        7       0.00429281      -0.00281764      -0.00743667
O        6.77169181       4.63781592       4.61716848        8      -0.00000000       0.00513491      -0.00743667
O        5.58629383       1.69245773       3.63402732        9      -0.00429281       0.00795255      -0.00000000
