10
Lattice="5.819649166736236 -0.005481264625531683 -0.0037847362013498746 3.188786268272377 4.868263407359256 -0.003784736201350077 3.188786268272378 1.7213169849770467 4.553797400509911" Properties=species:S:1:pos:R:3:spacegroup_kinds:I:1:forces:R:3 spacegroup="P 1" unit_cell=conventional occupancy="_JSON {\"0\": {\"In\": 1}, \"1\": {\"In\": 1}, \"2\": {\"In\": 1}, \"3\": {\"In\": 1}, \"4\": {\"O\": 1}, \"5\": {\"O\": 1}, \"6\": {\"O\": 1}, \"7\": {\"O\": 1}, \"8\": {\"O\": 1}, \"9\": {\"O\": 1}}" n_minim_iter=6 energy=-11287.638556992086 stress="-0.025297116615717923 -1.379092493477009e-06 -9.522445337562753e-07 -1.379092493477009e-06 -0.02529530624878818 -5.140235108211529e-07 -9.522445337562753e-07 -5.140235108211529e-07 -0.02529491673761763" free_energy=-11287.638556992086 pbc="T T T"
In      10.46107766       5.64692304       3.89912101        0       0.00003684       0.00001989       0.00001373
In       7.83475491       4.22922566       2.92022089        1      -0.00003684      -0.00001989      -0.00001373
In       4.36246681       2.35487348       1.62600705        2       0.00003684       0.00001989       0.00001373
In       1.73614406       0.93717609       0.64710692        3      -0.00003684      -0.00001989      -0.00001373
O        5.95913001       2.28875540       0.19985740        4       0.00000000      -0.00000459       0.00000665
O        7.01390597       5.07707128       1.13277225        5       0.00000384      -0.00000711       0.00000000
O        8.09314033       2.14975847       2.47675610        6      -0.00000384       0.00000252       0.00000665
O        4.10408138       4.43434067       2.06947184        7       0.00000384      -0.00000252      -0.00000665
O        6.23809170       4.29534373       4.34637054        8      -0.00000000       0.00000459      -0.00000665
O        5.18331575       1.50702786       3.41345568        9      -0.00000384       0.00000711       0.00000000
