10
Lattice="5.424536744367321 -0.0887783985185977 -0.06130023666551532 2.90234263134252 4.58365440945612 -0.06130023666551909 2.902342631342519 1.5666937973423807 4.308029248938626" Properties=species:S:1:pos:R:3:spacegroup_kinds:I:1:forces:R:3 spacegroup="P 1" unit_cell=conventional occupancy="_JSON {\"0\": {\"In\": 1}, \"1\": {\"In\": 1}, \"2\": {\"In\": 1}, \"3\": {\"In\": 1}, \"4\": {\"O\": 1}, \"5\": {\"O\": 1}, \"6\": {\"O\": 1}, \"7\": {\"O\": 1}, \"8\": {\"O\": 1}, \"9\": {\"O\": 1}}" n_minim_iter=1 energy=-11285.077717885937 stress="-0.25911855958239155 0.004314546627101335 0.002979133818571794 0.004314546627101335 -0.2647823678842514 0.001608145924036071 0.002979133818571794 0.001608145924036071 -0.26600097173438647" free_energy=-11285.077717885937 pbc="T T T"
In       9.69515485       5.23347547       3.61364127        0       0.16021835       0.08648638       0.05971763
In       7.14867817       3.85887925       2.66450190        1      -0.16021835      -0.08648638      -0.05971763
In       4.08054384       2.20269057       1.52092688        2       0.16021835       0.08648638       0.05971763
In       1.53406717       0.82809435       0.57178751        3      -0.16021835      -0.08648638      -0.05971763
O        5.51957388       2.11665917       0.08063242        4       0.00000000       0.00279272      -0.00404457
O        6.43097364       4.76277187       0.98505696        5      -0.00233473       0.00432515      -0.00000000
O        7.51051675       1.90006465       2.23464705        6       0.00233473      -0.00153243      -0.00404457
O        3.71870526       4.16150516       1.95078173        7      -0.00233473       0.00153243       0.00404457
O        5.70964814       3.94491065       4.10479636        8      -0.00000000      -0.00279272       0.00404457
O        4.79824838       1.29879795       3.20037182        9       0.00233473      -0.00432515      -0.00000000
10
Lattice="5.403314790029137 -0.11134283983544456 -0.07688066631989879 2.871833695948348 4.578294351715047 -0.07688066631990254 2.871833695948347 1.5502249768353207 4.308537144901461" Properties=species:S:1:pos:R:3:spacegroup_kinds:I:1:forces:R:3 spacegroup="P 1" unit_cell=conventional occupancy="_JSON {\"0\": {\"In\": 1}, \"1\": {\"In\": 1}, \"2\": {\"In\": 1}, \"3\": {\"In\": 1}, \"4\": {\"O\": 1}, \"5\": {\"O\": 1}, \"6\": {\"O\": 1}, \"7\": {\"O\": 1}, \"8\": {\"O\": 1}, \"9\": {\"O\": 1}}" n_minim_iter=2 energy=-11285.082889963394 stress="-0.2613968893463295 -0.0009521840653610617 -0.000657469717840749 -0.0009521840653610617 -0.2601469346031741 -0.00035490424743873575 -0.000657469717840749 -0.00035490424743873575 -0.2598779990074107" free_energy=-11285.082889963394 pbc="T T T"
In       9.62555355       5.19590447       3.58769902        0       0.25461034       0.13743947       0.09490002
In       7.09491973       3.82986027       2.64446470        1      -0.25461034      -0.13743947      -0.09490002
In       4.05206246       2.18731623       1.51031112        2       0.25461034       0.13743947       0.09490002
In       1.52142864       0.82127203       0.56707679        3      -0.25461034      -0.13743947      -0.09490002
O        5.48840294       2.09668072       0.06170011        4      -0.00000000      -0.03432103       0.04970562
O        6.38254006       4.74143149       0.96181329        5       0.02869256      -0.05315374      -0.00000000
O        7.46609952       1.86813161       2.21596868        6      -0.02869256       0.01883270       0.04970562
O        3.68088267       4.14904489       1.93880714        7       0.02869256      -0.01883270      -0.04970562
O        5.65857925       3.92049578       4.09307571        8      -0.00000000       0.03432103      -0.04970562
O        4.76444213       1.27574501       3.19296253        9      -0.02869256       0.05315374      -0.00000000
10
Lattice="5.383234997527887 -0.1328405413378415 -0.09172452712220269 2.8428432895087643 4.57330380352399 -0.09172452712220648 2.842843289508763 1.5345758630949762 4.309129609168086" Properties=species:S:1:pos:R:3:spacegroup_kinds:I:1:forces:R:3 spacegroup="P 1" unit_cell=conventional occupancy="_JSON {\"0\": {\"In\": 1}, \"1\": {\"In\": 1}, \"2\": {\"In\": 1}, \"3\": {\"In\": 1}, \"4\": {\"O\": 1}, \"5\": {\"O\": 1}, \"6\": {\"O\": 1}, \"7\": {\"O\": 1}, \"8\": {\"O\": 1}, \"9\": {\"O\": 1}}" n_minim_iter=3 energy=-11285.094207644945 stress="-0.25200347608025797 0.0005681555505650043 0.0003923034244128619 0.0005681555505650043 -0.25274930742836293 0.00021176663668466764 0.0003923034244128619 0.00021176663668466764 -0.2529097777172084" free_energy=-11285.094207644945 pbc="T T T"
In       9.57564399       5.16896313       3.56909640        0       0.00839819       0.00453337       0.00313023
In       7.02773839       3.79359557       2.61942443        1      -0.00839819      -0.00453337      -0.00313023
In       4.04118320       2.18144357       1.50625613        2       0.00839819       0.00453337       0.00313023
In       1.49327760       0.80607601       0.55658415        3      -0.00839819      -0.00453337      -0.00313023
O        5.45884790       2.07576287       0.04647526        4      -0.00000000       0.10482325      -0.15181084
O        6.33818439       4.71821883       0.93969561        5      -0.08763276       0.16234206       0.00000000
O        7.42235470       1.83882339       2.20104007        6       0.08763276      -0.05751881      -0.15181084
O        3.64656689       4.13621575       1.92464049        7      -0.08763276       0.05751881       0.15181084
O        5.61007369       3.89927627       4.07920530        8       0.00000000      -0.10482325       0.15181084
O        4.73073720       1.25682031       3.18598495        9       0.08763276      -0.16234206      -0.00000000
10
Lattice="5.376406807928393 -0.14018431957429192 -0.09679530279990493 2.8329570774894233 4.571625094525564 -0.0967953027999086 2.832957077489421 1.5292392543560032 4.309356406527166" Properties=species:S:1:pos:R:3:spacegroup_kinds:I:1:forces:R:3 spacegroup="P 1" unit_cell=conventional occupancy="_JSON {\"0\": {\"In\": 1}, \"1\": {\"In\": 1}, \"2\": {\"In\": 1}, \"3\": {\"In\": 1}, \"4\": {\"O\": 1}, \"5\": {\"O\": 1}, \"6\": {\"O\": 1}, \"7\": {\"O\": 1}, \"8\": {\"O\": 1}, \"9\": {\"O\": 1}}" n_minim_iter=4 energy=-11285.098738664523 stress="-0.25154669833606275 -0.0017203562048422505 -0.001187881785056678 -0.0017203562048422505 -0.24928834570215547 -0.000641222372418463 -0.001187881785056678 -0.000641222372418463 -0.24880244697953185" free_energy=-11285.098738664523 pbc="T T T"
In       9.55705551       5.15892901       3.56216799        0       0.07514804       0.04056515       0.02800967
In       7.00642594       3.78209104       2.61148072        1      -0.07514804      -0.04056515      -0.02800967
In       4.03589503       2.17858900       1.50428509        2       0.07514804       0.04056515       0.02800967
In       1.48526546       0.80175103       0.55359782        3      -0.07514804      -0.04056515      -0.02800967
O        5.44878365       2.07362699       0.03403773        4      -0.00000000      -0.00863249       0.01250204
O        6.31889185       4.71805623       0.93214615        5       0.00721680      -0.01336932       0.00000000
O        7.41163253       1.82608079       2.18871594        6      -0.00721680       0.00473683       0.01250204
O        3.63068844       4.13459925       1.92704987        7       0.00721680      -0.00473683      -0.01250204
O        5.59353732       3.88705305       4.08172807        8       0.00000000       0.00863249      -0.01250204
O        4.72342912       1.24262381       3.18361966        9      -0.00721680       0.01336932      -0.00000000
10
Lattice="5.377717057272382 -0.13877380437877973 -0.09582136187792378 2.834855237663632 4.571946489007846 -0.09582136187792747 2.83485523766363 1.5302638872643244 4.309311878604058" Properties=species:S:1:pos:R:3:spacegroup_kinds:I:1:forces:R:3 spacegroup="P 1" unit_cell=conventional occupancy="_JSON {\"0\": {\"In\": 1}, \"1\": {\"In\": 1}, \"2\": {\"In\": 1}, \"3\": {\"In\": 1}, \"4\": {\"O\": 1}, \"5\": {\"O\": 1}, \"6\": {\"O\": 1}, \"7\": {\"O\": 1}, \"8\": {\"O\": 1}, \"9\": {\"O\": 1}}" n_minim_iter=5 energy=-11285.099822217064 stress="-0.2493465553288509 -0.00048749883853336064 -0.0003366110971185718 -0.00048749883853336064 -0.24870660397195024 -0.00018170374100670168 -0.0003366110971185718 -0.00018170374100670168 -0.24856891442923487" free_energy=-11285.099822217064 pbc="T T T"
In       9.56504823       5.16324351       3.56514709        0       0.02602643       0.01404915       0.00970074
In       7.00609307       3.78191136       2.61135665        1      -0.02602643      -0.01404915      -0.00970074
In       4.04133447       2.18152522       1.50631251        2       0.02602643       0.01404915       0.00970074
In       1.48237931       0.80019307       0.55252207        3      -0.02602643      -0.01404915      -0.00970074
O        5.45071542       2.07566582       0.03406724        4       0.00000000      -0.00426028       0.00616997
O        6.32123395       4.72060936       0.93359593        5       0.00356161      -0.00659798       0.00000000
O        7.41505212       1.82763389       2.18872318        6      -0.00356161       0.00233771       0.00616997
O        3.63237542       4.13580270       1.92894598        7       0.00356161      -0.00233771      -0.00616997
O        5.59671213       3.88777077       4.08360192        8      -0.00000000       0.00426028      -0.00616997
O        4.72619359       1.24282722       3.18407323        9      -0.00356161       0.00659798      -0.00000000
10
Lattice="5.377412355136067 -0.13910176708715838 -0.09604781551953642 2.8344138624856763 4.571871716805472 -0.09604781551954009 2.834413862485676 1.5300256315373344 4.309322190859105" Properties=species:S:1:pos:R:3:spacegroup_kinds:I:1:forces:R:3 spacegroup="P 1" unit_cell=conventional occupancy="_JSON {\"0\": {\"In\": 1}, \"1\": {\"In\": 1}, \"2\": {\"In\": 1}, \"3\": {\"In\": 1}, \"4\": {\"O\": 1}, \"5\": {\"O\": 1}, \"6\": {\"O\": 1}, \"7\": {\"O\": 1}, \"8\": {\"O\": 1}, \"9\": {\"O\": 1}}" n_minim_iter=6 energy=-11285.09996454348 stress="-0.24807306657073752 4.725685813528106e-06 3.2630189829297008e-06 4.725685813528106e-06 -0.24807927009230107 1.7613878205689845e-06 3.2630189829297008e-06 1.7613878205689845e-06 -0.24808060481742392" free_energy=-11285.09996454348 pbc="T T T"
In       9.56615638       5.16384169       3.56556012        0       0.00083857       0.00045266       0.00031256
In       7.00320375       3.78035169       2.61027972        1      -0.00083857      -0.00045266      -0.00031256
In       4.04303634       2.18244390       1.50694684        2       0.00083857       0.00045266       0.00031256
In       1.48008371       0.79895390       0.55166644        3      -0.00083857      -0.00045266      -0.00031256
O        5.45026620       2.07571260       0.03330605        4       0.00000000      -0.00018320       0.00026532
O        6.32025388       4.72082234       0.93325883        5       0.00015316      -0.00028373      -0.00000000
O        7.41469239       1.82698695       2.18796714        6      -0.00015316       0.00010053       0.00026532
O        3.63154770       4.13580864       1.92925942        7       0.00015316      -0.00010053      -0.00026532
O        5.59597389       3.88708299       4.08392051        8      -0.00000000       0.00018320      -0.00026532
O        4.72598621       1.24197325       3.18396774        9      -0.00015316       0.00028373      -0.00000000
