10
Lattice="5.554970190529152 -0.06626769980883002 -0.04575691552613549 2.9927333690280307 4.680345308586926 -0.04575691552613924 2.992733369028032 1.6154870054701178 4.392940659522647" Properties=species:S:1:pos:R:3:spacegroup_kinds:I:1:forces:R:3 spacegroup="P 1" unit_cell=conventional occupancy="_JSON {\"0\": {\"In\": 1}, \"1\": {\"In\": 1}, \"2\": {\"In\": 1}, \"3\": {\"In\": 1}, \"4\": {\"O\": 1}, \"5\": {\"O\": 1}, \"6\": {\"O\": 1}, \"7\": {\"O\": 1}, \"8\": {\"O\": 1}, \"9\": {\"O\": 1}}" n_minim_iter=6 energy=-11286.453167129099 stress="-0.16180270854848497 -9.455866803240677e-05 -6.529143218158086e-05 -9.455866803240677e-05 -0.16167857912945502 -3.524452259947036e-05 -6.529143218158086e-05 -3.524452259947036e-05 -0.16165187190696964" free_energy=-11286.453167129099 pbc="T T T"
In       9.94594078       5.36885052       3.70711584        0      -0.00333457      -0.00180001      -0.00124288
In       7.36471462       3.97549641       2.74502441        1       0.00333457       0.00180001       0.00124288
In       4.17572232       2.25406821       1.55640242        2      -0.00333457      -0.00180001      -0.00124288
In       1.59449616       0.86071411       0.59431099        3       0.00333457       0.00180001       0.00124288
O        5.66259433       2.17598551       0.10860937        4       0.00000000       0.00257671      -0.00373174
O        6.61411299       4.87377566       1.02959979        5      -0.00215414       0.00399061      -0.00000000
O        7.70380904       1.97438331       2.30507970        6       0.00215414      -0.00141390      -0.00373174
O        3.83662790       4.25518131       1.99634713        7      -0.00215414       0.00141390       0.00373174
O        5.87784261       4.05357912       4.19281746        8       0.00000000      -0.00257671       0.00373174
O        4.92632394       1.35578896       3.27182704        9       0.00215414      -0.00399061      -0.00000000
