10
Lattice="6.129231467439727 0.06676327048802651 0.04609910011636724 3.4190576312850296 5.087433599536334 0.04609910011637411 3.4190576312850336 1.845618200223512 4.741075744567525" Properties=species:S:1:pos:R:3:spacegroup_kinds:I:1:forces:R:3 spacegroup="P 1" unit_cell=conventional occupancy="_JSON {\"0\": {\"In\": 1}, \"1\": {\"In\": 1}, \"2\": {\"In\": 1}, \"3\": {\"In\": 1}, \"4\": {\"O\": 1}, \"5\": {\"O\": 1}, \"6\": {\"O\": 1}, \"7\": {\"O\": 1}, \"8\": {\"O\": 1}, \"9\": {\"O\": 1}}" n_minim_iter=4 energy=-11287.16972095494 stress="0.07008461051464222 2.8688054882189224e-05 1.980869909170646e-05 2.8688054882189224e-05 0.0700469510194983 1.0692798989663297e-05 1.980869909170646e-05 1.0692798989663297e-05 0.07003884834247055" free_energy=-11287.16972095494 pbc="T T T"
In      11.05589650       5.96800815       4.12082577        0       0.00234825       0.00126759       0.00087526
In       8.39512360       4.53171446       3.12908516        1      -0.00234825      -0.00126759      -0.00087526
In       4.57222314       2.46810062       1.70418879        2       0.00234825       0.00126759       0.00087526
In       1.91145024       1.03180693       0.71244818        3      -0.00234825      -0.00126759      -0.00087526
O        6.30645242       2.43121406       0.29307429        4      -0.00000000      -0.00060309       0.00087342
O        7.47435146       5.33043602       1.25441759        5       0.00050418      -0.00093401       0.00000000
O        8.55761102       2.35063934       2.66361217        6      -0.00050418       0.00033093       0.00087342
O        4.40973572       4.64917574       2.16966178        7       0.00050418      -0.00033093      -0.00087342
O        6.66089432       4.56860103       4.54019966        8       0.00000000       0.00060309      -0.00087342
O        5.49299528       1.66937906       3.57885636        9      -0.00050418       0.00093401      -0.00000000
