10
Lattice="5.424536744367328 -0.08877839851860095 -0.06130023666551851 2.902342631342523 4.583654409456117 -0.0613002366655221 2.9023426313425236 1.5666937973423798 4.308029248938623" Properties=species:S:1:pos:R:3:spacegroup_kinds:I:1:forces:R:3 spacegroup="P 1" unit_cell=conventional occupancy="_JSON {\"0\": {\"In\": 1}, \"1\": {\"In\": 1}, \"2\": {\"In\": 1}, \"3\": {\"In\": 1}, \"4\": {\"O\": 1}, \"5\": {\"O\": 1}, \"6\": {\"O\": 1}, \"7\": {\"O\": 1}, \"8\": {\"O\": 1}, \"9\": {\"O\": 1}}" n_minim_iter=5 energy=-11285.848767434607 stress="-0.2037428399779844 4.881505444933157e-05 3.3706108405535795e-05 4.881505444933157e-05 -0.20380692066360367 1.819466346785054e-05 3.3706108405535795e-05 1.819466346785054e-05 -0.20382070802434885" free_energy=-11285.848767434607 pbc="T T T"
In       9.69515485       5.23347547       3.61364127        0      -0.00343004      -0.00185155      -0.00127847
In       7.14867817       3.85887925       2.66450190        1       0.00343004       0.00185155       0.00127847
In       4.08054384       2.20269057       1.52092688        2      -0.00343004      -0.00185155      -0.00127847
In       1.53406717       0.82809435       0.57178751        3       0.00343004       0.00185155       0.00127847
O        5.51957388       2.11665917       0.08063242        4      -0.00000000       0.00069434      -0.00100559
O        6.43097364       4.76277187       0.98505696        5      -0.00058047       0.00107535      -0.00000000
O        7.51051675       1.90006465       2.23464705        6       0.00058047      -0.00038100      -0.00100559
O        3.71870526       4.16150516       1.95078173        7      -0.00058047       0.00038100       0.00100559
O        5.70964814       3.94491065       4.10479636        8      -0.00000000      -0.00069434       0.00100559
O        4.79824838       1.29879795       3.20037182        9       0.00058047      -0.00107535      -0.00000000
