40
Lattice="9.282055901690077 7.275002822382248e-10 1.554312234475219e-14 -3.0940186345825857 8.75120622834106 -1.260084481202739e-09 -3.0940186335537576 -4.3756031134430176 7.578766908340004" Properties=species:S:1:pos:R:3:spacegroup_kinds:I:1:forces:R:3 spacegroup="P 1" unit_cell=conventional occupancy="_JSON {\"0\": {\"In\": 1}, \"1\": {\"In\": 1}, \"2\": {\"In\": 1}, \"3\": {\"In\": 1}, \"4\": {\"In\": 1}, \"5\": {\"In\": 1}, \"6\": {\"In\": 1}, \"7\": {\"In\": 1}, \"8\": {\"In\": 1}, \"9\": {\"In\": 1}, \"10\": {\"In\": 1}, \"11\": {\"In\": 1}, \"12\": {\"In\": 1}, \"13\": {\"In\": 1}, \"14\": {\"In\": 1}, \"15\": {\"In\": 1}, \"16\": {\"O\": 1}, \"17\": {\"O\": 1}, \"18\": {\"O\": 1}, \"19\": {\"O\": 1}, \"20\": {\"O\": 1}, \"21\": {\"O\": 1}, \"22\": {\"O\": 1}, \"23\": {\"O\": 1}, \"24\": {\"O\": 1}, \"25\": {\"O\": 1}, \"26\": {\"O\": 1}, \"27\": {\"O\": 1}, \"28\": {\"O\": 1}, \"29\": {\"O\": 1}, \"30\": {\"O\": 1}, \"31\": {\"O\": 1}, \"32\": {\"O\": 1}, \"33\": {\"O\": 1}, \"34\": {\"O\": 1}, \"35\": {\"O\": 1}, \"36\": {\"O\": 1}, \"37\": {\"O\": 1}, \"38\": {\"O\": 1}, \"39\": {\"O\": 1}}" n_minim_iter=1 energy=-45150.005080593306 stress="0.023992918781235807 -7.84307653127872e-12 2.343043258246761e-12 -7.84307653127872e-12 0.023992918758866028 -6.3822861589329186e-12 2.343043258246761e-12 -6.3822861589329186e-12 0.02399291878457106" free_energy=-45150.005080593306 pbc="T T T"
In      -4.49274479       3.17685031       5.86568422        0      -0.01835332       0.01297776      -0.02247814
In       7.58676342       1.19875281       1.71308268        1       0.01835332      -0.01297776       0.02247814
In       1.39872615      -0.98904874       5.50246613        2       0.01835332      -0.01297776       0.02247814
In      -1.54700932      -2.18780156       3.78938345        3       0.00000000       0.00000000       0.00000000
In      -1.39872615       4.27075109       3.60777441        4      -0.01835332       0.01297776       0.02247814
In       4.78931111      -3.07199827       5.68407518        5      -0.01835332      -0.02595552       0.00000000
In      -1.39872615       1.30360484       5.68407518        6      -0.01835332      -0.02595552       0.00000000
In      -1.69529248       7.44760139       1.89469172        7       0.01835332       0.02595552      -0.00000000
In       4.49274478       0.10485203       3.97099250        8       0.01835332      -0.01297776      -0.02247814
In      -1.54700932       4.37560312      -0.00000000        9      -0.00000000       0.00000000       0.00000000
In       4.49274478       6.66825670       0.18160904       10       0.01835332      -0.01297776      -0.02247814
In      -1.39872615      -2.29265359       7.39715786       11      -0.01835332       0.01297776       0.02247814
In       4.49274478       3.07199828       1.89469172       12       0.01835332       0.02595552       0.00000000
In       1.69529248       5.36465186       2.07630077       13      -0.01835332       0.01297776      -0.02247814
In       4.64102795       0.00000000      -0.00000000       14       0.00000000       0.00000000       0.00000000
In       1.54700932       2.18780156       3.78938345       15      -0.00000000      -0.00000000      -0.00000000
O        0.81062844       4.36715749       4.12188676       16      -0.02589738       0.02284427      -0.00906384
O       -2.28339019       3.57388146       5.52513765       17      -0.02589738      -0.01927165      -0.01525179
O       -0.49362356       2.30832533       0.13837825       18      -0.00526417      -0.03386154       0.01001863
O       -0.81062844      -0.81016728       2.06825750       19       0.02589738       0.00357261      -0.02431564
O        4.13061781       5.26566312       1.92987925       20      -0.00953703       0.00221164      -0.03433427
O        2.05741945       3.14930866       1.73575419       21       0.00953703       0.03084017      -0.01525179
O        2.05741945       6.49195757       0.19412505       22       0.00953703      -0.02862852      -0.01908247
O       -2.34085118       6.25935565       3.92776170       23       0.03017024       0.01625028       0.01001863
O        3.58764219       2.06727779       7.44038865       24       0.00526417       0.03386154      -0.01001863
O        5.43486981      -1.88375253       3.65100520       25      -0.03017024      -0.01625028      -0.01001863
O        6.68166082       3.46180331       1.85950420       26       0.00526417      -0.00825438       0.03433427
O        3.84718609       2.45966516       3.98350851       27       0.03017024       0.00055125      -0.01908247
O        0.75316745       4.40778855       7.24626360       28       0.03017024      -0.01680153       0.00906384
O        2.34085118      -0.03218543       0.33250331       29      -0.03017024       0.01680153      -0.00906384
O       -3.58764219       0.91379981       5.71926270       30      -0.00526417       0.00825438      -0.03433427
O        5.37740882       0.80172166       2.05362926       31       0.02589738       0.01927165       0.01525179
O        1.03659918       1.22629446       5.84301271       32      -0.00953703      -0.03084017       0.01525179
O        3.58764219      -1.15347797       5.85764096       33       0.00526417      -0.02560716      -0.02431564
O        2.28339019       0.00844562       3.45688014       34       0.02589738      -0.02284427       0.00906384
O        1.03659918      -2.11635445       7.38464185       35      -0.00953703       0.02862852       0.01908247
O       -0.75316746       1.91593796       3.59525840       36      -0.03017024      -0.00055125       0.01908247
O       -1.03659918      -0.89006000       5.64888765       37       0.00953703      -0.00221164       0.03433427
O       -0.49362356       5.52908109       1.72112595       38      -0.00526417       0.02560716       0.02431564
O        3.90464707       5.18577039       5.51050940       39      -0.02589738      -0.00357261       0.02431564
40
Lattice="9.282055901690079 7.275002822382251e-10 1.554312234475219e-14 -3.094018634582587 8.751206228341061 -1.260084481202739e-09 -3.094018633553759 -4.375603113443018 7.578766908340005" Properties=species:S:1:pos:R:3:spacegroup_kinds:I:1:forces:R:3 spacegroup="P 1" unit_cell=conventional occupancy="_JSON {\"0\": {\"In\": 1}, \"1\": {\"In\": 1}, \"2\": {\"In\": 1}, \"3\": {\"In\": 1}, \"4\": {\"In\": 1}, \"5\": {\"In\": 1}, \"6\": {\"In\": 1}, \"7\": {\"In\": 1}, \"8\": {\"In\": 1}, \"9\": {\"In\": 1}, \"10\": {\"In\": 1}, \"11\": {\"In\": 1}, \"12\": {\"In\": 1}, \"13\": {\"In\": 1}, \"14\": {\"In\": 1}, \"15\": {\"In\": 1}, \"16\": {\"O\": 1}, \"17\": {\"O\": 1}, \"18\": {\"O\": 1}, \"19\": {\"O\": 1}, \"20\": {\"O\": 1}, \"21\": {\"O\": 1}, \"22\": {\"O\": 1}, \"23\": {\"O\": 1}, \"24\": {\"O\": 1}, \"25\": {\"O\": 1}, \"26\": {\"O\": 1}, \"27\": {\"O\": 1}, \"28\": {\"O\": 1}, \"29\": {\"O\": 1}, \"30\": {\"O\": 1}, \"31\": {\"O\": 1}, \"32\": {\"O\": 1}, \"33\": {\"O\": 1}, \"34\": {\"O\": 1}, \"35\": {\"O\": 1}, \"36\": {\"O\": 1}, \"37\": {\"O\": 1}, \"38\": {\"O\": 1}, \"39\": {\"O\": 1}}" n_minim_iter=2 energy=-45150.00722423338 stress="0.023847242356661046 -3.448763182930906e-12 1.6982891880124997e-12 -3.448763182930906e-12 0.023847242367574566 -4.401793981012751e-12 1.6982891880124997e-12 -4.401793981012751e-12 0.023847242358437718" free_energy=-45150.00722423338 pbc="T T T"
In      -4.49405574       3.17777729       5.86407864        0      -0.01101583       0.00778937      -0.01349158
In       7.58807437       1.19782583       1.71468826        1       0.01101583      -0.00778937       0.01349158
In       1.40003710      -0.98997573       5.50407171        2       0.01101583      -0.00778937       0.01349158
In      -1.54700932      -2.18780156       3.78938345        3      -0.00000000      -0.00000000      -0.00000000
In      -1.40003711       4.27167807       3.60937999        4      -0.01101583       0.00778937       0.01349158
In       4.78800016      -3.07385224       5.68407518        5      -0.01101583      -0.01557873       0.00000000
In      -1.40003711       1.30175088       5.68407518        6      -0.01101583      -0.01557873       0.00000000
In      -1.69398153       7.44945535       1.89469172        7       0.01101583       0.01557873       0.00000000
In       4.49405574       0.10392505       3.96938692        8       0.01101583      -0.00778937      -0.01349158
In      -1.54700932       4.37560312      -0.00000000        9       0.00000000       0.00000000      -0.00000000
In       4.49405574       6.66732972       0.18000346       10       0.01101583      -0.00778937      -0.01349158
In      -1.40003711      -2.29172660       7.39876344       11      -0.01101583       0.00778937       0.01349158
In       4.49405574       3.07385224       1.89469172       12       0.01101583       0.01557873      -0.00000000
In       1.69398153       5.36557885       2.07469519       13      -0.01101583       0.00778937      -0.01349158
In       4.64102795       0.00000000      -0.00000000       14       0.00000000       0.00000000      -0.00000000
In       1.54700932       2.18780156       3.78938345       15       0.00000000      -0.00000000      -0.00000000
O        0.80877863       4.36878923       4.12123934       16      -0.01941895      -0.00736543      -0.00907792
O       -2.28524001       3.57250491       5.52404823       17      -0.01941895      -0.00417899       0.01091761
O       -0.49399957       2.30590665       0.13909387       18      -0.01735717      -0.00563689       0.01344276
O       -0.80877863      -0.80991209       2.06652067       19       0.01941895      -0.01154442       0.00183969
O        4.12993660       5.26582109       1.92742680       20       0.00253299       0.01930560      -0.01160307
O        2.05810067       3.15151153       1.73466478       21      -0.00253299       0.01970136       0.01091761
O        2.05810067       6.48991268       0.19276202       22      -0.00253299      -0.00039575      -0.02252068
O       -2.33869616       6.26051638       3.92847732       23      -0.00047121       0.01824346       0.01344276
O        3.58801820       2.06969647       7.43967304       24       0.01735717       0.00563689      -0.01344276
O        5.43271479      -1.88491326       3.65028958       25       0.00047121      -0.01824346      -0.01344276
O        6.68203683       3.46121371       1.86195665       26       0.01735717       0.00882333       0.01160307
O        3.84934110       2.45970453       3.98214547       27      -0.00047121       0.00252004      -0.02252068
O        0.75532247       4.40658844       7.24691101       28      -0.00047121      -0.02076350       0.00907792
O        2.33869616      -0.03098532       0.33185589       29       0.00047121       0.02076350      -0.00907792
O       -3.58801820       0.91438941       5.71681025       30      -0.01735717      -0.00882333      -0.01160307
O        5.37925864       0.80309820       2.05471867       31       0.01941895       0.00417899      -0.01091761
O        1.03591796       1.22409159       5.84410212       32       0.00253299      -0.01970136      -0.01091761
O        3.58801820      -1.15530705       5.85590412       33       0.01735717      -0.01446022       0.00183969
O        2.28524000       0.00681389       3.45752756       34       0.01941895       0.00736543       0.00907792
O        1.03591796      -2.11430956       7.38600488       35       0.00253299       0.00039575       0.02252068
O       -0.75532247       1.91589859       3.59662143       36       0.00047121      -0.00252004       0.02252068
O       -1.03591797      -0.89021797       5.65134010       37      -0.00253299      -0.01930560       0.01160307
O       -0.49399957       5.53091017       1.72286278       38      -0.01735717       0.01446022      -0.00183969
O        3.90279726       5.18551521       5.51224623       39      -0.01941895       0.01154442      -0.00183969
40
Lattice="9.28205590169008 7.275002822382256e-10 1.5543122344752195e-14 -3.094018634582589 8.751206228341063 -1.2600844812027396e-09 -3.0940186335537607 -4.375603113443019 7.578766908340008" Properties=species:S:1:pos:R:3:spacegroup_kinds:I:1:forces:R:3 spacegroup="P 1" unit_cell=conventional occupancy="_JSON {\"0\": {\"In\": 1}, \"1\": {\"In\": 1}, \"2\": {\"In\": 1}, \"3\": {\"In\": 1}, \"4\": {\"In\": 1}, \"5\": {\"In\": 1}, \"6\": {\"In\": 1}, \"7\": {\"In\": 1}, \"8\": {\"In\": 1}, \"9\": {\"In\": 1}, \"10\": {\"In\": 1}, \"11\": {\"In\": 1}, \"12\": {\"In\": 1}, \"13\": {\"In\": 1}, \"14\": {\"In\": 1}, \"15\": {\"In\": 1}, \"16\": {\"O\": 1}, \"17\": {\"O\": 1}, \"18\": {\"O\": 1}, \"19\": {\"O\": 1}, \"20\": {\"O\": 1}, \"21\": {\"O\": 1}, \"22\": {\"O\": 1}, \"23\": {\"O\": 1}, \"24\": {\"O\": 1}, \"25\": {\"O\": 1}, \"26\": {\"O\": 1}, \"27\": {\"O\": 1}, \"28\": {\"O\": 1}, \"29\": {\"O\": 1}, \"30\": {\"O\": 1}, \"31\": {\"O\": 1}, \"32\": {\"O\": 1}, \"33\": {\"O\": 1}, \"34\": {\"O\": 1}, \"35\": {\"O\": 1}, \"36\": {\"O\": 1}, \"37\": {\"O\": 1}, \"38\": {\"O\": 1}, \"39\": {\"O\": 1}}" n_minim_iter=3 energy=-45150.00801489987 stress="0.023745918253348437 -2.394686494759879e-12 3.65916319035712e-12 -2.394686494759879e-12 0.023745918254476438 1.6155542563852696e-12 3.65916319035712e-12 1.6155542563852696e-12 0.023745918256381327" free_energy=-45150.00801489987 pbc="T T T"
In      -4.49520080       3.17858697       5.86267624        0      -0.00648501       0.00458559      -0.00794248
In       7.58921943       1.19701615       1.71609066        1       0.00648501      -0.00458560       0.00794248
In       1.40118216      -0.99078540       5.50547412        2       0.00648501      -0.00458560       0.00794248
In      -1.54700932      -2.18780156       3.78938345        3       0.00000000      -0.00000000       0.00000000
In      -1.40118216       4.27248774       3.61078239        4      -0.00648501       0.00458559       0.00794248
In       4.78685511      -3.07547159       5.68407518        5      -0.00648501      -0.00917119       0.00000000
In      -1.40118216       1.30013152       5.68407518        6      -0.00648501      -0.00917119       0.00000000
In      -1.69283648       7.45107471       1.89469172        7       0.00648501       0.00917119       0.00000000
In       4.49520079       0.10311537       3.96798451        8       0.00648501      -0.00458559      -0.00794248
In      -1.54700932       4.37560312      -0.00000000        9       0.00000000       0.00000000      -0.00000000
In       4.49520079       6.66652005       0.17860106       10       0.00648501      -0.00458559      -0.00794248
In      -1.40118216      -2.29091693       7.40016584       11      -0.00648501       0.00458559       0.00794248
In       4.49520079       3.07547159       1.89469172       12       0.00648501       0.00917119       0.00000000
In       1.69283647       5.36638852       2.07329279       13      -0.00648501       0.00458559      -0.00794248
In       4.64102795       0.00000000      -0.00000000       14      -0.00000000       0.00000000       0.00000000
In       1.54700932       2.18780156       3.78938345       15       0.00000000       0.00000000      -0.00000000
O        0.80706992       4.36970876       4.12058657       16      -0.01314490      -0.02565216      -0.00703662
O       -2.28694871       3.57147983       5.52357828       17      -0.01314490       0.00673219       0.02573373
O       -0.49466865       2.30414645       0.13989719       18      -0.02221955       0.01314894       0.01461959
O       -0.80706993      -0.81001764       2.06539795       19       0.01314490      -0.01891997       0.01869711
O        4.12953971       5.26639044       1.92550076       20       0.01072880       0.02736060       0.00407752
O        2.05849755       3.15346420       1.73419483       21      -0.01072880       0.01014907       0.02573373
O        2.05849755       6.48852935       0.19130593       22      -0.01072880       0.01721153      -0.02165622
O       -2.33725965       6.26173393       3.92928064       23      -0.01980346       0.01656582       0.01461959
O        3.58868728       2.07145667       7.43886972       24       0.02221955      -0.01314894      -0.01461959
O        5.43127828      -1.88613082       3.64948626       25       0.01980346      -0.01656582      -0.01461959
O        6.68270592       3.46102930       1.86388269       26       0.02221955       0.01923541      -0.00407752
O        3.85077761       2.45979145       3.98068938       27      -0.01980346       0.00437803      -0.02165622
O        0.75675898       4.40528397       7.24756379       28      -0.01980346      -0.02094385       0.00703662
O        2.33725965      -0.02968085       0.33120312       29       0.01980346       0.02094385      -0.00703662
O       -3.58868729       0.91457382       5.71488421       30      -0.02221955      -0.01923541       0.00407752
O        5.38096734       0.80412329       2.05518862       31       0.01314490      -0.00673219      -0.02573373
O        1.03552108       1.22213891       5.84457207       32       0.01072880      -0.01014907      -0.02573373
O        3.58868728      -1.15688285       5.85478140       33       0.02221955      -0.00608647       0.01869711
O        2.28694871       0.00589436       3.45818033       34       0.01314490       0.02565216       0.00703662
O        1.03552108      -2.11292623       7.38746098       35       0.01072880      -0.01721153       0.02165622
O       -0.75675898       1.91581167       3.59807752       36       0.01980346      -0.00437803       0.02165622
O       -1.03552108      -0.89078732       5.65326614       37      -0.01072880      -0.02736060      -0.00407752
O       -0.49466865       5.53248597       1.72398550       38      -0.02221955       0.00608647      -0.01869711
O        3.90108856       5.18562076       5.51336895       39      -0.01314490       0.01891997      -0.01869711
40
Lattice="9.282055901690086 7.275002822382258e-10 1.5543122344752188e-14 -3.0940186345825897 8.751206228341063 -1.2600844812027398e-09 -3.0940186335537616 -4.375603113443019 7.578766908340012" Properties=species:S:1:pos:R:3:spacegroup_kinds:I:1:forces:R:3 spacegroup="P 1" unit_cell=conventional occupancy="_JSON {\"0\": {\"In\": 1}, \"1\": {\"In\": 1}, \"2\": {\"In\": 1}, \"3\": {\"In\": 1}, \"4\": {\"In\": 1}, \"5\": {\"In\": 1}, \"6\": {\"In\": 1}, \"7\": {\"In\": 1}, \"8\": {\"In\": 1}, \"9\": {\"In\": 1}, \"10\": {\"In\": 1}, \"11\": {\"In\": 1}, \"12\": {\"In\": 1}, \"13\": {\"In\": 1}, \"14\": {\"In\": 1}, \"15\": {\"In\": 1}, \"16\": {\"O\": 1}, \"17\": {\"O\": 1}, \"18\": {\"O\": 1}, \"19\": {\"O\": 1}, \"20\": {\"O\": 1}, \"21\": {\"O\": 1}, \"22\": {\"O\": 1}, \"23\": {\"O\": 1}, \"24\": {\"O\": 1}, \"25\": {\"O\": 1}, \"26\": {\"O\": 1}, \"27\": {\"O\": 1}, \"28\": {\"O\": 1}, \"29\": {\"O\": 1}, \"30\": {\"O\": 1}, \"31\": {\"O\": 1}, \"32\": {\"O\": 1}, \"33\": {\"O\": 1}, \"34\": {\"O\": 1}, \"35\": {\"O\": 1}, \"36\": {\"O\": 1}, \"37\": {\"O\": 1}, \"38\": {\"O\": 1}, \"39\": {\"O\": 1}}" n_minim_iter=4 energy=-45150.00886143985 stress="0.02363669887575599 -1.3419151300996704e-13 -2.2331005009623122e-13 -1.3419151300996704e-13 0.023636698871655416 2.2808693360323944e-12 -2.2331005009623122e-13 2.2808693360323944e-12 0.02363669887598802" free_energy=-45150.00886143985 pbc="T T T"
In      -4.49739951       3.18014169       5.85998338        0      -0.00284931       0.00201477      -0.00348968
In       7.59141814       1.19546143       1.71878353        1       0.00284931      -0.00201477       0.00348968
In       1.40338087      -0.99234013       5.50816698        2       0.00284931      -0.00201477       0.00348968
In      -1.54700932      -2.18780156       3.78938345        3      -0.00000000       0.00000000      -0.00000000
In      -1.40338088       4.27404247       3.61347525        4      -0.00284931       0.00201477       0.00348968
In       4.78465639      -3.07858104       5.68407518        5      -0.00284931      -0.00402954      -0.00000000
In      -1.40338088       1.29702207       5.68407518        6      -0.00284931      -0.00402954       0.00000000
In      -1.69063776       7.45418416       1.89469172        7       0.00284931       0.00402954      -0.00000000
In       4.49739951       0.10156065       3.96529165        8       0.00284931      -0.00201477      -0.00348968
In      -1.54700932       4.37560312      -0.00000000        9       0.00000000      -0.00000000      -0.00000000
In       4.49739951       6.66496532       0.17590820       10       0.00284931      -0.00201477      -0.00348968
In      -1.40338088      -2.28936220       7.40285871       11      -0.00284931       0.00201477       0.00348968
In       4.49739951       3.07858105       1.89469172       12       0.00284931       0.00402954       0.00000000
In       1.69063776       5.36794325       2.07059992       13      -0.00284931       0.00201477      -0.00348968
In       4.64102795       0.00000000      -0.00000000       14      -0.00000000       0.00000000       0.00000000
In       1.54700932       2.18780156       3.78938345       15       0.00000000      -0.00000000      -0.00000000
O        0.80363428       4.36992299       4.11918298       16      -0.00008738      -0.03601615       0.00204463
O       -2.29038436       3.57015717       5.52409454       17      -0.00008738       0.01977878       0.03016858
O       -0.49685890       2.30194316       0.14193874       18      -0.01533786       0.03056250       0.01149063
O       -0.80363428      -0.81112607       2.06451062       19       0.00008738      -0.01623737       0.03221321
O        4.12943791       5.26867756       1.92257187       20       0.01867674       0.02287149       0.02072259
O        2.05859936       3.15714425       1.73471109       21      -0.01867674      -0.00651054       0.03016858
O        2.05859936       6.48713642       0.18786078       22      -0.01867674       0.02938203      -0.00944599
O       -2.33591245       6.26453335       3.93132219       23      -0.03392722       0.00427318       0.01149063
O        3.59087753       2.07365996       7.43682816       24       0.01533786      -0.03056250      -0.01149063
O        5.42993108      -1.88893023       3.64744471       25       0.03392722      -0.00427318      -0.01149063
O        6.68489617       3.46169569       1.86681157       26       0.01533786       0.02523243      -0.02072259
O        3.85212481       2.46015978       3.97724424       27      -0.03392722       0.00781459      -0.00944599
O        0.75810618       4.40211622       7.24896738       28      -0.03392722      -0.01208776      -0.00204463
O        2.33591245      -0.02651310       0.32979953       29       0.03392722       0.01208776       0.00204463
O       -3.59087754       0.91390742       5.71195533       30      -0.01533786      -0.02523243       0.02072259
O        5.38440299       0.80544595       2.05467236       31       0.00008738      -0.01977878      -0.03016858
O        1.03541927       1.21845887       5.84405581       32       0.01867674       0.00651054      -0.03016858
O        3.59087753      -1.15975253       5.85389407       33       0.01533786       0.00533007       0.03221321
O        2.29038435       0.00568012       3.45958392       34       0.00008738       0.03601615      -0.00204463
O        1.03541927      -2.11153330       7.39090612       35       0.01867674      -0.02938203       0.00944599
O       -0.75810618       1.91544334       3.60152267       36       0.03392722      -0.00781459       0.00944599
O       -1.03541928      -0.89307444       5.65619503       37      -0.01867674      -0.02287149      -0.02072259
O       -0.49685890       5.53535565       1.72487283       38      -0.01533786      -0.00533007      -0.03221321
O        3.89765291       5.18672919       5.51425628       39      -0.00008738       0.01623737      -0.03221321
40
Lattice="9.282055901690084 7.275002822382257e-10 1.5543122344752188e-14 -3.0940186345825893 8.751206228341061 -1.2600844812027398e-09 -3.094018633553761 -4.375603113443018 7.578766908340011" Properties=species:S:1:pos:R:3:spacegroup_kinds:I:1:forces:R:3 spacegroup="P 1" unit_cell=conventional occupancy="_JSON {\"0\": {\"In\": 1}, \"1\": {\"In\": 1}, \"2\": {\"In\": 1}, \"3\": {\"In\": 1}, \"4\": {\"In\": 1}, \"5\": {\"In\": 1}, \"6\": {\"In\": 1}, \"7\": {\"In\": 1}, \"8\": {\"In\": 1}, \"9\": {\"In\": 1}, \"10\": {\"In\": 1}, \"11\": {\"In\": 1}, \"12\": {\"In\": 1}, \"13\": {\"In\": 1}, \"14\": {\"In\": 1}, \"15\": {\"In\": 1}, \"16\": {\"O\": 1}, \"17\": {\"O\": 1}, \"18\": {\"O\": 1}, \"19\": {\"O\": 1}, \"20\": {\"O\": 1}, \"21\": {\"O\": 1}, \"22\": {\"O\": 1}, \"23\": {\"O\": 1}, \"24\": {\"O\": 1}, \"25\": {\"O\": 1}, \"26\": {\"O\": 1}, \"27\": {\"O\": 1}, \"28\": {\"O\": 1}, \"29\": {\"O\": 1}, \"30\": {\"O\": 1}, \"31\": {\"O\": 1}, \"32\": {\"O\": 1}, \"33\": {\"O\": 1}, \"34\": {\"O\": 1}, \"35\": {\"O\": 1}, \"36\": {\"O\": 1}, \"37\": {\"O\": 1}, \"38\": {\"O\": 1}, \"39\": {\"O\": 1}}" n_minim_iter=5 energy=-45150.009949785825 stress="0.023738011994618897 -1.3074230654364462e-12 -4.210799975480049e-12 -1.3074230654364462e-12 0.023738012004743583 -2.819503291949488e-13 -4.210799975480049e-12 -2.819503291949488e-13 0.023738012003881332" free_energy=-45150.009949785825 pbc="T T T"
In      -4.49815019       3.18067251       5.85906398        0      -0.00836587       0.00591556      -0.01024606
In       7.59216882       1.19493061       1.71970292        1       0.00836587      -0.00591556       0.01024606
In       1.40413156      -0.99287094       5.50908638        2       0.00836587      -0.00591556       0.01024606
In      -1.54700932      -2.18780156       3.78938345        3       0.00000000       0.00000000      -0.00000000
In      -1.40413156       4.27457328       3.61439465        4      -0.00836587       0.00591556       0.01024606
In       4.78390571      -3.07964267       5.68407518        5      -0.00836587      -0.01183113       0.00000000
In      -1.40413156       1.29596044       5.68407518        6      -0.00836587      -0.01183113       0.00000000
In      -1.68988708       7.45524579       1.89469172        7       0.00836587       0.01183113       0.00000000
In       4.49815019       0.10102983       3.96437225        8       0.00836587      -0.00591556      -0.01024606
In      -1.54700932       4.37560312      -0.00000000        9       0.00000000       0.00000000      -0.00000000
In       4.49815019       6.66443451       0.17498880       10       0.00836587      -0.00591556      -0.01024606
In      -1.40413156      -2.28883139       7.40377810       11      -0.00836587       0.00591556       0.01024606
In       4.49815019       3.07964267       1.89469172       12       0.00836587       0.01183113       0.00000000
In       1.68988707       5.36847406       2.06968053       13      -0.00836587       0.00591556      -0.01024606
In       4.64102795       0.00000000      -0.00000000       14       0.00000000       0.00000000      -0.00000000
In       1.54700932       2.18780156       3.78938345       15      -0.00000000      -0.00000000      -0.00000000
O        0.80251086       4.36746892       4.11873851       16       0.00336443       0.00041788       0.01077728
O       -2.29150778       3.57099929       5.52644207       17       0.00336443       0.00912446      -0.00575054
O       -0.49875314       2.30333033       0.14334221       18       0.01011808       0.00434891       0.00252096
O       -0.80251086      -0.81273803       2.06641368       19      -0.00336443       0.00954234       0.00502674
O        4.13060634       5.27109981       1.92307147       20       0.00748114      -0.00808686       0.00250578
O        2.05743092       3.15792271       1.73705862       21      -0.00748114      -0.00621350      -0.00575054
O        2.05743092       6.48878021       0.18601285       22      -0.00748114      -0.00187336       0.00825632
O       -2.33785171       6.26585687       3.93272566       23      -0.00072749      -0.01098906       0.00252096
O        3.59277177       2.07227279       7.43542469       24      -0.01011808      -0.00434891      -0.00252096
O        5.43187034      -1.89025375       3.64604124       25       0.00072749       0.01098906      -0.00252096
O        6.68679041       3.46360472       1.86631198       26      -0.01011808       0.00435767      -0.00250578
O        3.85018556       2.46071346       3.97539630       27      -0.00072749       0.00767774       0.00825632
O        0.75616693       4.40023902       7.24941184       28      -0.00072749       0.00331131      -0.01077728
O        2.33785170      -0.02463590       0.32935506       29       0.00072749      -0.00331131       0.01077728
O       -3.59277178       0.91199840       5.71245492       30       0.01011808      -0.00435767       0.00250578
O        5.38552641       0.80460383       2.05232483       31      -0.00336443      -0.00912446       0.00575054
O        1.03658771       1.21768040       5.84170829       32       0.00748114       0.00621350       0.00575054
O        3.59277177      -1.16027439       5.85579713       33      -0.01011808      -0.00000876       0.00502674
O        2.29150777       0.00813420       3.46002839       34      -0.00336443      -0.00041788      -0.01077728
O        1.03658771      -2.11317709       7.39275405       35       0.00748114       0.00187336      -0.00825632
O       -0.75616693       1.91488966       3.60337060       36       0.00072749      -0.00767774      -0.00825632
O       -1.03658771      -0.89549669       5.65569543       37      -0.00748114       0.00808686      -0.00250578
O       -0.49875314       5.53587751       1.72296977       38       0.01011808       0.00000876      -0.00502674
O        3.89652949       5.18834114       5.51235322       39       0.00336443      -0.00954234      -0.00502674
40