40
Lattice="9.54931094473087 7.484488152445267e-10 1.2520255743530928e-14 -3.18310364894927 9.003176699321337 -1.2963705315887166e-09 -3.183103647890814 -4.501588348912206 7.796979737236652" Properties=species:S:1:pos:R:3:spacegroup_kinds:I:1:forces:R:3 spacegroup="P 1" unit_cell=conventional occupancy="_JSON {\"0\": {\"In\": 1}, \"1\": {\"In\": 1}, \"2\": {\"In\": 1}, \"3\": {\"In\": 1}, \"4\": {\"In\": 1}, \"5\": {\"In\": 1}, \"6\": {\"In\": 1}, \"7\": {\"In\": 1}, \"8\": {\"In\": 1}, \"9\": {\"In\": 1}, \"10\": {\"In\": 1}, \"11\": {\"In\": 1}, \"12\": {\"In\": 1}, \"13\": {\"In\": 1}, \"14\": {\"In\": 1}, \"15\": {\"In\": 1}, \"16\": {\"O\": 1}, \"17\": {\"O\": 1}, \"18\": {\"O\": 1}, \"19\": {\"O\": 1}, \"20\": {\"O\": 1}, \"21\": {\"O\": 1}, \"22\": {\"O\": 1}, \"23\": {\"O\": 1}, \"24\": {\"O\": 1}, \"25\": {\"O\": 1}, \"26\": {\"O\": 1}, \"27\": {\"O\": 1}, \"28\": {\"O\": 1}, \"29\": {\"O\": 1}, \"30\": {\"O\": 1}, \"31\": {\"O\": 1}, \"32\": {\"O\": 1}, \"33\": {\"O\": 1}, \"34\": {\"O\": 1}, \"35\": {\"O\": 1}, \"36\": {\"O\": 1}, \"37\": {\"O\": 1}, \"38\": {\"O\": 1}, \"39\": {\"O\": 1}}" n_minim_iter=3 energy=-45148.579945150996 stress="0.05317226470773275 -2.622634767045849e-13 4.462408498801484e-12 -2.622634767045849e-13 0.053172264709318906 -9.274967820177232e-13 4.462408498801484e-12 -9.274967820177232e-13 0.05317226470711098" free_energy=-45148.579945150996 pbc="T T T"
In      -4.62052675       3.26720580       6.03650316        0       0.00087317      -0.00061742       0.00106941
In       7.80363039       1.23438256       1.76047657        1      -0.00087317       0.00061742      -0.00106941
In       1.43742310      -1.01641162       5.65896644        2      -0.00087317       0.00061742      -0.00106941
In      -1.59155183      -2.25079417       3.89848987        3      -0.00000000       0.00000000       0.00000000
In      -1.43742310       4.39260289       3.70972150        4       0.00087317      -0.00061742      -0.00106941
In       4.92878420      -3.15822033       5.84773480        5       0.00087317       0.00123484      -0.00000000
In      -1.43742310       1.34336802       5.84773480        6       0.00087317       0.00123485       0.00000000
In      -1.74568055       7.65980868       1.94924493        7      -0.00087317      -0.00123484       0.00000000
In       4.62052675       0.10898547       4.08725823        8      -0.00087317       0.00061742       0.00106941
In      -1.59155183       4.50158835      -0.00000000        9       0.00000000       0.00000000      -0.00000000
In       4.62052675       6.86136799       0.18876836       10      -0.00087317       0.00061742       0.00106941
In      -1.43742310      -2.35977964       7.60821137       11       0.00087317      -0.00061742      -0.00106941
In       4.62052675       3.15822033       1.94924493       12      -0.00087317      -0.00123485       0.00000000
In       1.74568055       5.51799997       2.13801330       13       0.00087317      -0.00061742       0.00106941
In       4.77465547       0.00000000      -0.00000000       14       0.00000000      -0.00000000      -0.00000000
In       1.59155182       2.25079418       3.89848987       15       0.00000000       0.00000000      -0.00000000
O        0.83250595       4.49778436       4.23248427       16       0.00653991       0.00660475      -0.00031322
O       -2.35059770       3.66734090       5.68403195       17       0.00653991      -0.00357363      -0.00556327
O       -0.51262049       2.36769476       0.13810537       18       0.00503773      -0.00251143      -0.00740306
O       -0.83250595      -0.83805144       2.11953649       19      -0.00653991       0.00303111      -0.00587649
O        4.24113472       5.41937496       1.98143112       20      -0.00554922      -0.00730527       0.00152657
O        2.12507257       3.24451197       1.78554208       21       0.00554922      -0.00497468      -0.00556327
O        2.12507257       6.67645135       0.19588904       22       0.00554922      -0.00233059       0.00708983
O       -2.40315752       6.44645417       4.03659523       23       0.00404704      -0.00391248      -0.00740306
O        3.69572414       2.13389360       7.65887436       24      -0.00503773       0.00251143       0.00740306
O        5.58626117      -1.94486582       3.76038450       25      -0.00404704       0.00391248       0.00740306
O        6.87882778       3.55424431       1.91705874       26      -0.00503773      -0.00766695      -0.00152656
O        3.96304977       2.52336111       4.09437891       27       0.00404704      -0.00445500       0.00708983
O        0.77994613       4.53494977       7.46298532       28       0.00404704       0.00836747       0.00031322
O        2.40315752      -0.03336142       0.33399441       29      -0.00404704      -0.00836747      -0.00031322
O       -3.69572414       0.94734404       5.87992099       30       0.00503773       0.00766695       0.00152656
O        5.53370134       0.83424745       2.11294778       31      -0.00653991       0.00357363       0.00556327
O        1.05803107       1.25707638       6.01143765       32      -0.00554922       0.00497468       0.00556327
O        3.69572414      -1.18654955       6.01802636       33      -0.00503773       0.00515552      -0.00587649
O        2.35059769       0.00380399       3.56449546       34      -0.00653991      -0.00660475       0.00031322
O        1.05803108      -2.17486299       7.60109069       35      -0.00554922       0.00233059      -0.00708983
O       -0.77994613       1.97822724       3.70260083       36      -0.00404704       0.00445500      -0.00708983
O       -1.05803108      -0.91778661       5.81554861       37       0.00554922       0.00730527      -0.00152657
O       -0.51262049       5.68813791       1.77895337       38       0.00503773      -0.00515552       0.00587649
O        4.01560960       5.33963979       5.67744324       39       0.00653991      -0.00303111       0.00587649
