40
Lattice="8.773398860916657 6.876360870575769e-10 2.2013033204053012e-15 -2.9244662876205294 8.271639771248788 -1.1910160420266068e-09 -2.924466286648068 -4.13581988493676 7.163450173649173" Properties=species:S:1:pos:R:3:spacegroup_kinds:I:1:forces:R:3 spacegroup="P 1" unit_cell=conventional occupancy="_JSON {\"0\": {\"In\": 1}, \"1\": {\"In\": 1}, \"2\": {\"In\": 1}, \"3\": {\"In\": 1}, \"4\": {\"In\": 1}, \"5\": {\"In\": 1}, \"6\": {\"In\": 1}, \"7\": {\"In\": 1}, \"8\": {\"In\": 1}, \"9\": {\"In\": 1}, \"10\": {\"In\": 1}, \"11\": {\"In\": 1}, \"12\": {\"In\": 1}, \"13\": {\"In\": 1}, \"14\": {\"In\": 1}, \"15\": {\"In\": 1}, \"16\": {\"O\": 1}, \"17\": {\"O\": 1}, \"18\": {\"O\": 1}, \"19\": {\"O\": 1}, \"20\": {\"O\": 1}, \"21\": {\"O\": 1}, \"22\": {\"O\": 1}, \"23\": {\"O\": 1}, \"24\": {\"O\": 1}, \"25\": {\"O\": 1}, \"26\": {\"O\": 1}, \"27\": {\"O\": 1}, \"28\": {\"O\": 1}, \"29\": {\"O\": 1}, \"30\": {\"O\": 1}, \"31\": {\"O\": 1}, \"32\": {\"O\": 1}, \"33\": {\"O\": 1}, \"34\": {\"O\": 1}, \"35\": {\"O\": 1}, \"36\": {\"O\": 1}, \"37\": {\"O\": 1}, \"38\": {\"O\": 1}, \"39\": {\"O\": 1}}" n_minim_iter=6 energy=-45150.82875202489 stress="-0.018288941747191822 -4.548560167850158e-12 -5.417445210068087e-12 -4.548560167850158e-12 -0.018288941741948683 5.71825732804342e-12 -5.417445210068087e-12 5.71825732804342e-12 -0.01828894175248914" free_energy=-45150.82875202489 pbc="T T T"
In      -4.19504103       2.96634196       5.60732027        0       0.00237478      -0.00167922       0.00290850
In       7.11950732       1.16947793       1.55612990        1      -0.00237478       0.00167922      -0.00290850
In       1.27057474      -0.89843202       5.13785499        2      -0.00237478       0.00167922      -0.00290850
In      -1.46223314      -2.06790994       3.58172508        3       0.00000000      -0.00000000      -0.00000000
In      -1.27057475       4.00029694       3.34699244        4       0.00237478      -0.00167922      -0.00290850
In       4.57835783      -2.83081901       5.37258763        5       0.00237478       0.00335845      -0.00000000
In      -1.27057475       1.30500088       5.37258763        6       0.00237478       0.00335845       0.00000000
In      -1.65389154       6.96663890       1.79086254        7      -0.00237478      -0.00335845       0.00000000
In       4.19504103       0.13552295       3.81645772        8      -0.00237478       0.00167922       0.00290850
In      -1.46223315       4.13581989      -0.00000000        9      -0.00000000       0.00000000      -0.00000000
In       4.19504103       6.33925278       0.23473264       10      -0.00237478       0.00167922       0.00290850
In      -1.27057475      -2.20343289       6.92871753       11       0.00237478      -0.00167922      -0.00290850
In       4.19504103       2.83081901       1.79086254       12      -0.00237478      -0.00335845       0.00000000
In       1.65389154       5.03425191       2.02559518       13       0.00237478      -0.00167922       0.00290850
In       4.38669943       0.00000000      -0.00000000       14       0.00000000       0.00000000      -0.00000000
In       1.46223314       2.06790994       3.58172508       15      -0.00000000       0.00000000       0.00000000
O        0.86193239       4.13689139       3.88525064       16       0.00450282      -0.00196970       0.00258726
O       -2.06253390       3.36419001       5.21989690       17       0.00450282       0.00322549       0.00041218
O       -0.43917861       2.21630448       0.04464279       18       0.00268490       0.00451094      -0.00181430
O       -0.86193239      -0.77055838       1.94169737       19      -0.00450282       0.00125578       0.00299944
O        3.85930005       4.93215279       1.89705458       20       0.00154008      -0.00230327       0.00481374
O        1.98963252       2.89108888       1.63817182       21      -0.00154008      -0.00532046       0.00041218
O        1.98963252       6.17688380       0.25888276       22      -0.00154008       0.00301719       0.00440156
O       -2.23594477       5.87902324       3.62636787       23      -0.00335799      -0.00403500      -0.00181430
O        3.36364489       1.91951541       7.11880738       24      -0.00268490      -0.00451094       0.00181430
O        5.16041105      -1.74320335       3.53708229       25       0.00335799       0.00403500       0.00181430
O        6.28811118       3.21472397       1.68467050       26      -0.00268490       0.00068424      -0.00481374
O        3.61298781       2.26892503       3.84060785       27      -0.00335799       0.00044627       0.00440156
O        0.68852152       4.25951139       6.85992461       28      -0.00335799       0.00358873      -0.00258726
O        2.23594477      -0.12369150       0.30352555       29       0.00335799      -0.00358873       0.00258726
O       -3.36364490       0.92109592       5.47877967       30       0.00268490      -0.00068424       0.00481374
O        4.98700018       0.77162988       1.94355327       31      -0.00450282      -0.00322549      -0.00041218
O        0.93483376       1.24473101       5.52527835       32       0.00154008       0.00532046      -0.00041218
O        3.36364489      -0.99841949       5.52342246       33      -0.00268490       0.00382670       0.00299944
O        2.06253389      -0.00107150       3.27819953       34      -0.00450282       0.00196970      -0.00258726
O        0.93483376      -2.04106391       6.90456741       35       0.00154008      -0.00301719      -0.00440156
O       -0.68852152       1.86689486       3.32284232       36       0.00335799      -0.00044627      -0.00440156
O       -0.93483377      -0.79633290       5.26639559       37      -0.00154008       0.00230327      -0.00481374
O       -0.43917861       5.13423938       1.64002771       38       0.00268490      -0.00382670      -0.00299944
O        3.78639868       4.90637827       5.22175280       39       0.00450282      -0.00125578      -0.00299944
