40
Lattice="8.616697405250843 6.753535508607911e-10 7.993605777301119e-15 -2.872232469053677 8.12390022202208 -1.1697558477408167e-09 -2.872232468098591 -4.061950110335681 7.0355039708610025" Properties=species:S:1:pos:R:3:spacegroup_kinds:I:1:forces:R:3 spacegroup="P 1" unit_cell=conventional occupancy="_JSON {\"0\": {\"In\": 1}, \"1\": {\"In\": 1}, \"2\": {\"In\": 1}, \"3\": {\"In\": 1}, \"4\": {\"In\": 1}, \"5\": {\"In\": 1}, \"6\": {\"In\": 1}, \"7\": {\"In\": 1}, \"8\": {\"In\": 1}, \"9\": {\"In\": 1}, \"10\": {\"In\": 1}, \"11\": {\"In\": 1}, \"12\": {\"In\": 1}, \"13\": {\"In\": 1}, \"14\": {\"In\": 1}, \"15\": {\"In\": 1}, \"16\": {\"O\": 1}, \"17\": {\"O\": 1}, \"18\": {\"O\": 1}, \"19\": {\"O\": 1}, \"20\": {\"O\": 1}, \"21\": {\"O\": 1}, \"22\": {\"O\": 1}, \"23\": {\"O\": 1}, \"24\": {\"O\": 1}, \"25\": {\"O\": 1}, \"26\": {\"O\": 1}, \"27\": {\"O\": 1}, \"28\": {\"O\": 1}, \"29\": {\"O\": 1}, \"30\": {\"O\": 1}, \"31\": {\"O\": 1}, \"32\": {\"O\": 1}, \"33\": {\"O\": 1}, \"34\": {\"O\": 1}, \"35\": {\"O\": 1}, \"36\": {\"O\": 1}, \"37\": {\"O\": 1}, \"38\": {\"O\": 1}, \"39\": {\"O\": 1}}" n_minim_iter=7 energy=-45149.93708446746 stress="0.0038420592914685677 6.043519360623369e-12 1.0041927777047565e-11 6.043519360623369e-12 0.0038420593055639046 -3.3302084104110572e-12 1.0041927777047565e-11 -3.3302084104110572e-12 0.00384205929232803" free_energy=-45149.93708446746 pbc="T T T"
In      -4.20432346       2.97290563       5.40403236        0       0.00435445      -0.00307906       0.00533310
In       7.07655592       1.08904449       1.63147160        1      -0.00435445       0.00307906      -0.00533310
In       1.33209098      -0.94193057       5.14922359        2      -0.00435445       0.00307906      -0.00533310
In      -1.43611624      -2.03097505       3.51775198        3      -0.00000000       0.00000000      -0.00000000
In      -1.33209099       3.98839315       3.39034759        4       0.00435445      -0.00307906      -0.00533310
In       4.41237395      -2.89934866       5.27662798        5       0.00435445       0.00615813      -0.00000000
In      -1.33209099       1.16260145       5.27662798        6       0.00435445       0.00615813      -0.00000000
In      -1.54014148       6.96129878       1.75887599        7      -0.00435445      -0.00615813       0.00000000
In       4.20432345       0.07355696       3.64515637        8      -0.00435445       0.00307906       0.00533310
In      -1.43611624       4.06195011      -0.00000000        9      -0.00000000      -0.00000000       0.00000000
In       4.20432345       6.16648213       0.12740439       10      -0.00435445       0.00307906       0.00533310
In      -1.33209099      -2.10453201       6.90809958       11       0.00435445      -0.00307906      -0.00533310
In       4.20432345       2.89934867       1.75887599       12      -0.00435445      -0.00615813       0.00000000
In       1.54014148       5.00388068       1.88628038       13       0.00435445      -0.00307906       0.00533310
In       4.30834870       0.00000000      -0.00000000       14       0.00000000      -0.00000000      -0.00000000
In       1.43611623       2.03097506       3.51775198       15       0.00000000      -0.00000000       0.00000000
O        0.79196998       4.06017459       3.72465635       16      -0.00171530      -0.00780184      -0.00376974
O       -2.08026248       3.22653479       5.17471344       17      -0.00171530       0.00063623       0.00864146
O       -0.52532111       2.12702519       0.04361594       18      -0.00732756       0.00460470       0.00176786
O       -0.79196999      -0.83719085       1.86386582       19       0.00171530      -0.00716561       0.00487172
O        3.73542700       4.92432264       1.82024988       20       0.00117161       0.00818628       0.00310386
O        2.00903794       2.91675374       1.65696145       21      -0.00117161       0.00140512       0.00864146
O        2.00903794       6.06951901       0.16328842       22      -0.00117161       0.00678116      -0.00553760
O       -2.18048562       5.87919426       3.56136793       23      -0.00678388       0.00537359       0.00176786
O        3.39755357       1.93492492       6.99188802       24       0.00732756      -0.00460470      -0.00176786
O        5.05271809      -1.81724414       3.47413604       25       0.00678388      -0.00537359      -0.00176786
O        6.26978604       3.13226017       1.69750210       26       0.00732756       0.00383337      -0.00310386
O        3.56397932       2.17561303       3.68104041       27      -0.00678388      -0.00115578      -0.00553760
O        0.69174685       4.13104305       6.82859960       28      -0.00678388      -0.00421781       0.00376974
O        2.18048562      -0.06909294       0.20690437       29       0.00678388       0.00421781      -0.00376974
O       -3.39755357       0.92968994       5.33800186       30      -0.00732756      -0.00383337       0.00310386
O        4.95249495       0.83541533       1.86079053       31       0.00171530      -0.00063623      -0.00864146
O        0.86319453       1.14519638       5.37854251       32       0.00117161      -0.00140512      -0.00864146
O        3.39755357      -1.00523497       5.38161781       33       0.00732757       0.00077134       0.00487172
O        2.08026248       0.00177552       3.31084761       34       0.00171530       0.00780184       0.00376974
O        0.86319453      -2.00756890       6.87221554       35       0.00117161      -0.00678116       0.00553760
O       -0.69174685       1.88633708       3.35446356       36       0.00678388       0.00115578       0.00553760
O       -0.86319453      -0.86237252       5.21525409       37      -0.00117161      -0.00818628      -0.00310386
O       -0.52532111       5.06718509       1.65388616       38      -0.00732756      -0.00077134      -0.00487172
O        3.66420245       4.89914096       5.17163814       39      -0.00171530       0.00716561      -0.00487172
