40
Lattice="9.549310944730873 7.484493025344818e-10 1.509903313490213e-14 -3.1831036489492677 9.003176699321337 -1.296372786896427e-09 -3.183103647890815 -4.5015883489122075 7.79697973723665" Properties=species:S:1:pos:R:3:spacegroup_kinds:I:1:forces:R:3 spacegroup="P 1" unit_cell=conventional occupancy="_JSON {\"0\": {\"In\": 1}, \"1\": {\"In\": 1}, \"2\": {\"In\": 1}, \"3\": {\"In\": 1}, \"4\": {\"In\": 1}, \"5\": {\"In\": 1}, \"6\": {\"In\": 1}, \"7\": {\"In\": 1}, \"8\": {\"In\": 1}, \"9\": {\"In\": 1}, \"10\": {\"In\": 1}, \"11\": {\"In\": 1}, \"12\": {\"In\": 1}, \"13\": {\"In\": 1}, \"14\": {\"In\": 1}, \"15\": {\"In\": 1}, \"16\": {\"O\": 1}, \"17\": {\"O\": 1}, \"18\": {\"O\": 1}, \"19\": {\"O\": 1}, \"20\": {\"O\": 1}, \"21\": {\"O\": 1}, \"22\": {\"O\": 1}, \"23\": {\"O\": 1}, \"24\": {\"O\": 1}, \"25\": {\"O\": 1}, \"26\": {\"O\": 1}, \"27\": {\"O\": 1}, \"28\": {\"O\": 1}, \"29\": {\"O\": 1}, \"30\": {\"O\": 1}, \"31\": {\"O\": 1}, \"32\": {\"O\": 1}, \"33\": {\"O\": 1}, \"34\": {\"O\": 1}, \"35\": {\"O\": 1}, \"36\": {\"O\": 1}, \"37\": {\"O\": 1}, \"38\": {\"O\": 1}, \"39\": {\"O\": 1}}" n_minim_iter=1 energy=-45147.7136335745 stress="0.07390440235162857 1.601234037241616e-12 -1.8126896223996476e-13 1.601234037241616e-12 0.07390440235407449 2.8275152444330298e-12 -1.8126896223996476e-13 2.8275152444330298e-12 0.073904402360866" free_energy=-45147.7136335745 pbc="T T T"
In      -4.62052675       3.26720580       6.03650316        0      -0.00307721       0.00217591      -0.00376879
In       7.80363039       1.23438256       1.76047657        1       0.00307721      -0.00217591       0.00376879
In       1.43742310      -1.01641162       5.65896644        2       0.00307721      -0.00217591       0.00376879
In      -1.59155183      -2.25079417       3.89848987        3       0.00000000       0.00000000      -0.00000000
In      -1.43742310       4.39260289       3.70972150        4      -0.00307721       0.00217591       0.00376879
In       4.92878420      -3.15822033       5.84773480        5      -0.00307721      -0.00435183       0.00000000
In      -1.43742310       1.34336802       5.84773480        6      -0.00307721      -0.00435183      -0.00000000
In      -1.74568055       7.65980868       1.94924493        7       0.00307721       0.00435183      -0.00000000
In       4.62052675       0.10898547       4.08725823        8       0.00307721      -0.00217591      -0.00376879
In      -1.59155183       4.50158835      -0.00000000        9      -0.00000000       0.00000000       0.00000000
In       4.62052675       6.86136799       0.18876836       10       0.00307721      -0.00217591      -0.00376879
In      -1.43742310      -2.35977964       7.60821137       11      -0.00307721       0.00217591       0.00376879
In       4.62052675       3.15822033       1.94924493       12       0.00307721       0.00435183      -0.00000000
In       1.74568055       5.51799997       2.13801330       13      -0.00307721       0.00217591      -0.00376879
In       4.77465547       0.00000000      -0.00000000       14       0.00000000       0.00000000      -0.00000000
In       1.59155182       2.25079418       3.89848987       15      -0.00000000       0.00000000       0.00000000
O        0.83250595       4.49778436       4.23248427       16       0.01265076       0.00025749       0.04986494
O       -2.35059770       3.66734090       5.68403195       17       0.01265076       0.04305556      -0.02515547
O       -0.51262049       2.36769476       0.13810537       18       0.04505286       0.02014382       0.01452884
O       -0.83250595      -0.83805144       2.11953649       19      -0.01265076       0.04331305       0.02470948
O        4.24113472       5.41937496       1.98143112       20       0.03637625      -0.03492483       0.01018064
O        2.12507257       3.24451197       1.78554208       21      -0.03637625      -0.02627911      -0.02515547
O        2.12507257       6.67645135       0.19588904       22      -0.03637625      -0.00864572       0.03533611
O       -2.40315752       6.44645417       4.03659523       23      -0.00397415      -0.04919085       0.01452884
O        3.69572414       2.13389360       7.65887436       24      -0.04505286      -0.02014382      -0.01452884
O        5.58626117      -1.94486582       3.76038450       25       0.00397415       0.04919085      -0.01452884
O        6.87882778       3.55424431       1.91705874       26      -0.04505286       0.02265425      -0.01018064
O        3.96304977       2.52336111       4.09437891       27      -0.00397415       0.03717777       0.03533611
O        0.77994613       4.53494977       7.46298532       28      -0.00397415       0.01201308      -0.04986494
O        2.40315752      -0.03336142       0.33399441       29       0.00397415      -0.01201308       0.04986494
O       -3.69572414       0.94734404       5.87992099       30       0.04505286      -0.02265425       0.01018064
O        5.53370134       0.83424745       2.11294778       31      -0.01265076      -0.04305556       0.02515547
O        1.05803107       1.25707638       6.01143765       32       0.03637625       0.02627911       0.02515547
O        3.69572414      -1.18654955       6.01802636       33      -0.04505286      -0.00251043       0.02470948
O        2.35059769       0.00380399       3.56449546       34      -0.01265076      -0.00025749      -0.04986494
O        1.05803108      -2.17486299       7.60109069       35       0.03637625       0.00864572      -0.03533611
O       -0.77994613       1.97822724       3.70260083       36       0.00397415      -0.03717777      -0.03533611
O       -1.05803108      -0.91778661       5.81554861       37      -0.03637625       0.03492483      -0.01018064
O       -0.51262049       5.68813791       1.77895337       38       0.04505286       0.00251043      -0.02470948
O        4.01560960       5.33963979       5.67744324       39       0.01265076      -0.04331305      -0.02470948
40
Lattice="9.54931094473087 7.484493025344815e-10 1.509903313490211e-14 -3.1831036489492663 9.003176699321331 -1.2963727868964264e-09 -3.1831036478908135 -4.501588348912205 7.796979737236646" Properties=species:S:1:pos:R:3:spacegroup_kinds:I:1:forces:R:3 spacegroup="P 1" unit_cell=conventional occupancy="_JSON {\"0\": {\"In\": 1}, \"1\": {\"In\": 1}, \"2\": {\"In\": 1}, \"3\": {\"In\": 1}, \"4\": {\"In\": 1}, \"5\": {\"In\": 1}, \"6\": {\"In\": 1}, \"7\": {\"In\": 1}, \"8\": {\"In\": 1}, \"9\": {\"In\": 1}, \"10\": {\"In\": 1}, \"11\": {\"In\": 1}, \"12\": {\"In\": 1}, \"13\": {\"In\": 1}, \"14\": {\"In\": 1}, \"15\": {\"In\": 1}, \"16\": {\"O\": 1}, \"17\": {\"O\": 1}, \"18\": {\"O\": 1}, \"19\": {\"O\": 1}, \"20\": {\"O\": 1}, \"21\": {\"O\": 1}, \"22\": {\"O\": 1}, \"23\": {\"O\": 1}, \"24\": {\"O\": 1}, \"25\": {\"O\": 1}, \"26\": {\"O\": 1}, \"27\": {\"O\": 1}, \"28\": {\"O\": 1}, \"29\": {\"O\": 1}, \"30\": {\"O\": 1}, \"31\": {\"O\": 1}, \"32\": {\"O\": 1}, \"33\": {\"O\": 1}, \"34\": {\"O\": 1}, \"35\": {\"O\": 1}, \"36\": {\"O\": 1}, \"37\": {\"O\": 1}, \"38\": {\"O\": 1}, \"39\": {\"O\": 1}}" n_minim_iter=2 energy=-45147.71670791202 stress="0.0734585329452179 2.8796812335463776e-13 1.3755823936581283e-12 2.8796812335463776e-13 0.073458532945935 2.8444342401564613e-12 1.3755823936581283e-12 2.8444342401564613e-12 0.07345853294418744" free_energy=-45147.71670791202 pbc="T T T"
In      -4.62074655       3.26736122       6.03623396        0      -0.00222957       0.00157655      -0.00273066
In       7.80385019       1.23422713       1.76074577        1       0.00222957      -0.00157655       0.00273066
In       1.43764290      -1.01656704       5.65923563        2       0.00222957      -0.00157655       0.00273066
In      -1.59155183      -2.25079417       3.89848987        3      -0.00000000      -0.00000000       0.00000000
In      -1.43764290       4.39275831       3.70999070        4      -0.00222957       0.00157655       0.00273066
In       4.92856440      -3.15853117       5.84773480        5      -0.00222957      -0.00315309       0.00000000
In      -1.43764290       1.34305718       5.84773480        6      -0.00222957      -0.00315309       0.00000000
In      -1.74546075       7.66011953       1.94924493        7       0.00222957       0.00315309      -0.00000000
In       4.62074655       0.10883005       4.08698903        8       0.00222957      -0.00157655      -0.00273066
In      -1.59155183       4.50158835      -0.00000000        9      -0.00000000      -0.00000000      -0.00000000
In       4.62074655       6.86121257       0.18849916       10       0.00222957      -0.00157655      -0.00273066
In      -1.43764290      -2.35962422       7.60848057       11      -0.00222957       0.00157655       0.00273066
In       4.62074655       3.15853118       1.94924493       12       0.00222957       0.00315309      -0.00000000
In       1.74546075       5.51815540       2.13774410       13      -0.00222957       0.00157655      -0.00273066
In       4.77465547       0.00000000      -0.00000000       14      -0.00000000       0.00000000      -0.00000000
In       1.59155182       2.25079418       3.89848987       15      -0.00000000      -0.00000000       0.00000000
O        0.83340958       4.49780275       4.23604606       16       0.00291108      -0.00633980       0.01800439
O       -2.34969407       3.67041630       5.68223513       17       0.00291108       0.01876216      -0.00351177
O       -0.50940243       2.36913360       0.13914314       18       0.01268227       0.01185288       0.00845545
O       -0.83340958      -0.83495765       2.12130145       19      -0.00291108       0.01242236       0.01449262
O        4.24373303       5.41688033       1.98215831       20       0.01671877      -0.00754060       0.00603717
O        2.12247427       3.24263489       1.78374526       21      -0.01671877      -0.00899864      -0.00351177
O        2.12247427       6.67583379       0.19841304       22      -0.01671877       0.00145804       0.00954894
O       -2.40344139       6.44294054       4.03763301       23      -0.00694758      -0.01590792       0.00845545
O        3.69250608       2.13245475       7.65783659       24      -0.01268227      -0.01185288      -0.00845545
O        5.58654503      -1.94135219       3.75934672       25       0.00694758       0.01590792      -0.00845545
O        6.87560972       3.55586247       1.91633155       26      -0.01268227       0.01324908      -0.00603717
O        3.96276591       2.52601667       4.09690291       27      -0.00694758       0.01527660       0.00954894
O        0.77966226       4.53580785       7.45942354       28      -0.00694758       0.00063132      -0.01800439
O        2.40344139      -0.03421949       0.33755619       29       0.00694758      -0.00063132       0.01800439
O       -3.69250608       0.94572588       5.88064818       30       0.01268227      -0.01324908       0.00603717
O        5.53279772       0.83117205       2.11474460       31      -0.00291108      -0.01876216       0.00351177
O        1.06062938       1.25895346       6.01323447       32       0.01671877       0.00899864       0.00351177
O        3.69250608      -1.18672887       6.01979132       33      -0.01268227      -0.00139620       0.01449262
O        2.34969407       0.00378560       3.56093367       34      -0.00291108       0.00633980      -0.01800439
O        1.06062938      -2.17424544       7.59856669       35       0.01671877      -0.00145804      -0.00954894
O       -0.77966226       1.97557169       3.70007682       36       0.00694758      -0.01527660      -0.00954894
O       -1.06062938      -0.91529198       5.81482142       37      -0.01671877       0.00754060      -0.00603717
O       -0.50940243       5.68831722       1.77718841       38       0.01268227       0.00139620      -0.01449262
O        4.01651323       5.33654600       5.67567828       39       0.00291108      -0.01242236      -0.01449262
40
Lattice="9.54931094473087 7.484493025344815e-10 1.50990331349021e-14 -3.1831036489492663 9.003176699321331 -1.2963727868964264e-09 -3.1831036478908135 -4.501588348912205 7.796979737236646" Properties=species:S:1:pos:R:3:spacegroup_kinds:I:1:forces:R:3 spacegroup="P 1" unit_cell=conventional occupancy="_JSON {\"0\": {\"In\": 1}, \"1\": {\"In\": 1}, \"2\": {\"In\": 1}, \"3\": {\"In\": 1}, \"4\": {\"In\": 1}, \"5\": {\"In\": 1}, \"6\": {\"In\": 1}, \"7\": {\"In\": 1}, \"8\": {\"In\": 1}, \"9\": {\"In\": 1}, \"10\": {\"In\": 1}, \"11\": {\"In\": 1}, \"12\": {\"In\": 1}, \"13\": {\"In\": 1}, \"14\": {\"In\": 1}, \"15\": {\"In\": 1}, \"16\": {\"O\": 1}, \"17\": {\"O\": 1}, \"18\": {\"O\": 1}, \"19\": {\"O\": 1}, \"20\": {\"O\": 1}, \"21\": {\"O\": 1}, \"22\": {\"O\": 1}, \"23\": {\"O\": 1}, \"24\": {\"O\": 1}, \"25\": {\"O\": 1}, \"26\": {\"O\": 1}, \"27\": {\"O\": 1}, \"28\": {\"O\": 1}, \"29\": {\"O\": 1}, \"30\": {\"O\": 1}, \"31\": {\"O\": 1}, \"32\": {\"O\": 1}, \"33\": {\"O\": 1}, \"34\": {\"O\": 1}, \"35\": {\"O\": 1}, \"36\": {\"O\": 1}, \"37\": {\"O\": 1}, \"38\": {\"O\": 1}, \"39\": {\"O\": 1}}" n_minim_iter=3 energy=-45147.717242173894 stress="0.07308797774540568 -4.549313693503116e-12 1.3225783818049092e-12 -4.549313693503116e-12 0.07308797774768415 -1.0735753036181985e-12 1.3225783818049092e-12 -1.0735753036181985e-12 0.07308797775529996" free_energy=-45147.717242173894 pbc="T T T"
In      -4.62089428       3.26746568       6.03605303        0      -0.00178857       0.00126471      -0.00219054
In       7.80399793       1.23412267       1.76092670        1       0.00178857      -0.00126471       0.00219054
In       1.43779063      -1.01667150       5.65941657        2       0.00178857      -0.00126471       0.00219054
In      -1.59155183      -2.25079417       3.89848987        3      -0.00000000       0.00000000       0.00000000
In      -1.43779064       4.39286277       3.71017164        4      -0.00178857       0.00126471       0.00219054
In       4.92841666      -3.15874010       5.84773480        5      -0.00178857      -0.00252942      -0.00000000
In      -1.43779064       1.34284825       5.84773480        6      -0.00178857      -0.00252942       0.00000000
In      -1.74531302       7.66032845       1.94924493        7       0.00178857       0.00252942      -0.00000000
In       4.62089428       0.10872558       4.08680809        8       0.00178857      -0.00126471      -0.00219054
In      -1.59155183       4.50158835      -0.00000000        9       0.00000000       0.00000000      -0.00000000
In       4.62089428       6.86110811       0.18831823       10       0.00178857      -0.00126471      -0.00219054
In      -1.43779064      -2.35951975       7.60866151       11      -0.00178857       0.00126471       0.00219054
In       4.62089428       3.15874010       1.94924493       12       0.00178857       0.00252942       0.00000000
In       1.74531301       5.51825986       2.13756316       13      -0.00178857       0.00126471      -0.00219054
In       4.77465547       0.00000000      -0.00000000       14       0.00000000       0.00000000       0.00000000
In       1.59155182       2.25079418       3.89848987       15      -0.00000000       0.00000000       0.00000000
O        0.83387850       4.49767068       4.23803890       16      -0.00250703      -0.00859523       0.00280029
O       -2.34922515       3.67220819       5.68135309       17      -0.00250703       0.00672274       0.00604355
O       -0.50768124       2.37004000       0.13979482       18      -0.00260108       0.00678924       0.00592835
O       -0.83387850      -0.83329783       2.12241225       19       0.00250703      -0.00187250       0.00884383
O        4.24526613       5.41559676       1.98261743       20       0.00717393       0.00529523       0.00291548
O        2.12094116       3.24159549       1.78286322       21      -0.00717393       0.00012274       0.00604355
O        2.12094116       6.67558962       0.19975421       22      -0.00717393       0.00517250      -0.00312807
O       -2.40372222       6.44101565       4.03828468       23      -0.00726799       0.00018924       0.00592835
O        3.69078488       2.13154835       7.65718492       24       0.00260108      -0.00678924      -0.00592835
O        5.58682586      -1.93942730       3.75869505       25       0.00726799      -0.00018924      -0.00592835
O        6.87388853       3.55688004       1.91587243       26       0.00260108       0.00852873      -0.00291548
O        3.96248508       2.52754348       4.09824408       27      -0.00726799       0.00503948      -0.00312807
O        0.77938143       4.53620593       7.45743070       28      -0.00726799      -0.00522873      -0.00280029
O        2.40372222      -0.03461757       0.33954903       29       0.00726799       0.00522873       0.00280029
O       -3.69078488       0.94470831       5.88110730       30      -0.00260108      -0.00852873       0.00291548
O        5.53232879       0.82938016       2.11562664       31       0.00250703      -0.00672274      -0.00604355
O        1.06216248       1.25999286       6.01411651       32       0.00717393      -0.00012274      -0.00604355
O        3.69078488      -1.18684004       6.02090212       33       0.00260108      -0.00173948       0.00884383
O        2.34922515       0.00391768       3.55894083       34       0.00250703       0.00859523      -0.00280029
O        1.06216248      -2.17400127       7.59722552       35       0.00717393      -0.00517250       0.00312807
O       -0.77938143       1.97404487       3.69873565       36       0.00726799      -0.00503948       0.00312807
O       -1.06216248      -0.91400841       5.81436230       37      -0.00717393      -0.00529523      -0.00291548
O       -0.50768124       5.68842839       1.77607761       38      -0.00260108       0.00173948      -0.00884383
O        4.01698215       5.33488619       5.67456748       39      -0.00250703       0.00187250      -0.00884383
