40
Lattice="8.370369985522979 6.560455237024763e-10 1.4070143941202809e-14 -2.790123329126188 7.891660503519516 -1.1363202139114736e-09 -2.7901233281984115 -3.945830251103701 6.8343784748477265" Properties=species:S:1:pos:R:3:spacegroup_kinds:I:1:forces:R:3 spacegroup="P 1" unit_cell=conventional occupancy="_JSON {\"0\": {\"In\": 1}, \"1\": {\"In\": 1}, \"2\": {\"In\": 1}, \"3\": {\"In\": 1}, \"4\": {\"In\": 1}, \"5\": {\"In\": 1}, \"6\": {\"In\": 1}, \"7\": {\"In\": 1}, \"8\": {\"In\": 1}, \"9\": {\"In\": 1}, \"10\": {\"In\": 1}, \"11\": {\"In\": 1}, \"12\": {\"In\": 1}, \"13\": {\"In\": 1}, \"14\": {\"In\": 1}, \"15\": {\"In\": 1}, \"16\": {\"O\": 1}, \"17\": {\"O\": 1}, \"18\": {\"O\": 1}, \"19\": {\"O\": 1}, \"20\": {\"O\": 1}, \"21\": {\"O\": 1}, \"22\": {\"O\": 1}, \"23\": {\"O\": 1}, \"24\": {\"O\": 1}, \"25\": {\"O\": 1}, \"26\": {\"O\": 1}, \"27\": {\"O\": 1}, \"28\": {\"O\": 1}, \"29\": {\"O\": 1}, \"30\": {\"O\": 1}, \"31\": {\"O\": 1}, \"32\": {\"O\": 1}, \"33\": {\"O\": 1}, \"34\": {\"O\": 1}, \"35\": {\"O\": 1}, \"36\": {\"O\": 1}, \"37\": {\"O\": 1}, \"38\": {\"O\": 1}, \"39\": {\"O\": 1}}" n_minim_iter=5 energy=-45150.65718611371 stress="0.03672822955609738 1.9750666771174543e-13 6.571538413253746e-12 1.9750666771174543e-13 0.03672822954602769 8.369575469088911e-13 6.571538413253746e-12 8.369575469088911e-13 0.036728229548933365" free_energy=-45150.65718611371 pbc="T T T"
In      -4.11409950       2.90910765       5.21284545        0       0.00164385      -0.00116238       0.00201330
In       6.90422282       1.03672260       1.62153302        1      -0.00164385       0.00116238      -0.00201330
In       1.32397616      -0.93619252       5.03872225        2      -0.00164385       0.00116238      -0.00201330
In      -1.39506167      -1.97291512       3.41718924        3      -0.00000000      -0.00000000      -0.00000000
In      -1.32397617       3.89556522       3.33012763        4       0.00164385      -0.00116238      -0.00201330
In       4.25627049      -2.85884261       5.12578385        5       0.00164385       0.00232475      -0.00000000
In      -1.32397617       1.08698764       5.12578385        6       0.00164385       0.00232475       0.00000000
In      -1.46614717       6.80467287       1.70859462        7      -0.00164385      -0.00232475       0.00000000
In       4.11409949       0.05026504       3.50425084        8      -0.00164385       0.00116238       0.00201330
In      -1.39506167       3.94583025      -0.00000000        9      -0.00000000       0.00000000      -0.00000000
In       4.11409949       5.96901042       0.08706160       10      -0.00164385       0.00116238       0.00201330
In      -1.32397617      -2.02318016       6.74731687       11       0.00164385      -0.00116238      -0.00201330
In       4.11409949       2.85884261       1.70859462       12      -0.00164385      -0.00232475       0.00000000
In       1.46614716       4.88202278       1.79565622       13       0.00164385      -0.00116238       0.00201330
In       4.18518499       0.00000000      -0.00000000       14       0.00000000      -0.00000000      -0.00000000
In       1.39506166       1.97291513       3.41718923       15       0.00000000      -0.00000000      -0.00000000
O        0.72864873       3.92623729       3.60545397       16       0.00002318      -0.00136857       0.00484706
O       -2.06147460       3.13221122       5.04861949       17       0.00002318       0.00488197      -0.00123832
O       -0.54267690       2.05825906       0.07438071       18       0.00332019       0.00255063       0.00279968
O       -0.72864873      -0.83321200       1.81969499       19      -0.00002318       0.00351340       0.00360875
O        3.64023525       4.82198598       1.74531427       20       0.00459503      -0.00189700       0.00080907
O        1.94001140       2.87242161       1.63143025       21      -0.00459503      -0.00164918      -0.00123832
O        1.94001140       5.89539462       0.11388402       22      -0.00459503      -0.00024783       0.00204739
O       -2.12143755       5.74429971       3.49156995       23      -0.00129803      -0.00398051       0.00279968
O        3.33280022       1.88757119       6.75999776       24      -0.00332019      -0.00255063      -0.00279968
O        4.91156088      -1.79846946       3.34280852       25       0.00129803       0.00398051      -0.00279968
O        6.12292355       3.06646024       1.67187496       26      -0.00332019       0.00369991      -0.00080907
O        3.45880910       2.12455355       3.53107326       27      -0.00129803       0.00441485       0.00204739
O        0.66868578       3.96863750       6.64611374       28      -0.00129802      -0.00043434      -0.00484706
O        2.12143755      -0.02280725       0.18826473       29       0.00129802       0.00043434       0.00484706
O       -3.33280023       0.87937001       5.16250351       30       0.00332019      -0.00369991       0.00080907
O        4.85159793       0.81361904       1.78575898       31      -0.00002318      -0.00488197       0.00123832
O        0.85011192       1.07340864       5.20294822       32       0.00459503       0.00164918       0.00123832
O        3.33280023      -1.00820118       5.23688422       33      -0.00332019      -0.00114928       0.00360875
O        2.06147460       0.01959296       3.22892450       34      -0.00002318       0.00136857      -0.00484706
O        0.85011192      -1.94956436       6.72049445       35       0.00459503       0.00024783      -0.00204739
O       -0.66868578       1.82127671       3.30330521       36       0.00129803      -0.00441485      -0.00204739
O       -0.85011192      -0.87615572       5.08906420       37      -0.00459503       0.00189700      -0.00080907
O       -0.54267690       4.95403144       1.59749424       38       0.00332019       0.00114928      -0.00360875
O        3.51877206       4.77904225       5.01468348       39       0.00002318      -0.00351340      -0.00360875
