40
Lattice="8.849693115273618 6.936158314374551e-10 2.2204460492503316e-15 -2.9498977057451543 8.3435706840753 -1.201373223125302e-09 -2.9498977047642363 -4.1717853413440364 7.225744171481241" Properties=species:S:1:pos:R:3:spacegroup_kinds:I:1:forces:R:3 spacegroup="P 1" unit_cell=conventional occupancy="_JSON {\"0\": {\"In\": 1}, \"1\": {\"In\": 1}, \"2\": {\"In\": 1}, \"3\": {\"In\": 1}, \"4\": {\"In\": 1}, \"5\": {\"In\": 1}, \"6\": {\"In\": 1}, \"7\": {\"In\": 1}, \"8\": {\"In\": 1}, \"9\": {\"In\": 1}, \"10\": {\"In\": 1}, \"11\": {\"In\": 1}, \"12\": {\"In\": 1}, \"13\": {\"In\": 1}, \"14\": {\"In\": 1}, \"15\": {\"In\": 1}, \"16\": {\"O\": 1}, \"17\": {\"O\": 1}, \"18\": {\"O\": 1}, \"19\": {\"O\": 1}, \"20\": {\"O\": 1}, \"21\": {\"O\": 1}, \"22\": {\"O\": 1}, \"23\": {\"O\": 1}, \"24\": {\"O\": 1}, \"25\": {\"O\": 1}, \"26\": {\"O\": 1}, \"27\": {\"O\": 1}, \"28\": {\"O\": 1}, \"29\": {\"O\": 1}, \"30\": {\"O\": 1}, \"31\": {\"O\": 1}, \"32\": {\"O\": 1}, \"33\": {\"O\": 1}, \"34\": {\"O\": 1}, \"35\": {\"O\": 1}, \"36\": {\"O\": 1}, \"37\": {\"O\": 1}, \"38\": {\"O\": 1}, \"39\": {\"O\": 1}}" n_minim_iter=6 energy=-45150.82875202489 stress="-0.018288941747191822 -4.548560167850158e-12 -5.417445210068087e-12 -4.548560167850158e-12 -0.018288941741948683 5.71825732804342e-12 -5.417445210068087e-12 5.71825732804342e-12 -0.01828894175248914" free_energy=-45150.82875202489 pbc="T T T"
In      -4.23152148       2.99213754       5.65608202        0       0.00237478      -0.00167922       0.00290850
In       7.18141919       1.17964781       1.56966215        1      -0.00237478       0.00167922      -0.00290850
In       1.28162378      -0.90624486       5.18253423        2      -0.00237478       0.00167922      -0.00290850
In      -1.47494885      -2.08589267       3.61287208        3       0.00000000      -0.00000000      -0.00000000
In      -1.28162378       4.03508387       3.37609819        4       0.00237478      -0.00167922      -0.00290850
In       4.61817163      -2.85543606       5.41930813        5       0.00237478       0.00335845      -0.00000000
In      -1.28162378       1.31634928       5.41930813        6       0.00237478       0.00335845       0.00000000
In      -1.66827393       7.02722141       1.80643604        7      -0.00237478      -0.00335845       0.00000000
In       4.23152148       0.13670147       3.84964598        8      -0.00237478       0.00167922       0.00290850
In      -1.47494885       4.17178534      -0.00000000        9      -0.00000000       0.00000000      -0.00000000
In       4.23152148       6.39437949       0.23677389       10      -0.00237478       0.00167922       0.00290850
In      -1.28162378      -2.22259414       6.98897027       11       0.00237478      -0.00167922      -0.00290850
In       4.23152148       2.85543606       1.80643604       12      -0.00237478      -0.00335845       0.00000000
In       1.66827393       5.07803021       2.04320993       13       0.00237478      -0.00167922       0.00290850
In       4.42484656       0.00000000      -0.00000000       14       0.00000000       0.00000000      -0.00000000
In       1.47494885       2.08589267       3.61287208       15      -0.00000000       0.00000000       0.00000000
O        0.86942783       4.17286616       3.91903712       16       0.00450282      -0.00196970       0.00258726
O       -2.08046987       3.39344530       5.26528959       17       0.00450282       0.00322549       0.00041218
O       -0.44299775       2.23557766       0.04503101       18       0.00268490       0.00451094      -0.00181430
O       -0.86942783      -0.77725922       1.95858254       19      -0.00450282       0.00125578       0.00299944
O        3.89286087       4.97504323       1.91355153       20       0.00154008      -0.00230327       0.00481374
O        2.00693454       2.91623005       1.65241750       21      -0.00154008      -0.00532046       0.00041218
O        2.00693454       6.23059853       0.26113403       22      -0.00154008       0.00301719       0.00440156
O       -2.25538874       5.93014774       3.65790309       23      -0.00335799      -0.00403500      -0.00181430
O        3.39289545       1.93620769       7.18071316       24      -0.00268490      -0.00451094       0.00181430
O        5.20528644      -1.75836240       3.56784107       25       0.00335799       0.00403500       0.00181430
O        6.34279315       3.24267950       1.69932055       26      -0.00268490       0.00068424      -0.00481374
O        3.64440667       2.28865581       3.87400611       27      -0.00335799       0.00044627       0.00440156
O        0.69450896       4.29655248       6.91957913       28      -0.00335799       0.00358873      -0.00258726
O        2.25538874      -0.12476714       0.30616504       29       0.00335799      -0.00358873       0.00258726
O       -3.39289545       0.92910585       5.52642362       30       0.00268490      -0.00068424       0.00481374
O        5.03036758       0.77834004       1.96045458       31      -0.00450282      -0.00322549      -0.00041218
O        0.94296316       1.25555530       5.57332666       32       0.00154008       0.00532046      -0.00041218
O        3.39289545      -1.00710184       5.57145463       33      -0.00268490       0.00382670       0.00299944
O        2.08046987      -0.00108082       3.30670704       34      -0.00450282       0.00196970      -0.00258726
O        0.94296316      -2.05881318       6.96461014       35       0.00154008      -0.00301719      -0.00440156
O       -0.69450897       1.88312954       3.35173805       36       0.00335799      -0.00044627      -0.00440156
O       -0.94296316      -0.80325789       5.31219263       37      -0.00154008       0.00230327      -0.00481374
O       -0.44299775       5.17888719       1.65428954       38       0.00268490      -0.00382670      -0.00299944
O        3.81932554       4.94904457       5.26716162       39       0.00450282      -0.00125578      -0.00299944
