20
Lattice="5.891634295871495 1.845143582373513e-59 -2.42025484290766e-42 -1.3803190963554326e-60 5.779930465573355 4.0704672490393163e-17 3.487648760329613e-42 -5.979007189261605e-17 8.489994807168998" Properties=species:S:1:pos:R:3:spacegroup_kinds:I:1:forces:R:3 spacegroup="P 1" unit_cell=conventional occupancy="_JSON {\"0\": {\"In\": 1}, \"1\": {\"In\": 1}, \"2\": {\"In\": 1}, \"3\": {\"In\": 1}, \"4\": {\"In\": 1}, \"5\": {\"In\": 1}, \"6\": {\"In\": 1}, \"7\": {\"In\": 1}, \"8\": {\"O\": 1}, \"9\": {\"O\": 1}, \"10\": {\"O\": 1}, \"11\": {\"O\": 1}, \"12\": {\"O\": 1}, \"13\": {\"O\": 1}, \"14\": {\"O\": 1}, \"15\": {\"O\": 1}, \"16\": {\"O\": 1}, \"17\": {\"O\": 1}, \"18\": {\"O\": 1}, \"19\": {\"O\": 1}}" n_minim_iter=1 energy=-22573.45766576411 stress="0.09016986755435254 -1.9142964656575847e-12 1.9396960353502715e-12 -1.9142964656575847e-12 0.08845880963288243 -2.1847959309924605e-12 1.9396960353502715e-12 -2.1847959309924605e-12 0.08625496159458028" free_energy=-22573.45766576411 pbc="T T T"
In       1.47473872       3.03460421       0.96839388        0      -0.00228212      -0.01730937      -0.00405482
In       1.47107843       0.14463898       3.27660353        1       0.00228212      -0.01730937       0.00405482
In       1.47107843       2.74532626       5.21339128        2       0.00228212       0.01730937      -0.00405482
In       1.47473872       5.63529149       7.52160093        3      -0.00228212       0.01730937       0.00405482
In       4.41689558       2.74532626       7.52160093        4       0.00228212       0.01730937       0.00405482
In       4.42055586       5.63529149       5.21339128        5      -0.00228212       0.01730937      -0.00405482
In       4.42055586       3.03460421       3.27660353        6      -0.00228212      -0.01730937       0.00405482
In       4.41689558       0.14463898       0.96839388        7       0.00228212      -0.01730937      -0.00405482
O        2.29814171       3.47666122       7.19377013        8      -0.00618331      -0.03908722      -0.00338032
O        0.64767544       0.58669599       5.54122208        9       0.00618331      -0.03908722       0.00338032
O        0.64767544       2.30326925       2.94877273       10       0.00618331       0.03908722      -0.00338032
O        2.29814171       5.19323448       1.29622467       11      -0.00618331       0.03908722       0.00338032
O        3.59349259       2.30326925       1.29622467       12       0.00618331       0.03908722       0.00338032
O        5.24395885       5.19323448       2.94877273       13      -0.00618331       0.03908722      -0.00338032
O        5.24395885       3.47666122       5.54122208       14      -0.00618331      -0.03908722       0.00338032
O        3.59349259       0.58669599       7.19377013       15       0.00618331      -0.03908722      -0.00338032
O        5.60626599       4.33494785      -0.00000000       16      -0.04425213      -0.00000000       0.00000000
O        3.23118545       1.44498262       4.24499740       17       0.04425213       0.00000000      -0.00000000
O        0.28536831       1.44498262      -0.00000000       18       0.04425213       0.00000000       0.00000000
O        2.66044884       4.33494785       4.24499740       19      -0.04425213      -0.00000000      -0.00000000
20
Lattice="5.8823658578919416 1.8081643007954188e-59 -2.42624383185801e-42 -1.5483330657529907e-60 5.779133443563727 4.1646332629911035e-17 3.448998605114127e-42 -5.849179057856818e-17 8.50454463812185" Properties=species:S:1:pos:R:3:spacegroup_kinds:I:1:forces:R:3 spacegroup="P 1" unit_cell=conventional occupancy="_JSON {\"0\": {\"In\": 1}, \"1\": {\"In\": 1}, \"2\": {\"In\": 1}, \"3\": {\"In\": 1}, \"4\": {\"In\": 1}, \"5\": {\"In\": 1}, \"6\": {\"In\": 1}, \"7\": {\"In\": 1}, \"8\": {\"O\": 1}, \"9\": {\"O\": 1}, \"10\": {\"O\": 1}, \"11\": {\"O\": 1}, \"12\": {\"O\": 1}, \"13\": {\"O\": 1}, \"14\": {\"O\": 1}, \"15\": {\"O\": 1}, \"16\": {\"O\": 1}, \"17\": {\"O\": 1}, \"18\": {\"O\": 1}, \"19\": {\"O\": 1}}" n_minim_iter=2 energy=-22573.45863615832 stress="0.08782217273648185 -5.488663753788602e-13 1.146047851428329e-12 -5.488663753788602e-13 0.08795192812987038 1.9824217868589794e-13 1.146047851428329e-12 1.9824217868589794e-13 0.0879485915130252" free_energy=-22573.45863615832 pbc="T T T"
In       1.47241211       3.03413550       0.97004168        0      -0.01043298      -0.01390265       0.00837587
In       1.46877082       0.14456877       3.28223064        1       0.01043298      -0.01390265      -0.00837587
In       1.46877082       2.74499795       5.22231400        2       0.01043298       0.01390265       0.00837587
In       1.47241211       5.63456467       7.53450296        3      -0.01043298       0.01390265      -0.00837587
In       4.40995375       2.74499795       7.53450296        4       0.01043298       0.01390265      -0.00837587
In       4.41359504       5.63456467       5.22231400        5      -0.01043298       0.01390265       0.00837587
In       4.41359504       3.03413550       3.28223064        6      -0.01043298      -0.01390265      -0.00837586
In       4.40995375       0.14456877       0.97004168        7       0.01043298      -0.01390265       0.00837587
O        2.29450845       3.47606832       7.20608871        8      -0.00548731      -0.03800238      -0.01704025
O        0.64667448       0.58650160       5.55072825        9       0.00548731      -0.03800238       0.01704025
O        0.64667448       2.30306512       2.95381639       10       0.00548731       0.03800238      -0.01704025
O        2.29450845       5.19263185       1.29845593       11      -0.00548731       0.03800238       0.01704025
O        3.58785741       2.30306512       1.29845593       12       0.00548731       0.03800238       0.01704025
O        5.23569138       5.19263185       2.95381639       13      -0.00548731       0.03800238      -0.01704025
O        5.23569138       3.47606832       5.55072825       14      -0.00548731      -0.03800238       0.01704025
O        3.58785741       0.58650160       7.20608871       15       0.00548731      -0.03800238      -0.01704025
O        5.59731818       4.33435008      -0.00000000       16      -0.04568743       0.00000000       0.00000000
O        3.22623060       1.44478336       4.25227232       17       0.04568743       0.00000000       0.00000000
O        0.28504768       1.44478336      -0.00000000       18       0.04568743       0.00000000      -0.00000000
O        2.65613525       4.33435008       4.25227232       19      -0.04568743      -0.00000000      -0.00000000
20
Lattice="5.884470291976013 1.891810590663956e-59 -2.5103659535694165e-42 -7.113737892280575e-63 5.773104709661057 3.9717870784539177e-17 3.757719125340103e-42 -6.130451973555532e-17 8.510381143816003" Properties=species:S:1:pos:R:3:spacegroup_kinds:I:1:forces:R:3 spacegroup="P 1" unit_cell=conventional occupancy="_JSON {\"0\": {\"In\": 1}, \"1\": {\"In\": 1}, \"2\": {\"In\": 1}, \"3\": {\"In\": 1}, \"4\": {\"In\": 1}, \"5\": {\"In\": 1}, \"6\": {\"In\": 1}, \"7\": {\"In\": 1}, \"8\": {\"O\": 1}, \"9\": {\"O\": 1}, \"10\": {\"O\": 1}, \"11\": {\"O\": 1}, \"12\": {\"O\": 1}, \"13\": {\"O\": 1}, \"14\": {\"O\": 1}, \"15\": {\"O\": 1}, \"16\": {\"O\": 1}, \"17\": {\"O\": 1}, \"18\": {\"O\": 1}, \"19\": {\"O\": 1}}" n_minim_iter=3 energy=-22573.459715061992 stress="0.08804759186709558 6.606979830904506e-13 -3.2591236576371502e-12 6.606979830904506e-13 0.08681167553166753 -2.2644722059856126e-12 -3.2591236576371502e-12 -2.2644722059856126e-12 0.0880255923884423" free_energy=-22573.459715061992 pbc="T T T"
In       1.47218671       3.02992940       0.97130004        0       0.00335793      -0.00295623       0.01635161
In       1.47004844       0.14337704       3.28389053        1      -0.00335793      -0.00295623      -0.01635161
In       1.47004844       2.74317531       5.22649062        2      -0.00335793       0.00295623       0.01635161
In       1.47218671       5.62972767       7.53908110        3       0.00335793       0.00295623      -0.01635161
In       4.41228359       2.74317531       7.53908110        4      -0.00335793       0.00295623      -0.01635161
In       4.41442185       5.62972767       5.22649062        5       0.00335793       0.00295623       0.01635161
In       4.41442185       3.02992940       3.28389053        6       0.00335793      -0.00295623      -0.01635161
In       4.41228359       0.14337704       0.97130004        7      -0.00335793      -0.00295623       0.01635161
O        2.29492074       3.46961822       7.20979802        8      -0.00571841      -0.01652573      -0.00762026
O        0.64731441       0.58306587       5.55577369        9       0.00571841      -0.01652573       0.00762026
O        0.64731441       2.30348649       2.95460745       10       0.00571841       0.01652573      -0.00762026
O        2.29492074       5.19003884       1.30058312       11      -0.00571841       0.01652573       0.00762026
O        3.58954955       2.30348649       1.30058312       12       0.00571841       0.01652573       0.00762026
O        5.23715589       5.19003884       2.95460745       13      -0.00571841       0.01652573      -0.00762026
O        5.23715589       3.46961822       5.55577369       14      -0.00571841      -0.01652573       0.00762026
O        3.58954955       0.58306587       7.20979802       15       0.00571841      -0.01652573      -0.00762026
O        5.59593763       4.32982853      -0.00000000       16      -0.00613706       0.00000000       0.00000000
O        3.23076781       1.44327618       4.25519057       17       0.00613706       0.00000000       0.00000000
O        0.28853267       1.44327618      -0.00000000       18       0.00613706       0.00000000       0.00000000
O        2.65370248       4.32982853       4.25519057       19      -0.00613706      -0.00000000      -0.00000000
20
Lattice="5.88043155456933 1.8934116258070265e-59 -2.7638697650278123e-42 8.35779958000501e-61 5.779460533788191 3.9701440621466355e-17 3.9367629082109024e-42 -6.137201214479317e-17 8.506860639135292" Properties=species:S:1:pos:R:3:spacegroup_kinds:I:1:forces:R:3 spacegroup="P 1" unit_cell=conventional occupancy="_JSON {\"0\": {\"In\": 1}, \"1\": {\"In\": 1}, \"2\": {\"In\": 1}, \"3\": {\"In\": 1}, \"4\": {\"In\": 1}, \"5\": {\"In\": 1}, \"6\": {\"In\": 1}, \"7\": {\"In\": 1}, \"8\": {\"O\": 1}, \"9\": {\"O\": 1}, \"10\": {\"O\": 1}, \"11\": {\"O\": 1}, \"12\": {\"O\": 1}, \"13\": {\"O\": 1}, \"14\": {\"O\": 1}, \"15\": {\"O\": 1}, \"16\": {\"O\": 1}, \"17\": {\"O\": 1}, \"18\": {\"O\": 1}, \"19\": {\"O\": 1}}" n_minim_iter=4 energy=-22573.460052551232 stress="0.08735624335181601 -1.5625648256346159e-12 -1.0989508228469023e-13 -1.5625648256346159e-12 0.0875798709129534 -1.7072444083997108e-12 -1.0989508228469023e-13 -1.7072444083997108e-12 0.08742281231166864" free_energy=-22573.460052551232 pbc="T T T"
In       1.47089877       3.03283027       0.97123913        0       0.00549368       0.01069060       0.01310757
In       1.46931701       0.14310000       3.28219119        1      -0.00549368       0.01069060      -0.01310757
In       1.46931701       2.74663026       5.22466945        2      -0.00549368      -0.01069060       0.01310757
In       1.47089877       5.63636053       7.53562151        3       0.00549368      -0.01069060      -0.01310757
In       4.40953279       2.74663026       7.53562151        4      -0.00549368      -0.01069060      -0.01310757
In       4.41111454       5.63636053       5.22466945        5       0.00549368      -0.01069060       0.01310757
In       4.41111454       3.03283027       3.28219119        6       0.00549368       0.01069060      -0.01310757
In       4.40953279       0.14310000       0.97123913        7      -0.00549368       0.01069060       0.01310757
O        2.29314606       3.47220428       7.20627469        8      -0.00296392      -0.01061055      -0.00302410
O        0.64706972       0.58247401       5.55401627        9       0.00296392      -0.01061055       0.00302410
O        0.64706972       2.30725626       2.95284437       10       0.00296392       0.01061055      -0.00302410
O        2.29314606       5.19698652       1.30058595       11      -0.00296392       0.01061055       0.00302410
O        3.58728549       2.30725626       1.30058595       12       0.00296392       0.01061055       0.00302410
O        5.23336184       5.19698652       2.95284437       13      -0.00296392       0.01061055      -0.00302410
O        5.23336184       3.47220428       5.55401627       14      -0.00296392      -0.01061055       0.00302410
O        3.58728549       0.58247401       7.20627469       15       0.00296392      -0.01061055      -0.00302410
O        5.59070939       4.33459540      -0.00000000       16       0.00822619       0.00000000       0.00000000
O        3.22993794       1.44486513       4.25343032       17      -0.00822619       0.00000000      -0.00000000
O        0.28972216       1.44486513      -0.00000000       18      -0.00822619      -0.00000000      -0.00000000
O        2.65049362       4.33459540       4.25343032       19       0.00822619       0.00000000       0.00000000
20
Lattice="5.881388835953828 1.892606566040304e-59 -2.753610323456765e-42 1.2703443912675377e-60 5.777002162435859 3.971333345714833e-17 4.0293410041809226e-42 -6.134375800055346e-17 8.509095482443026" Properties=species:S:1:pos:R:3:spacegroup_kinds:I:1:forces:R:3 spacegroup="P 1" unit_cell=conventional occupancy="_JSON {\"0\": {\"In\": 1}, \"1\": {\"In\": 1}, \"2\": {\"In\": 1}, \"3\": {\"In\": 1}, \"4\": {\"In\": 1}, \"5\": {\"In\": 1}, \"6\": {\"In\": 1}, \"7\": {\"In\": 1}, \"8\": {\"O\": 1}, \"9\": {\"O\": 1}, \"10\": {\"O\": 1}, \"11\": {\"O\": 1}, \"12\": {\"O\": 1}, \"13\": {\"O\": 1}, \"14\": {\"O\": 1}, \"15\": {\"O\": 1}, \"16\": {\"O\": 1}, \"17\": {\"O\": 1}, \"18\": {\"O\": 1}, \"19\": {\"O\": 1}}" n_minim_iter=5 energy=-22573.46018152332 stress="0.08753224030800116 6.10457245834425e-13 1.5934205503988388e-12 6.10457245834425e-13 0.08710944011721353 1.2193721884678122e-12 1.5934205503988388e-12 1.2193721884678122e-12 0.08734527087552865" free_energy=-22573.46018152332 pbc="T T T"
In       1.47114400       3.03162635       0.97241606        0       0.00487566       0.01237128       0.01118479
In       1.46955042       0.14312527       3.28213168        1      -0.00487566       0.01237128      -0.01118479
In       1.46955042       2.74537581       5.22696381        2      -0.00487566      -0.01237128       0.01118479
In       1.47114400       5.63387689       7.53667942        3       0.00487566      -0.01237128      -0.01118479
In       4.41024483       2.74537581       7.53667942        4      -0.00487566      -0.01237128      -0.01118479
In       4.41183842       5.63387689       5.22696381        5       0.00487566      -0.01237128       0.01118479
In       4.41183842       3.03162635       3.28213168        6       0.00487566       0.01237128      -0.01118479
In       4.41024483       0.14312527       0.97241606        7      -0.00487566       0.01237128       0.01118479
O        2.29319602       3.46910146       7.20753660        8      -0.00137245      -0.00103424       0.00212424
O        0.64749840       0.58060038       5.55610662        9       0.00137245      -0.00103424      -0.00212424
O        0.64749840       2.30790071       2.95298886       10       0.00137245       0.00103424       0.00212424
O        2.29319602       5.19640179       1.30155888       11      -0.00137245       0.00103424      -0.00212424
O        3.58819281       2.30790071       1.30155888       12       0.00137245       0.00103424      -0.00212424
O        5.23389044       5.19640179       2.95298886       13      -0.00137245       0.00103424       0.00212424
O        5.23389044       3.46910146       5.55610662       14      -0.00137245      -0.00103424      -0.00212424
O        3.58819281       0.58060038       7.20753660       15       0.00137245      -0.00103424       0.00212424
O        5.59072383       4.33275162      -0.00000000       16       0.01666931       0.00000000       0.00000000
O        3.23135943       1.44425054       4.25454774       17      -0.01666931       0.00000000      -0.00000000
O        0.29066501       1.44425054      -0.00000000       18      -0.01666931       0.00000000       0.00000000
O        2.65002941       4.33275162       4.25454774       19       0.01666931       0.00000000      -0.00000000
20
Lattice="5.879186672167574 1.8931259480422278e-59 -2.837563621827143e-42 2.980012625310774e-60 5.778673156597656 3.971672082311189e-17 4.3943114607794816e-42 -6.136150164312088e-17 8.509821269424595" Properties=species:S:1:pos:R:3:spacegroup_kinds:I:1:forces:R:3 spacegroup="P 1" unit_cell=conventional occupancy="_JSON {\"0\": {\"In\": 1}, \"1\": {\"In\": 1}, \"2\": {\"In\": 1}, \"3\": {\"In\": 1}, \"4\": {\"In\": 1}, \"5\": {\"In\": 1}, \"6\": {\"In\": 1}, \"7\": {\"In\": 1}, \"8\": {\"O\": 1}, \"9\": {\"O\": 1}, \"10\": {\"O\": 1}, \"11\": {\"O\": 1}, \"12\": {\"O\": 1}, \"13\": {\"O\": 1}, \"14\": {\"O\": 1}, \"15\": {\"O\": 1}, \"16\": {\"O\": 1}, \"17\": {\"O\": 1}, \"18\": {\"O\": 1}, \"19\": {\"O\": 1}}" n_minim_iter=6 energy=-22573.460398904794 stress="0.08724189702421291 1.4285356974540888e-12 -1.2281739979533057e-12 1.4285356974540888e-12 0.08725764955057924 1.273991702730965e-12 -1.2281739979533057e-12 1.273991702730965e-12 0.08726782285874549" free_energy=-22573.460398904794 pbc="T T T"
In       1.47120326       3.03387731       0.97411566        0      -0.01130261       0.00718830       0.00001047
In       1.46839007       0.14454073       3.28079498        1       0.01130261       0.00718830      -0.00001047
In       1.46839007       2.74479585       5.22902629        2       0.01130261      -0.00718830       0.00001047
In       1.47120326       5.63413243       7.53570561        3      -0.01130261      -0.00718830      -0.00001047
In       4.40798341       2.74479585       7.53570561        4       0.01130261      -0.00718830      -0.00001047
In       4.41079660       5.63413243       5.22902629        5      -0.01130261      -0.00718830       0.00001047
In       4.41079660       3.03387731       3.28079498        6      -0.01130261       0.00718830      -0.00001047
In       4.40798341       0.14454073       0.97411566        7       0.01130261       0.00718830       0.00001047
O        2.29201726       3.46906147       7.20793756        8       0.00277314      -0.00048830       0.00269173
O        0.64757607       0.57972489       5.55679435        9      -0.00277314      -0.00048830      -0.00269173
O        0.64757607       2.30961169       2.95302692       10      -0.00277314       0.00048830       0.00269173
O        2.29201726       5.19894827       1.30188371       11       0.00277314       0.00048830      -0.00269173
O        3.58716941       2.30961169       1.30188371       12      -0.00277314       0.00048830      -0.00269173
O        5.23161060       5.19894827       2.95302692       13       0.00277314       0.00048830       0.00269173
O        5.23161060       3.46906147       5.55679435       14       0.00277314      -0.00048830      -0.00269173
O        3.58716941       0.57972489       7.20793756       15      -0.00277314      -0.00048830       0.00269173
O        5.58987428       4.33400487      -0.00000000       16      -0.00280132      -0.00000000      -0.00000000
O        3.22890573       1.44466829       4.25491063       17       0.00280132      -0.00000000       0.00000000
O        0.28931239       1.44466829      -0.00000000       18       0.00280132      -0.00000000       0.00000000
O        2.65028095       4.33400487       4.25491063       19      -0.00280132      -0.00000000       0.00000000
20
Lattice="5.876329060183098 1.9135182024929866e-59 -6.471174263198795e-42 -2.79639316361066e-60 5.781775125861151 3.9714716042857634e-17 3.174233380300927e-42 -6.139444025842252e-17 8.509391719318376" Properties=species:S:1:pos:R:3:spacegroup_kinds:I:1:forces:R:3 spacegroup="P 1" unit_cell=conventional occupancy="_JSON {\"0\": {\"In\": 1}, \"1\": {\"In\": 1}, \"2\": {\"In\": 1}, \"3\": {\"In\": 1}, \"4\": {\"In\": 1}, \"5\": {\"In\": 1}, \"6\": {\"In\": 1}, \"7\": {\"In\": 1}, \"8\": {\"O\": 1}, \"9\": {\"O\": 1}, \"10\": {\"O\": 1}, \"11\": {\"O\": 1}, \"12\": {\"O\": 1}, \"13\": {\"O\": 1}, \"14\": {\"O\": 1}, \"15\": {\"O\": 1}, \"16\": {\"O\": 1}, \"17\": {\"O\": 1}, \"18\": {\"O\": 1}, \"19\": {\"O\": 1}}" n_minim_iter=7 energy=-22573.46061353066 stress="0.0872358766924118 -7.630491339111487e-13 -1.6770052490512202e-12 -7.630491339111487e-13 0.08715317437110431 2.576753558931528e-12 -1.6770052490512202e-12 2.576753558931528e-12 0.08688639258364365" free_energy=-22573.46061353066 pbc="T T T"
In       1.46792661       3.03866186       0.97586230        0       0.00050705      -0.00073764      -0.00232150
In       1.47023792       0.14777430       3.27883356        1      -0.00050705      -0.00073764       0.00232150
In       1.47023792       2.74311326       5.23055816        2      -0.00050705       0.00073764      -0.00232150
In       1.46792661       5.63400083       7.53352942        3       0.00050705       0.00073764       0.00232150
In       4.40840245       2.74311326       7.53352942        4      -0.00050705       0.00073764       0.00232150
In       4.40609114       5.63400083       5.23055816        5       0.00050705       0.00073764      -0.00232150
In       4.40609114       3.03866186       3.27883356        6       0.00050705      -0.00073764       0.00232150
In       4.40840245       0.14777430       0.97586230        7      -0.00050705      -0.00073764      -0.00232150
O        2.29123341       3.46913658       7.20785855        8       0.00733911      -0.00266240       0.00015326
O        0.64693112       0.57824901       5.55622902        9      -0.00733911      -0.00266240      -0.00015326
O        0.64693112       2.31263855       2.95316269       10      -0.00733911       0.00266240       0.00015326
O        2.29123341       5.20352611       1.30153316       11       0.00733911       0.00266240      -0.00015326
O        3.58509565       2.31263855       1.30153316       12      -0.00733911       0.00266240      -0.00015326
O        5.22939794       5.20352611       2.95316269       13       0.00733911       0.00266240       0.00015326
O        5.22939794       3.46913658       5.55622902       14       0.00733911      -0.00266240      -0.00015326
O        3.58509565       0.57824901       7.20785855       15      -0.00733911      -0.00266240       0.00015326
O        5.58701441       4.33633134      -0.00000000       16       0.00396480      -0.00000000      -0.00000000
O        3.22747918       1.44544378       4.25469586       17      -0.00396480      -0.00000000       0.00000000
O        0.28931465       1.44544378      -0.00000000       18      -0.00396480      -0.00000000       0.00000000
O        2.64884988       4.33633134       4.25469586       19       0.00396480      -0.00000000      -0.00000000
