20
Lattice="5.593732000000001 0.0 0.0 0.0 5.688408 0.0 0.0 0.0 8.082655000000003" Properties=species:S:1:pos:R:3:spacegroup_kinds:I:1:forces:R:3 spacegroup="P 1" unit_cell=conventional occupancy="_JSON {\"0\": {\"In\": 1}, \"1\": {\"In\": 1}, \"2\": {\"In\": 1}, \"3\": {\"In\": 1}, \"4\": {\"In\": 1}, \"5\": {\"In\": 1}, \"6\": {\"In\": 1}, \"7\": {\"In\": 1}, \"8\": {\"O\": 1}, \"9\": {\"O\": 1}, \"10\": {\"O\": 1}, \"11\": {\"O\": 1}, \"12\": {\"O\": 1}, \"13\": {\"O\": 1}, \"14\": {\"O\": 1}, \"15\": {\"O\": 1}, \"16\": {\"O\": 1}, \"17\": {\"O\": 1}, \"18\": {\"O\": 1}, \"19\": {\"O\": 1}}" n_minim_iter=1 energy=-22574.952706174616 stress="0.0024966467851143415 5.7012499877807e-13 -1.0458476735395905e-12 5.7012499877807e-13 0.0003006422302391312 1.6410886473860316e-12 -1.0458476735395905e-12 1.6410886473860316e-12 -0.0006744769742346816" free_energy=-22574.952706174616 pbc="T T T"
In       1.38447664       3.00681852       0.92905270        0       0.04505748       0.00485253      -0.00807881
In       1.41238936       0.16261452       3.11227480        1      -0.04505748       0.00485253       0.00807881
In       1.41238936       2.68158948       4.97038020        2      -0.04505748      -0.00485253      -0.00807881
In       1.38447664       5.52579348       7.15360230        3       0.04505748      -0.00485253       0.00807881
In       4.20925536       2.68158948       7.15360230        4      -0.04505748      -0.00485253       0.00807881
In       4.18134264       5.52579348       4.97038020        5       0.04505748      -0.00485253      -0.00807881
In       4.18134264       3.00681852       3.11227480        6       0.04505748       0.00485253       0.00807881
In       4.20925536       0.16261452       0.92905270        7      -0.04505748       0.00485253      -0.00807881
O        2.18204773       3.43912046       6.86822800        8       0.00498397      -0.01628004      -0.05445499
O        0.61481827       0.59491646       5.25575450        9      -0.00498397      -0.01628004       0.05445499
O        0.61481827       2.24928754       2.82690050       10      -0.00498397       0.01628004      -0.05445499
O        2.18204773       5.09349154       1.21442700       11       0.00498397       0.01628004       0.05445499
O        3.41168427       2.24928754       1.21442700       12      -0.00498397       0.01628004       0.05445499
O        4.97891373       5.09349154       2.82690050       13       0.00498397       0.01628004      -0.05445499
O        4.97891373       3.43912046       5.25575450       14       0.00498397      -0.01628004       0.05445499
O        3.41168427       0.59491646       6.86822800       15      -0.00498397      -0.01628004      -0.05445499
O        5.35463352       4.26630600      -0.00000000       16       0.03147883      -0.00000000      -0.00000000
O        3.03596448       1.42210200       4.04132750       17      -0.03147883      -0.00000000       0.00000000
O        0.23909848       1.42210200      -0.00000000       18      -0.03147883      -0.00000000       0.00000000
O        2.55776752       4.26630600       4.04132750       19       0.03147883      -0.00000000       0.00000000
20
Lattice="5.583581834519578 0.0 0.0 0.0 5.687164052874945 0.0 0.0 0.0 8.086621764395261" Properties=species:S:1:pos:R:3:spacegroup_kinds:I:1:forces:R:3 spacegroup="P 1" unit_cell=conventional occupancy="_JSON {\"0\": {\"In\": 1}, \"1\": {\"In\": 1}, \"2\": {\"In\": 1}, \"3\": {\"In\": 1}, \"4\": {\"In\": 1}, \"5\": {\"In\": 1}, \"6\": {\"In\": 1}, \"7\": {\"In\": 1}, \"8\": {\"O\": 1}, \"9\": {\"O\": 1}, \"10\": {\"O\": 1}, \"11\": {\"O\": 1}, \"12\": {\"O\": 1}, \"13\": {\"O\": 1}, \"14\": {\"O\": 1}, \"15\": {\"O\": 1}, \"16\": {\"O\": 1}, \"17\": {\"O\": 1}, \"18\": {\"O\": 1}, \"19\": {\"O\": 1}}" n_minim_iter=2 energy=-22574.953356627047 stress="-0.0004189985096794684 6.593847314748029e-13 2.088830640896377e-12 6.593847314748029e-13 -0.0008087027064339912 7.361148978171804e-12 2.088830640896377e-12 7.361148978171804e-12 -0.000657824202716689" free_energy=-22574.953356627047 pbc="T T T"
In       1.38209164       3.00617471       0.92948579        0       0.03308150       0.00992983      -0.00650632
In       1.40969928       0.16259268       3.11382509        1      -0.03308150       0.00992983       0.00650632
In       1.40969928       2.68098934       4.97279668        2      -0.03308150      -0.00992983      -0.00650632
In       1.38209164       5.52457137       7.15713597        3       0.03308150      -0.00992983       0.00650632
In       4.20149020       2.68098934       7.15713597        4      -0.03308150      -0.00992983       0.00650632
In       4.17388256       5.52457137       4.97279668        5       0.03308150      -0.00992983      -0.00650632
In       4.17388256       3.00617471       3.11382509        6       0.03308150       0.00992983       0.00650632
In       4.20149020       0.16259268       0.92948579        7      -0.03308150       0.00992983      -0.00650632
O        2.17810234       3.43832235       6.87144465        8      -0.00028510      -0.01212266      -0.05632041
O        0.61368857       0.59474032       5.25848800        9       0.00028510      -0.01212266       0.05632041
O        0.61368857       2.24884170       2.82813377       10       0.00028510       0.01212266      -0.05632041
O        2.17810234       5.09242373       1.21517711       11      -0.00028510       0.01212266       0.05632041
O        3.40547949       2.24884170       1.21517711       12       0.00028510       0.01212266       0.05632041
O        4.96989326       5.09242373       2.82813377       13      -0.00028510       0.01212266      -0.05632041
O        4.96989326       3.43832235       5.25848800       14      -0.00028510      -0.01212266       0.05632041
O        3.40547949       0.59474032       6.87144465       15       0.00028510      -0.01212266      -0.05632041
O        5.34500609       4.26537304      -0.00000000       16       0.02885299      -0.00000000       0.00000000
O        3.03036666       1.42179101       4.04331088       17      -0.02885299       0.00000000      -0.00000000
O        0.23857574       1.42179101      -0.00000000       18      -0.02885299       0.00000000       0.00000000
O        2.55321517       4.26537304       4.04331088       19       0.02885299      -0.00000000      -0.00000000
20
Lattice="5.582670357363967 -6.983989189413103e-63 -1.2236103180847016e-43 0.0 5.690011738823297 3.5610155342201364e-19 1.5965840633438675e-43 5.059844514096398e-19 8.091257709179846" Properties=species:S:1:pos:R:3:spacegroup_kinds:I:1:forces:R:3 spacegroup="P 1" unit_cell=conventional occupancy="_JSON {\"0\": {\"In\": 1}, \"1\": {\"In\": 1}, \"2\": {\"In\": 1}, \"3\": {\"In\": 1}, \"4\": {\"In\": 1}, \"5\": {\"In\": 1}, \"6\": {\"In\": 1}, \"7\": {\"In\": 1}, \"8\": {\"O\": 1}, \"9\": {\"O\": 1}, \"10\": {\"O\": 1}, \"11\": {\"O\": 1}, \"12\": {\"O\": 1}, \"13\": {\"O\": 1}, \"14\": {\"O\": 1}, \"15\": {\"O\": 1}, \"16\": {\"O\": 1}, \"17\": {\"O\": 1}, \"18\": {\"O\": 1}, \"19\": {\"O\": 1}}" n_minim_iter=3 energy=-22574.95351649054 stress="-0.00022500077022502563 -3.3594631072685565e-12 -7.49477867194988e-13 -3.3594631072685565e-12 0.00029924057351080394 -1.1604606546751893e-12 -7.49477867194988e-13 -1.1604606546751893e-12 0.000544889549045725" free_energy=-22574.95351649054 pbc="T T T"
In       1.38198565       3.00770991       0.92999557        0       0.02793252       0.00864678      -0.00667315
In       1.40934953       0.16270404       3.11563329        1      -0.02793252       0.00864678       0.00667315
In       1.40934953       2.68230183       4.97562442        2      -0.02793252      -0.00864678      -0.00667315
In       1.38198565       5.52730770       7.16126214        3       0.02793252      -0.00864678       0.00667315
In       4.20068471       2.68230183       7.16126214        4      -0.02793252      -0.00864678       0.00667315
In       4.17332083       5.52730770       4.97562442        5       0.02793252      -0.00864678      -0.00667315
In       4.17332083       3.00770991       3.11563329        6       0.02793252       0.00864678       0.00667315
In       4.20068471       0.16270404       0.92999557        7      -0.02793252       0.00864678      -0.00667315
O        2.17774952       3.44000017       6.87519496        8      -0.00033415      -0.01245722      -0.05619394
O        0.61358566       0.59499430       5.26169160        9       0.00033415      -0.01245722       0.05619394
O        0.61358566       2.25001157       2.82956611       10       0.00033415       0.01245722      -0.05619394
O        2.17774952       5.09501744       1.21606274       11      -0.00033415       0.01245722       0.05619394
O        3.40492084       2.25001157       1.21606274       12       0.00033415       0.01245722       0.05619394
O        4.96908470       5.09501744       2.82956611       13      -0.00033415       0.01245722      -0.05619394
O        4.96908470       3.44000017       5.26169160       14      -0.00033415      -0.01245722       0.05619394
O        3.40492084       0.59499430       6.87519496       15       0.00033415      -0.01245722      -0.05619394
O        5.34423241       4.26750880      -0.00000000       16       0.02341359      -0.00000000       0.00000000
O        3.02977312       1.42250293       4.04562885       17      -0.02341359       0.00000000       0.00000000
O        0.23843794       1.42250293      -0.00000000       18      -0.02341359       0.00000000       0.00000000
O        2.55289724       4.26750880       4.04562885       19       0.02341359       0.00000000      -0.00000000
20
Lattice="5.584071685067164 -1.4165470701254866e-62 -3.3822329896957686e-44 -3.3298162295687876e-62 5.693844445136773 1.5627851008740626e-18 -1.6147197571834522e-43 2.2214620744879523e-18 8.082287010027969" Properties=species:S:1:pos:R:3:spacegroup_kinds:I:1:forces:R:3 spacegroup="P 1" unit_cell=conventional occupancy="_JSON {\"0\": {\"In\": 1}, \"1\": {\"In\": 1}, \"2\": {\"In\": 1}, \"3\": {\"In\": 1}, \"4\": {\"In\": 1}, \"5\": {\"In\": 1}, \"6\": {\"In\": 1}, \"7\": {\"In\": 1}, \"8\": {\"O\": 1}, \"9\": {\"O\": 1}, \"10\": {\"O\": 1}, \"11\": {\"O\": 1}, \"12\": {\"O\": 1}, \"13\": {\"O\": 1}, \"14\": {\"O\": 1}, \"15\": {\"O\": 1}, \"16\": {\"O\": 1}, \"17\": {\"O\": 1}, \"18\": {\"O\": 1}, \"19\": {\"O\": 1}}" n_minim_iter=4 energy=-22574.954896052426 stress="-0.00010883561592348273 -1.793671566706925e-12 5.815171540412108e-12 -1.793671566706925e-12 0.0011334213600414842 1.9315552986304644e-12 5.815171540412108e-12 1.9315552986304644e-12 -0.0008442430698809287" free_energy=-22574.954896052426 pbc="T T T"
In       1.38458562       3.01036409       0.92847405        0       0.01200893       0.00421068      -0.02738135
In       1.40745023       0.16344187       3.11266946        1      -0.01200893       0.00421068       0.02738135
In       1.40745023       2.68348035       4.96961755        2      -0.01200893      -0.00421068      -0.02738135
In       1.38458562       5.53040258       7.15381296        3       0.01200893      -0.00421068       0.02738135
In       4.19948607       2.68348035       7.15381296        4      -0.01200893      -0.00421068       0.02738135
In       4.17662146       5.53040258       4.96961755        5       0.01200893      -0.00421068      -0.02738135
In       4.17662146       3.01036409       3.11266946        6       0.01200893       0.00421068       0.02738135
In       4.19948607       0.16344187       0.92847405        7      -0.01200893       0.00421068      -0.02738135
O        2.17831128       3.44139333       6.86350651        8       0.00289052      -0.00519240       0.00041367
O        0.61372456       0.59447111       5.25992401        9      -0.00289052      -0.00519240      -0.00041367
O        0.61372456       2.25245111       2.82236300       10      -0.00289052       0.00519240       0.00041367
O        2.17831128       5.09937333       1.21878050       11       0.00289052       0.00519240      -0.00041367
O        3.40576040       2.25245111       1.21878050       12      -0.00289052       0.00519240      -0.00041367
O        4.97034712       5.09937333       2.82236300       13       0.00289052       0.00519240       0.00041367
O        4.97034712       3.44139333       5.25992401       14       0.00289052      -0.00519240      -0.00041367
O        3.40576040       0.59447111       6.86350651       15      -0.00289052      -0.00519240       0.00041367
O        5.34744190       4.27038333      -0.00000000       16       0.00055636      -0.00000000      -0.00000000
O        3.02866563       1.42346111       4.04114351       17      -0.00055636      -0.00000000       0.00000000
O        0.23662979       1.42346111      -0.00000000       18      -0.00055636      -0.00000000       0.00000000
O        2.55540606       4.27038333       4.04114351       19       0.00055636      -0.00000000      -0.00000000
20
Lattice="5.586669298565804 -1.4974197867679832e-62 -3.9495695004660856e-44 -3.716213898127921e-62 5.687832848053411 1.6916321012052997e-18 -1.81736226915108e-43 2.4004439754487278e-18 8.08866123033333" Properties=species:S:1:pos:R:3:spacegroup_kinds:I:1:forces:R:3 spacegroup="P 1" unit_cell=conventional occupancy="_JSON {\"0\": {\"In\": 1}, \"1\": {\"In\": 1}, \"2\": {\"In\": 1}, \"3\": {\"In\": 1}, \"4\": {\"In\": 1}, \"5\": {\"In\": 1}, \"6\": {\"In\": 1}, \"7\": {\"In\": 1}, \"8\": {\"O\": 1}, \"9\": {\"O\": 1}, \"10\": {\"O\": 1}, \"11\": {\"O\": 1}, \"12\": {\"O\": 1}, \"13\": {\"O\": 1}, \"14\": {\"O\": 1}, \"15\": {\"O\": 1}, \"16\": {\"O\": 1}, \"17\": {\"O\": 1}, \"18\": {\"O\": 1}, \"19\": {\"O\": 1}}" n_minim_iter=5 energy=-22574.95519837536 stress="0.0002948210734230073 5.635999726912139e-12 7.625265645575654e-12 5.635999726912139e-12 9.090595985743416e-05 3.32713098504343e-12 7.625265645575654e-12 3.32713098504343e-12 5.1627165744283795e-05" free_energy=-22574.95519837536 pbc="T T T"
In       1.38576056       3.00734067       0.92897682        0       0.00746690      -0.00564639      -0.02145238
In       1.40757409       0.16342425       3.11535379        1      -0.00746690      -0.00564639       0.02145238
In       1.40757409       2.68049217       4.97330744        2      -0.00746690       0.00564639      -0.02145238
In       1.38576056       5.52440860       7.15968441        3       0.00746690       0.00564639       0.02145238
In       4.20090874       2.68049217       7.15968441        4      -0.00746690       0.00564639       0.02145238
In       4.17909521       5.52440860       4.97330744        5       0.00746690       0.00564639      -0.02145238
In       4.17909521       3.00734067       3.11535379        6       0.00746690      -0.00564639       0.02145238
In       4.20090874       0.16342425       0.92897682        7      -0.00746690      -0.00564639      -0.02145238
O        2.17933907       3.43754114       6.86805435        8       0.00137881      -0.00504885       0.00747923
O        0.61399558       0.59362472       5.26493750        9      -0.00137881      -0.00504885      -0.00747922
O        0.61399558       2.25029171       2.82372373       10      -0.00137881       0.00504885       0.00747923
O        2.17933907       5.09420813       1.22060688       11       0.00137881       0.00504885      -0.00747922
O        3.40733023       2.25029171       1.22060688       12      -0.00137881       0.00504885      -0.00747922
O        4.97267372       5.09420813       2.82372373       13       0.00137881       0.00504885       0.00747922
O        4.97267372       3.43754114       5.26493750       14       0.00137881      -0.00504885      -0.00747922
O        3.40733023       0.59362472       6.86805435       15      -0.00137881      -0.00504885       0.00747922
O        5.35032944       4.26587464      -0.00000000       16      -0.00040451      -0.00000000       0.00000000
O        3.02967451       1.42195821       4.04433062       17       0.00040451       0.00000000      -0.00000000
O        0.23633986       1.42195821      -0.00000000       18       0.00040451       0.00000000       0.00000000
O        2.55699479       4.26587464       4.04433062       19      -0.00040451       0.00000000       0.00000000
20
Lattice="5.583641005995989 -3.0429404041351703e-62 -5.722775749191257e-43 6.1987777489829935e-62 5.6876823045719656 1.7249131644056016e-18 3.3134634505092385e-43 2.4477473269781296e-18 8.088395352692421" Properties=species:S:1:pos:R:3:spacegroup_kinds:I:1:forces:R:3 spacegroup="P 1" unit_cell=conventional occupancy="_JSON {\"0\": {\"In\": 1}, \"1\": {\"In\": 1}, \"2\": {\"In\": 1}, \"3\": {\"In\": 1}, \"4\": {\"In\": 1}, \"5\": {\"In\": 1}, \"6\": {\"In\": 1}, \"7\": {\"In\": 1}, \"8\": {\"O\": 1}, \"9\": {\"O\": 1}, \"10\": {\"O\": 1}, \"11\": {\"O\": 1}, \"12\": {\"O\": 1}, \"13\": {\"O\": 1}, \"14\": {\"O\": 1}, \"15\": {\"O\": 1}, \"16\": {\"O\": 1}, \"17\": {\"O\": 1}, \"18\": {\"O\": 1}, \"19\": {\"O\": 1}}" n_minim_iter=6 energy=-22574.95534885618 stress="-0.0008047515057730736 7.015495918753631e-12 -1.1866624909090136e-12 7.015495918753631e-12 -0.0004221442224963763 2.6969633010783436e-12 -1.1866624909090136e-12 2.6969633010783436e-12 -2.139050672681827e-05" free_energy=-22574.95534885618 pbc="T T T"
In       1.38553448       3.00705060       0.92777578        0       0.00068745      -0.00306993      -0.01120575
In       1.40628602       0.16320945       3.11642190        1      -0.00068745      -0.00306993       0.01120575
In       1.40628602       2.68063170       4.97197346        2      -0.00068745       0.00306993      -0.01120575
In       1.38553448       5.52447285       7.16061957        3       0.00068745       0.00306993       0.01120575
In       4.19810652       2.68063170       7.16061957        4      -0.00068745       0.00306993       0.01120575
In       4.17735499       5.52447285       4.97197346        5       0.00068745       0.00306993      -0.01120575
In       4.17735499       3.00705060       3.11642190        6       0.00068745      -0.00306993       0.01120575
In       4.19810652       0.16320945       0.92777578        7      -0.00068745      -0.00306993      -0.01120575
O        2.17821130       3.43713252       6.86789511        8      -0.00521349      -0.00059286       0.00121163
O        0.61360920       0.59329137       5.26469792        9       0.00521349      -0.00059286      -0.00121163
O        0.61360920       2.25054979       2.82369743       10       0.00521349       0.00059286       0.00121163
O        2.17821130       5.09439094       1.22050024       11      -0.00521349       0.00059286      -0.00121163
O        3.40542970       2.25054979       1.22050024       12       0.00521349       0.00059286      -0.00121163
O        4.97003180       5.09439094       2.82369743       13      -0.00521349       0.00059286       0.00121163
O        4.97003180       3.43713252       5.26469792       14      -0.00521349      -0.00059286      -0.00121163
O        3.40542970       0.59329137       6.86789511       15       0.00521349      -0.00059286       0.00121163
O        5.34754663       4.26576173      -0.00000000       16       0.00079262      -0.00000000       0.00000000
O        3.02791488       1.42192058       4.04419768       17      -0.00079262       0.00000000       0.00000000
O        0.23609438       1.42192058      -0.00000000       18      -0.00079262       0.00000000      -0.00000000
O        2.55572613       4.26576173       4.04419768       19       0.00079262      -0.00000000      -0.00000000
20
Lattice="5.586622650835538 -4.616799947578502e-62 -5.3908895599599234e-43 6.906802083622682e-62 5.689124850882577 1.8835146889963625e-18 3.631743012610106e-43 2.6745367628185118e-18 8.08571621739629" Properties=species:S:1:pos:R:3:spacegroup_kinds:I:1:forces:R:3 spacegroup="P 1" unit_cell=conventional occupancy="_JSON {\"0\": {\"In\": 1}, \"1\": {\"In\": 1}, \"2\": {\"In\": 1}, \"3\": {\"In\": 1}, \"4\": {\"In\": 1}, \"5\": {\"In\": 1}, \"6\": {\"In\": 1}, \"7\": {\"In\": 1}, \"8\": {\"O\": 1}, \"9\": {\"O\": 1}, \"10\": {\"O\": 1}, \"11\": {\"O\": 1}, \"12\": {\"O\": 1}, \"13\": {\"O\": 1}, \"14\": {\"O\": 1}, \"15\": {\"O\": 1}, \"16\": {\"O\": 1}, \"17\": {\"O\": 1}, \"18\": {\"O\": 1}, \"19\": {\"O\": 1}}" n_minim_iter=7 energy=-22574.95549281073 stress="2.8959837078051197e-05 -9.57115884681096e-12 -1.5948951877544898e-12 -9.57115884681096e-12 7.445616163797158e-05 -2.5530419910419508e-12 -1.5948951877544898e-12 -2.5530419910419508e-12 1.9819133465726824e-05" free_energy=-22574.95549281073 pbc="T T T"
In       1.38701910       3.00752971       0.92594520        0      -0.00179413      -0.00444195      -0.00058204
In       1.40629222       0.16296728       3.11691291        1       0.00179413      -0.00444195       0.00058204
In       1.40629222       2.68159514       4.96880331        2       0.00179413       0.00444195      -0.00058204
In       1.38701910       5.52615757       7.15977102        3      -0.00179413       0.00444195       0.00058204
In       4.19960355       2.68159514       7.15977102        4       0.00179413       0.00444195       0.00058204
In       4.18033043       5.52615757       4.96880331        5      -0.00179413       0.00444195      -0.00058204
In       4.18033043       3.00752971       3.11691291        6      -0.00179413      -0.00444195       0.00058204
In       4.19960355       0.16296728       0.92594520        7       0.00179413      -0.00444195      -0.00058204
O        2.17930965       3.43759193       6.86547854        8      -0.00715978       0.00158463      -0.00078331
O        0.61400168       0.59302950       5.26309579        9       0.00715978       0.00158463       0.00078331
O        0.61400168       2.25153292       2.82262043       10       0.00715978      -0.00158463      -0.00078331
O        2.17930965       5.09609535       1.22023768       11      -0.00715978      -0.00158463       0.00078331
O        3.40731300       2.25153292       1.22023768       12       0.00715978      -0.00158463       0.00078331
O        4.97262097       5.09609535       2.82262043       13      -0.00715978      -0.00158463      -0.00078331
O        4.97262097       3.43759193       5.26309579       14      -0.00715978       0.00158463       0.00078331
O        3.40731300       0.59302950       6.86547854       15       0.00715978       0.00158463      -0.00078331
O        5.35066009       4.26684364      -0.00000000       16       0.00130877       0.00000000       0.00000000
O        3.02927389       1.42228121       4.04285811       17      -0.00130877      -0.00000000      -0.00000000
O        0.23596256       1.42228121      -0.00000000       18      -0.00130877      -0.00000000       0.00000000
O        2.55734876       4.26684364       4.04285811       19       0.00130877       0.00000000       0.00000000
