20
Lattice="5.891634295871495 2.5385421991325315e-59 -3.404858217554089e-42 3.173405402758219e-60 5.779930465573355 -5.97972169131045e-17 3.487648760329613e-42 -5.979007189261605e-17 8.489994807168998" Properties=species:S:1:pos:R:3:spacegroup_kinds:I:1:forces:R:3 spacegroup="P 1" unit_cell=conventional occupancy="_JSON {\"0\": {\"In\": 1}, \"1\": {\"In\": 1}, \"2\": {\"In\": 1}, \"3\": {\"In\": 1}, \"4\": {\"In\": 1}, \"5\": {\"In\": 1}, \"6\": {\"In\": 1}, \"7\": {\"In\": 1}, \"8\": {\"O\": 1}, \"9\": {\"O\": 1}, \"10\": {\"O\": 1}, \"11\": {\"O\": 1}, \"12\": {\"O\": 1}, \"13\": {\"O\": 1}, \"14\": {\"O\": 1}, \"15\": {\"O\": 1}, \"16\": {\"O\": 1}, \"17\": {\"O\": 1}, \"18\": {\"O\": 1}, \"19\": {\"O\": 1}}" n_minim_iter=8 energy=-22573.95327056686 stress="0.06570281904419405 6.247664246528622e-13 -4.487686161326061e-12 6.247664246528622e-13 0.0659510920015163 -3.164310702051804e-12 -4.487686161326061e-12 -3.164310702051804e-12 0.06583650056770489" free_energy=-22573.95327056686 pbc="T T T"
In       1.47473872       3.03460421       0.96839388        0      -0.00497452      -0.00559322       0.00283586
In       1.47107843       0.14463898       3.27660353        1       0.00497452      -0.00559322      -0.00283586
In       1.47107843       2.74532626       5.21339128        2       0.00497452       0.00559322       0.00283586
In       1.47473872       5.63529149       7.52160093        3      -0.00497452       0.00559322      -0.00283586
In       4.41689558       2.74532626       7.52160093        4       0.00497452       0.00559322      -0.00283586
In       4.42055586       5.63529149       5.21339128        5      -0.00497452       0.00559322       0.00283586
In       4.42055586       3.03460421       3.27660353        6      -0.00497452      -0.00559322      -0.00283586
In       4.41689558       0.14463898       0.96839388        7       0.00497452      -0.00559322       0.00283586
O        2.29814171       3.47666122       7.19377013        8      -0.00412792       0.00005371       0.00717504
O        0.64767544       0.58669599       5.54122208        9       0.00412792       0.00005371      -0.00717504
O        0.64767544       2.30326925       2.94877273       10       0.00412792      -0.00005371       0.00717504
O        2.29814171       5.19323448       1.29622467       11      -0.00412791      -0.00005371      -0.00717504
O        3.59349259       2.30326925       1.29622467       12       0.00412792      -0.00005371      -0.00717504
O        5.24395885       5.19323448       2.94877273       13      -0.00412791      -0.00005371       0.00717504
O        5.24395885       3.47666122       5.54122208       14      -0.00412792       0.00005371      -0.00717504
O        3.59349259       0.58669599       7.19377013       15       0.00412791       0.00005371       0.00717504
O        5.60626599       4.33494785      -0.00000000       16      -0.00859759      -0.00000000      -0.00000000
O        3.23118545       1.44498262       4.24499740       17       0.00859759       0.00000000      -0.00000000
O        0.28536831       1.44498262      -0.00000000       18       0.00859759      -0.00000000       0.00000000
O        2.66044884       4.33494785       4.24499740       19      -0.00859759      -0.00000000       0.00000000
