20
Lattice="5.919538913888439 -1.1824747840764682e-59 -2.20814820098094e-42 2.730970686404154e-59 5.82428970508008 4.202168828760034e-17 3.1975741698626925e-42 -6.184588617894849e-17 8.57196302319661" Properties=species:S:1:pos:R:3:spacegroup_kinds:I:1:forces:R:3 spacegroup="P 1" unit_cell=conventional occupancy="_JSON {\"0\": {\"In\": 1}, \"1\": {\"In\": 1}, \"2\": {\"In\": 1}, \"3\": {\"In\": 1}, \"4\": {\"In\": 1}, \"5\": {\"In\": 1}, \"6\": {\"In\": 1}, \"7\": {\"In\": 1}, \"8\": {\"O\": 1}, \"9\": {\"O\": 1}, \"10\": {\"O\": 1}, \"11\": {\"O\": 1}, \"12\": {\"O\": 1}, \"13\": {\"O\": 1}, \"14\": {\"O\": 1}, \"15\": {\"O\": 1}, \"16\": {\"O\": 1}, \"17\": {\"O\": 1}, \"18\": {\"O\": 1}, \"19\": {\"O\": 1}}" n_minim_iter=1 energy=-22572.837845078015 stress="0.11007571933242463 3.0347884355495075e-13 -2.919458262393609e-13 3.0347884355495075e-13 0.10461850461628497 3.2187531656906356e-13 -2.919458262393609e-13 3.2187531656906356e-13 0.1037828787905695" free_energy=-22572.837845078015 pbc="T T T"
In       1.47872057       3.06100577       0.98303801        0       0.00295036       0.02186989      -0.00552819
In       1.48104888       0.14886091       3.30294350        1      -0.00295036       0.02186989       0.00552819
In       1.48104888       2.76328394       5.26901953        2      -0.00295036      -0.02186989      -0.00552819
In       1.47872057       5.67542879       7.58892501        3       0.00295036      -0.02186989       0.00552819
In       4.44081834       2.76328394       7.58892501        4      -0.00295036      -0.02186989       0.00552819
In       4.43849003       5.67542879       5.26901953        5       0.00295036      -0.02186989      -0.00552819
In       4.43849003       3.06100577       3.30294350        6       0.00295036       0.02186989       0.00552819
In       4.44081834       0.14886091       0.98303801        7      -0.00295036       0.02186989      -0.00552819
O        2.30808132       3.49464585       7.26085942        8      -0.01031403      -0.04712652      -0.03692352
O        0.65168814       0.58250100       5.59708512        9       0.01031403      -0.04712652       0.03692352
O        0.65168814       2.32964385       2.97487791       10       0.01031403       0.04712652      -0.03692352
O        2.30808132       5.24178871       1.31110361       11      -0.01031403       0.04712652       0.03692352
O        3.61145759       2.32964385       1.31110361       12       0.01031403       0.04712652       0.03692352
O        5.26785078       5.24178871       2.97487791       13      -0.01031403       0.04712652      -0.03692352
O        5.26785078       3.49464585       5.59708512       14      -0.01031403      -0.04712652       0.03692352
O        3.61145759       0.58250100       7.26085942       15       0.01031403      -0.04712652      -0.03692352
O        5.62809687       4.36821728       0.00000000       16      -0.06277064       0.00000000       0.00000000
O        3.25121150       1.45607243       4.28598151       17       0.06277064       0.00000000       0.00000000
O        0.29144204       1.45607243       0.00000000       18       0.06277064       0.00000000       0.00000000
O        2.66832742       4.36821728       4.28598151       19      -0.06277064       0.00000000      -0.00000000
20
Lattice="5.8952679216038195 -1.1735921432937175e-59 -2.1636726265942522e-42 2.7548572799583096e-59 5.833709400106258 4.212656101761057e-17 3.23452908867818e-42 -6.194591028762586e-17 8.593355908642737" Properties=species:S:1:pos:R:3:spacegroup_kinds:I:1:forces:R:3 spacegroup="P 1" unit_cell=conventional occupancy="_JSON {\"0\": {\"In\": 1}, \"1\": {\"In\": 1}, \"2\": {\"In\": 1}, \"3\": {\"In\": 1}, \"4\": {\"In\": 1}, \"5\": {\"In\": 1}, \"6\": {\"In\": 1}, \"7\": {\"In\": 1}, \"8\": {\"O\": 1}, \"9\": {\"O\": 1}, \"10\": {\"O\": 1}, \"11\": {\"O\": 1}, \"12\": {\"O\": 1}, \"13\": {\"O\": 1}, \"14\": {\"O\": 1}, \"15\": {\"O\": 1}, \"16\": {\"O\": 1}, \"17\": {\"O\": 1}, \"18\": {\"O\": 1}, \"19\": {\"O\": 1}}" n_minim_iter=2 energy=-22572.841559498775 stress="0.1047413437160992 7.945515867120989e-13 1.8254108842069008e-12 7.945515867120989e-13 0.10410173611558385 5.490961837513955e-13 1.8254108842069008e-12 5.490961837513955e-13 0.1054219906760842" free_energy=-22572.841559498775 pbc="T T T"
In       1.47266803       3.06603412       0.98547169        0      -0.01590041       0.04189084       0.01184595
In       1.47496593       0.14917942       3.31120626        1       0.01590041       0.04189084      -0.01184594
In       1.47496593       2.76767528       5.28214965        2       0.01590041      -0.04189084       0.01184594
In       1.47266803       5.68452998       7.60788422        3      -0.01590041      -0.04189084      -0.01184594
In       4.42259989       2.76767528       7.60788422        4       0.01590041      -0.04189084      -0.01184595
In       4.42030199       5.68452998       5.28214965        5      -0.01590041      -0.04189084       0.01184594
In       4.42030199       3.06603412       3.31120626        6      -0.01590041       0.04189084      -0.01184594
In       4.42259989       0.14917942       0.98547169        7       0.01590041       0.04189084       0.01184595
O        2.29858138       3.50013024       7.27884882        8      -0.00788392      -0.05300042      -0.06560454
O        0.64905258       0.58327554       5.61118504        9       0.00788392      -0.05300042       0.06560454
O        0.64905258       2.33357916       2.98217087       10       0.00788392       0.05300042      -0.06560454
O        2.29858138       5.25043386       1.31450709       11      -0.00788392       0.05300042       0.06560454
O        3.59668654       2.33357916       1.31450709       12       0.00788392       0.05300042       0.06560454
O        5.24621534       5.25043386       2.98217087       13      -0.00788392       0.05300042      -0.06560454
O        5.24621534       3.50013024       5.61118504       14      -0.00788392      -0.05300042       0.06560454
O        3.59668654       0.58327554       7.27884882       15       0.00788392      -0.05300042      -0.06560454
O        5.60479895       4.37528205       0.00000000       16      -0.07216594       0.00000000       0.00000000
O        3.23810293       1.45842735       4.29667795       17       0.07216594      -0.00000000      -0.00000000
O        0.29046897       1.45842735       0.00000000       18       0.07216594       0.00000000       0.00000000
O        2.65716499       4.37528205       4.29667795       19      -0.07216594      -0.00000000      -0.00000000
20
Lattice="5.887866206626511 -1.0880611259091398e-59 -1.9987795012279415e-42 2.700864886744904e-59 5.8529195248128145 3.9948521976100804e-17 3.0992567839733764e-42 -6.524606420228737e-17 8.575918642773658" Properties=species:S:1:pos:R:3:spacegroup_kinds:I:1:forces:R:3 spacegroup="P 1" unit_cell=conventional occupancy="_JSON {\"0\": {\"In\": 1}, \"1\": {\"In\": 1}, \"2\": {\"In\": 1}, \"3\": {\"In\": 1}, \"4\": {\"In\": 1}, \"5\": {\"In\": 1}, \"6\": {\"In\": 1}, \"7\": {\"In\": 1}, \"8\": {\"O\": 1}, \"9\": {\"O\": 1}, \"10\": {\"O\": 1}, \"11\": {\"O\": 1}, \"12\": {\"O\": 1}, \"13\": {\"O\": 1}, \"14\": {\"O\": 1}, \"15\": {\"O\": 1}, \"16\": {\"O\": 1}, \"17\": {\"O\": 1}, \"18\": {\"O\": 1}, \"19\": {\"O\": 1}}" n_minim_iter=3 energy=-22572.8430251045 stress="0.10368459653367387 2.355517706003882e-13 -1.6809823950343327e-12 2.355517706003882e-13 0.10444513788908345 -5.097890759422414e-12 -1.6809823950343327e-12 -5.097890759422414e-12 0.10330159548147196" free_energy=-22572.8430251045 pbc="T T T"
In       1.47059635       3.07676045       0.98363623        0      -0.01315633       0.07220305       0.00128340
In       1.47333675       0.15030069       3.30432309        1       0.01315633       0.07220305      -0.00128340
In       1.47333675       2.77615908       5.27159555        2       0.01315633      -0.07220305       0.00128340
In       1.47059635       5.70261884       7.59228241        3      -0.01315633      -0.07220305      -0.00128340
In       4.41726985       2.77615908       7.59228241        4       0.01315633      -0.07220305      -0.00128340
In       4.41452946       5.70261884       5.27159555        5      -0.01315633      -0.07220305       0.00128340
In       4.41452946       3.07676045       3.30432309        6      -0.01315633       0.07220305      -0.00128340
In       4.41726985       0.15030069       0.98363623        7       0.01315633       0.07220305       0.00128340
O        2.29557172       3.51083669       7.26309273        8      -0.00324533      -0.06111090      -0.05111338
O        0.64836139       0.58437693       5.60078523        9       0.00324533      -0.06111090       0.05111338
O        0.64836139       2.34208283       2.97513341       10       0.00324533       0.06111090      -0.05111338
O        2.29557172       5.26854260       1.31282591       11      -0.00324533       0.06111090       0.05111338
O        3.59229449       2.34208283       1.31282591       12       0.00324533       0.06111090       0.05111338
O        5.23950482       5.26854260       2.97513341       13      -0.00324533       0.06111090      -0.05111338
O        5.23950482       3.51083669       5.60078523       14      -0.00324533      -0.06111090       0.05111338
O        3.59229449       0.58437693       7.26309273       15       0.00324533      -0.06111090      -0.05111338
O        5.59666521       4.38968964       0.00000000       16      -0.07050143       0.00000000       0.00000000
O        3.23513410       1.46322988       4.28795932       17       0.07050143       0.00000000      -0.00000000
O        0.29120100       1.46322988       0.00000000       18       0.07050143       0.00000000      -0.00000000
O        2.65273211       4.38968964       4.28795932       19      -0.07050143       0.00000000      -0.00000000
20
Lattice="5.8492354064102186 -1.0613808272572647e-59 -2.492957744845575e-42 2.8342617990855616e-59 5.906169834852999 3.984980219324885e-17 3.3250744371393786e-42 -6.583967789079691e-17 8.554726048297269" Properties=species:S:1:pos:R:3:spacegroup_kinds:I:1:forces:R:3 spacegroup="P 1" unit_cell=conventional occupancy="_JSON {\"0\": {\"In\": 1}, \"1\": {\"In\": 1}, \"2\": {\"In\": 1}, \"3\": {\"In\": 1}, \"4\": {\"In\": 1}, \"5\": {\"In\": 1}, \"6\": {\"In\": 1}, \"7\": {\"In\": 1}, \"8\": {\"O\": 1}, \"9\": {\"O\": 1}, \"10\": {\"O\": 1}, \"11\": {\"O\": 1}, \"12\": {\"O\": 1}, \"13\": {\"O\": 1}, \"14\": {\"O\": 1}, \"15\": {\"O\": 1}, \"16\": {\"O\": 1}, \"17\": {\"O\": 1}, \"18\": {\"O\": 1}, \"19\": {\"O\": 1}}" n_minim_iter=4 energy=-22572.858522462622 stress="0.09856815705351987 4.878081819529998e-12 1.108027116565901e-12 4.878081819529998e-12 0.10104507096699315 -2.598149419646061e-12 1.108027116565901e-12 -2.598149419646061e-12 0.09680837799678664" free_energy=-22572.858522462622 pbc="T T T"
In       1.45800678       3.11652525       0.98262676        0       0.01443983       0.11279235      -0.00014327
In       1.46661092       0.16344033       3.29473626        1      -0.01443983       0.11279235       0.00014327
In       1.46661092       2.78964458       5.25998979        2      -0.01443983      -0.11279235      -0.00014327
In       1.45800678       5.74272950       7.57209928        3       0.01443983      -0.11279235       0.00014327
In       4.39122863       2.78964458       7.57209928        4      -0.01443983      -0.11279235       0.00014327
In       4.38262448       5.74272950       5.25998979        5       0.01443983      -0.11279235      -0.00014327
In       4.38262448       3.11652525       3.29473626        6       0.01443983       0.11279235       0.00014327
In       4.39122863       0.16344033       0.98262676        7      -0.01443983       0.11279235      -0.00014327
O        2.27924102       3.53051707       7.23265806        8       0.02166315      -0.04239732       0.04056263
O        0.64537669       0.57743215       5.59943101        9      -0.02166315      -0.04239732      -0.04056263
O        0.64537669       2.37565276       2.95529504       10      -0.02166315       0.04239732       0.04056263
O        2.27924102       5.32873768       1.32206798       11       0.02166315       0.04239732      -0.04056263
O        3.56999439       2.37565276       1.32206798       12      -0.02166315       0.04239732      -0.04056263
O        5.20385872       5.32873768       2.95529504       13       0.02166315       0.04239732       0.04056263
O        5.20385872       3.53051707       5.59943101       14       0.02166315      -0.04239732      -0.04056263
O        3.56999439       0.57743215       7.23265806       15      -0.02166315      -0.04239732       0.04056263
O        5.54495178       4.42962738       0.00000000       16       0.03966866      -0.00000000       0.00000000
O        3.22890133       1.47654246       4.27736302       17      -0.03966866       0.00000000       0.00000000
O        0.30428362       1.47654246       0.00000000       18      -0.03966866       0.00000000      -0.00000000
O        2.62033408       4.42962738       4.27736302       19       0.03966866       0.00000000      -0.00000000
20
Lattice="5.8485337828055295 -1.071703272485942e-59 -2.487200872188084e-42 2.829134597776105e-59 5.893166683096198 3.9942521125557295e-17 3.341473398006118e-42 -6.569472382628951e-17 8.574630414736601" Properties=species:S:1:pos:R:3:spacegroup_kinds:I:1:forces:R:3 spacegroup="P 1" unit_cell=conventional occupancy="_JSON {\"0\": {\"In\": 1}, \"1\": {\"In\": 1}, \"2\": {\"In\": 1}, \"3\": {\"In\": 1}, \"4\": {\"In\": 1}, \"5\": {\"In\": 1}, \"6\": {\"In\": 1}, \"7\": {\"In\": 1}, \"8\": {\"O\": 1}, \"9\": {\"O\": 1}, \"10\": {\"O\": 1}, \"11\": {\"O\": 1}, \"12\": {\"O\": 1}, \"13\": {\"O\": 1}, \"14\": {\"O\": 1}, \"15\": {\"O\": 1}, \"16\": {\"O\": 1}, \"17\": {\"O\": 1}, \"18\": {\"O\": 1}, \"19\": {\"O\": 1}}" n_minim_iter=5 energy=-22572.862462211997 stress="0.09827677726756195 -6.795301555198155e-13 -3.1816080514863784e-12 -6.795301555198155e-13 0.0981055819851303 -3.0263270105373044e-12 -3.1816080514863784e-12 -3.0263270105373044e-12 0.09800008655540454" free_energy=-22572.862462211997 pbc="T T T"
In       1.45741480       3.11312993       0.98535065        0       0.01429698       0.09048719       0.02474231
In       1.46685209       0.16654659       3.30196456        1      -0.01429698       0.09048719      -0.02474231
In       1.46685209       2.78003676       5.27266586        2      -0.01429698      -0.09048719       0.02474231
In       1.45741480       5.72662010       7.58927976        3       0.01429698      -0.09048719      -0.02474231
In       4.39111898       2.78003676       7.58927976        4      -0.01429698      -0.09048719      -0.02474231
In       4.38168170       5.72662010       5.27266586        5       0.01429698      -0.09048719       0.02474231
In       4.38168170       3.11312993       3.30196456        6       0.01429698       0.09048719      -0.02474231
In       4.39111898       0.16654659       0.98535065        7      -0.01429698       0.09048719       0.02474231
O        2.27895737       3.51988667       7.24741652        8       0.01956825      -0.02760852       0.03764571
O        0.64530952       0.57330332       5.61452910        9      -0.01956825      -0.02760852      -0.03764571
O        0.64530952       2.37328002       2.96010131       10      -0.01956825       0.02760852       0.03764571
O        2.27895737       5.31986336       1.32721390       11       0.01956825       0.02760852      -0.03764571
O        3.56957641       2.37328002       1.32721390       12      -0.01956825       0.02760852      -0.03764571
O        5.20322426       5.31986336       2.96010131       13       0.01956825       0.02760852       0.03764571
O        5.20322426       3.51988667       5.61452910       14       0.01956825      -0.02760852      -0.03764571
O        3.56957641       0.57330332       7.24741652       15      -0.01956825      -0.02760852       0.03764571
O        5.54191417       4.41987501       0.00000000       16       0.05909403       0.00000000       0.00000000
O        3.23088650       1.47329167       4.28731521       17      -0.05909403      -0.00000000       0.00000000
O        0.30661961       1.47329167       0.00000000       18      -0.05909403      -0.00000000      -0.00000000
O        2.61764728       4.41987501       4.28731521       19       0.05909403      -0.00000000       0.00000000
20
Lattice="5.838531121151694 -2.6543117081317546e-60 -2.4616708749261352e-42 3.7964742470993894e-59 5.898950163934745 4.390473403146424e-17 3.375512314162961e-42 -5.998656872354718e-17 8.580899415466998" Properties=species:S:1:pos:R:3:spacegroup_kinds:I:1:forces:R:3 spacegroup="P 1" unit_cell=conventional occupancy="_JSON {\"0\": {\"In\": 1}, \"1\": {\"In\": 1}, \"2\": {\"In\": 1}, \"3\": {\"In\": 1}, \"4\": {\"In\": 1}, \"5\": {\"In\": 1}, \"6\": {\"In\": 1}, \"7\": {\"In\": 1}, \"8\": {\"O\": 1}, \"9\": {\"O\": 1}, \"10\": {\"O\": 1}, \"11\": {\"O\": 1}, \"12\": {\"O\": 1}, \"13\": {\"O\": 1}, \"14\": {\"O\": 1}, \"15\": {\"O\": 1}, \"16\": {\"O\": 1}, \"17\": {\"O\": 1}, \"18\": {\"O\": 1}, \"19\": {\"O\": 1}}" n_minim_iter=6 energy=-22572.864126237244 stress="0.0973237972166084 -4.173863565663165e-12 -3.741514116369307e-13 -4.173863565663165e-12 0.09871037566136533 -2.2974540156700606e-12 -3.741514116369307e-13 -2.2974540156700606e-12 0.09742522551261426" free_energy=-22572.864126237244 pbc="T T T"
In       1.45424200       3.12180897       0.98695549        0       0.00730557       0.05916109       0.02777946
In       1.46502356       0.17233389       3.30349421        1      -0.00730557       0.05916109      -0.02777946
In       1.46502356       2.77714120       5.27740520        2      -0.00730557      -0.05916109       0.02777946
In       1.45424200       5.72661628       7.59394392        3       0.00730557      -0.05916109      -0.02777946
In       4.38428912       2.77714120       7.59394392        4      -0.00730557      -0.05916109      -0.02777946
In       4.37350756       5.72661628       5.27740520        5       0.00730557      -0.05916109       0.02777946
In       4.37350756       3.12180897       3.30349421        6       0.00730557       0.05916109      -0.02777947
In       4.38428912       0.17233389       0.98695549        7      -0.00730557       0.05916109       0.02777946
O        2.27503180       3.51877025       7.24936383        8       0.02100425      -0.01391294       0.05374920
O        0.64423376       0.56929517       5.62198530        9      -0.02100425      -0.01391294      -0.05374920
O        0.64423376       2.38017991       2.95891412       10      -0.02100425       0.01391294       0.05374920
O        2.27503180       5.32965499       1.33153559       11       0.02100425       0.01391294      -0.05374920
O        3.56349932       2.38017991       1.33153559       12      -0.02100425       0.01391294      -0.05374920
O        5.19429736       5.32965499       2.95891412       13       0.02100425       0.01391294       0.05374920
O        5.19429736       3.51877025       5.62198530       14       0.02100425      -0.01391294      -0.05374920
O        3.56349932       0.56929517       7.24936383       15      -0.02100425      -0.01391294       0.05374920
O        5.52868322       4.42421262       0.00000000       16       0.09685008      -0.00000000       0.00000000
O        3.22911346       1.47473754       4.29044971       17      -0.09685008      -0.00000000      -0.00000000
O        0.30984790       1.47473754       0.00000000       18      -0.09685008       0.00000000       0.00000000
O        2.60941766       4.42421262       4.29044971       19       0.09685008      -0.00000000       0.00000000
20
Lattice="5.841429549877709 -9.818925476470205e-60 -2.4923535919127487e-42 3.827114207719498e-59 5.889264234053704 6.056940316126667e-17 3.4277851966638284e-42 -3.550395514941614e-17 8.59074749770161" Properties=species:S:1:pos:R:3:spacegroup_kinds:I:1:forces:R:3 spacegroup="P 1" unit_cell=conventional occupancy="_JSON {\"0\": {\"In\": 1}, \"1\": {\"In\": 1}, \"2\": {\"In\": 1}, \"3\": {\"In\": 1}, \"4\": {\"In\": 1}, \"5\": {\"In\": 1}, \"6\": {\"In\": 1}, \"7\": {\"In\": 1}, \"8\": {\"O\": 1}, \"9\": {\"O\": 1}, \"10\": {\"O\": 1}, \"11\": {\"O\": 1}, \"12\": {\"O\": 1}, \"13\": {\"O\": 1}, \"14\": {\"O\": 1}, \"15\": {\"O\": 1}, \"16\": {\"O\": 1}, \"17\": {\"O\": 1}, \"18\": {\"O\": 1}, \"19\": {\"O\": 1}}" n_minim_iter=7 energy=-22572.86663717578 stress="0.09776125710142806 3.307135828442299e-12 6.154797832177016e-13 3.307135828442299e-12 0.09693282503483734 -2.646555925802357e-12 6.154797832177016e-13 -2.646555925802357e-12 0.0985218512599145" free_energy=-22572.86663717578 pbc="T T T"
In       1.45514795       3.11989214       0.98908039        0      -0.00304848       0.03760296       0.03609394
In       1.46556682       0.17526003       3.30629336        1       0.00304848       0.03760296      -0.03609394
In       1.46556682       2.76937209       5.28445414        2       0.00304848      -0.03760296       0.03609394
In       1.45514795       5.71400421       7.60166711        3      -0.00304848      -0.03760296      -0.03609394
In       4.38628160       2.76937209       7.60166711        4       0.00304848      -0.03760296      -0.03609394
In       4.37586273       5.71400421       5.28445414        5      -0.00304848      -0.03760296       0.03609394
In       4.37586273       3.11989214       3.30629336        6      -0.00304848       0.03760296      -0.03609394
In       4.38628160       0.17526003       0.98908039        7       0.00304848       0.03760296       0.03609394
O        2.27672179       3.51151566       7.25833437        8       0.01660644      -0.01013387       0.04374538
O        0.64399299       0.56688355       5.62778687        9      -0.01660644      -0.01013387      -0.04374538
O        0.64399299       2.37774857       2.96296063       10      -0.01660644       0.01013387       0.04374538
O        2.27672179       5.32238069       1.33241312       11       0.01660644       0.01013387      -0.04374538
O        3.56470776       2.37774857       1.33241312       12      -0.01660644       0.01013387      -0.04374538
O        5.19743656       5.32238069       2.96296063       13       0.01660644       0.01013387       0.04374538
O        5.19743656       3.51151566       5.62778687       14       0.01660644      -0.01013387      -0.04374538
O        3.56470776       0.56688355       7.25833437       15      -0.01660644      -0.01013387       0.04374538
O        5.53294738       4.41694818       0.00000000       16       0.08117601       0.00000000       0.00000000
O        3.22919694       1.47231606       4.29537375       17      -0.08117601       0.00000000       0.00000000
O        0.30848217       1.47231606       0.00000000       18      -0.08117601      -0.00000000      -0.00000000
O        2.61223261       4.41694818       4.29537375       19       0.08117601      -0.00000000       0.00000000
20
Lattice="5.84635059063554 9.941203768280856e-61 -2.537679820555364e-42 3.9592316802813535e-59 5.883300365880245 3.437376961104231e-17 3.6686146793400234e-42 -7.403696948032673e-17 8.592217481309476" Properties=species:S:1:pos:R:3:spacegroup_kinds:I:1:forces:R:3 spacegroup="P 1" unit_cell=conventional occupancy="_JSON {\"0\": {\"In\": 1}, \"1\": {\"In\": 1}, \"2\": {\"In\": 1}, \"3\": {\"In\": 1}, \"4\": {\"In\": 1}, \"5\": {\"In\": 1}, \"6\": {\"In\": 1}, \"7\": {\"In\": 1}, \"8\": {\"O\": 1}, \"9\": {\"O\": 1}, \"10\": {\"O\": 1}, \"11\": {\"O\": 1}, \"12\": {\"O\": 1}, \"13\": {\"O\": 1}, \"14\": {\"O\": 1}, \"15\": {\"O\": 1}, \"16\": {\"O\": 1}, \"17\": {\"O\": 1}, \"18\": {\"O\": 1}, \"19\": {\"O\": 1}}" n_minim_iter=8 energy=-22572.870842504595 stress="0.09924869729031317 5.203123074280996e-13 2.726596415035324e-12 5.203123074280996e-13 0.09656351921695656 6.612851814917354e-12 2.726596415035324e-12 6.612851814917354e-12 0.10032800258515323" free_energy=-22572.870842504595 pbc="T T T"
In       1.45700616       3.12540094       0.99277664        0      -0.04138045      -0.01544012       0.01932208
In       1.46616913       0.18375076       3.30333210        1       0.04138045      -0.01544012      -0.01932208
In       1.46616913       2.75789943       5.28888538        2       0.04138045       0.01544012       0.01932208
In       1.45700616       5.69954961       7.59944085        3      -0.04138045       0.01544012      -0.01932208
In       4.38934443       2.75789943       7.59944085        4       0.04138045       0.01544012      -0.01932208
In       4.38018146       5.69954961       5.28888538        5      -0.04138045       0.01544012       0.01932208
In       4.38018146       3.12540094       3.30333210        6      -0.04138045      -0.01544012      -0.01932208
In       4.38934443       0.18375076       0.99277664        7       0.04138045      -0.01544012       0.01932208
O        2.28089858       3.50502619       7.26460368        8       0.00567795      -0.01674979       0.02273401
O        0.64227671       0.56337601       5.62372254        9      -0.00567795      -0.01674979      -0.02273401
O        0.64227671       2.37827417       2.96849494       10      -0.00567795       0.01674979       0.02273401
O        2.28089858       5.31992436       1.32761380       11       0.00567795       0.01674979      -0.02273401
O        3.56545201       2.37827417       1.32761380       12      -0.00567795       0.01674979      -0.02273401
O        5.20407388       5.31992436       2.96849494       13       0.00567795       0.01674979       0.02273401
O        5.20407388       3.50502619       5.62372254       14       0.00567795      -0.01674979      -0.02273401
O        3.56545201       0.56337601       7.26460368       15      -0.00567795      -0.01674979       0.02273401
O        5.54611310       4.41247527       0.00000000       16       0.00684957      -0.00000000      -0.00000000
O        3.22341279       1.47082509       4.29610874       17      -0.00684957      -0.00000000       0.00000000
O        0.30023749       1.47082509       0.00000000       18      -0.00684957      -0.00000000      -0.00000000
O        2.62293780       4.41247527       4.29610874       19       0.00684957      -0.00000000       0.00000000
20
Lattice="5.843869395678306 8.44402015902028e-60 -2.5233182950178464e-42 3.9036000318866947e-59 5.9005572046899095 1.735544848221638e-17 3.49675856973192e-42 -9.91744976920421e-17 8.570726002921196" Properties=species:S:1:pos:R:3:spacegroup_kinds:I:1:forces:R:3 spacegroup="P 1" unit_cell=conventional occupancy="_JSON {\"0\": {\"In\": 1}, \"1\": {\"In\": 1}, \"2\": {\"In\": 1}, \"3\": {\"In\": 1}, \"4\": {\"In\": 1}, \"5\": {\"In\": 1}, \"6\": {\"In\": 1}, \"7\": {\"In\": 1}, \"8\": {\"O\": 1}, \"9\": {\"O\": 1}, \"10\": {\"O\": 1}, \"11\": {\"O\": 1}, \"12\": {\"O\": 1}, \"13\": {\"O\": 1}, \"14\": {\"O\": 1}, \"15\": {\"O\": 1}, \"16\": {\"O\": 1}, \"17\": {\"O\": 1}, \"18\": {\"O\": 1}, \"19\": {\"O\": 1}}" n_minim_iter=9 energy=-22572.872910752085 stress="0.09953834596559315 -4.4096345455378406e-13 3.535780251238683e-13 -4.4096345455378406e-13 0.10023574161189996 2.7781824333228957e-14 3.535780251238683e-13 2.7781824333228957e-14 0.0993125019320221" free_energy=-22572.872910752085 pbc="T T T"
In       1.45559770       3.13540444       0.99120184        0      -0.04427091      -0.01480905      -0.01240102
In       1.46633700       0.18512584       3.29416116        1       0.04427091      -0.01480905       0.01240102
In       1.46633700       2.76515277       5.27656484        2       0.04427091       0.01480905      -0.01240102
In       1.45559770       5.71543137       7.57952416        3      -0.04427091       0.01480905       0.01240102
In       4.38827170       2.76515277       7.57952416        4       0.04427091       0.01480905       0.01240102
In       4.37753239       5.71543137       5.27656484        5      -0.04427091       0.01480905      -0.01240102
In       4.37753239       3.13540444       3.29416116        6      -0.04427091      -0.01480905       0.01240102
In       4.38827170       0.18512584       0.99120184        7       0.04427091      -0.01480905      -0.01240102
O        2.28081680       3.51505847       7.24971678        8       0.00712495      -0.02891271       0.02489623
O        0.64111790       0.56477987       5.60637222        9      -0.00712495      -0.02891271      -0.02489623
O        0.64111790       2.38549873       2.96435378       10      -0.00712495       0.02891271       0.02489623
O        2.28081680       5.33577733       1.32100922       11       0.00712495       0.02891271      -0.02489623
O        3.56305260       2.38549873       1.32100922       12      -0.00712495       0.02891271      -0.02489623
O        5.20275150       5.33577733       2.96435378       13       0.00712495       0.02891271       0.02489623
O        5.20275150       3.51505847       5.60637222       14       0.00712495      -0.02891271      -0.02489623
O        3.56305260       0.56477987       7.24971678       15      -0.00712495      -0.02891271       0.02489623
O        5.54745535       4.42541790       0.00000000       16      -0.01435952       0.00000000      -0.00000000
O        3.21834874       1.47513930       4.28536300       17       0.01435952       0.00000000       0.00000000
O        0.29641404       1.47513930       0.00000000       18       0.01435952       0.00000000       0.00000000
O        2.62552066       4.42541790       4.28536300       19      -0.01435952       0.00000000       0.00000000
20