20
Lattice="5.576975288264735 -1.417215695261743e-58 9.961997675142507e-43 -7.893513676391625e-59 5.619052521957398 4.988318986379409e-16 -4.3597485111952545e-43 -6.453300426732745e-16 7.79067506601922" Properties=species:S:1:pos:R:3:spacegroup_kinds:I:1:forces:R:3 spacegroup="P 1" unit_cell=conventional occupancy="_JSON {\"0\": {\"In\": 1}, \"1\": {\"In\": 1}, \"2\": {\"In\": 1}, \"3\": {\"In\": 1}, \"4\": {\"In\": 1}, \"5\": {\"In\": 1}, \"6\": {\"In\": 1}, \"7\": {\"In\": 1}, \"8\": {\"O\": 1}, \"9\": {\"O\": 1}, \"10\": {\"O\": 1}, \"11\": {\"O\": 1}, \"12\": {\"O\": 1}, \"13\": {\"O\": 1}, \"14\": {\"O\": 1}, \"15\": {\"O\": 1}, \"16\": {\"O\": 1}, \"17\": {\"O\": 1}, \"18\": {\"O\": 1}, \"19\": {\"O\": 1}}" n_minim_iter=7 energy=-22574.876234749994 stress="-0.009853491960163344 1.1652112465036333e-12 -4.902626708280669e-12 1.1652112465036333e-12 -0.009728583989783287 -5.258508668685756e-12 -4.902626708280669e-12 -5.258508668685756e-12 -0.009823925963641867" free_energy=-22574.876234749994 pbc="T T T"
In       1.38537151       2.96966127       0.91281070        0      -0.00138226       0.00041066      -0.00182444
In       1.40311613       0.16013501       2.98252684        1       0.00138226       0.00041066       0.00182444
In       1.40311613       2.64939125       4.80814823        2       0.00138226      -0.00041066      -0.00182444
In       1.38537151       5.45891751       6.87786437        3      -0.00138226      -0.00041066       0.00182444
In       4.19160378       2.64939125       6.87786437        4       0.00138226      -0.00041066       0.00182444
In       4.17385915       5.45891751       4.80814823        5      -0.00138226      -0.00041066      -0.00182444
In       4.17385915       2.96966127       2.98252684        6      -0.00138226       0.00041066       0.00182444
In       4.19160378       0.16013501       0.91281070        7       0.00138226       0.00041066      -0.00182444
O        2.17377893       3.40397006       6.63819933        8      -0.00077414       0.00234561      -0.00192653
O        0.61470872       0.59444380       5.04781327        9       0.00077414       0.00234561       0.00192653
O        0.61470872       2.21508246       2.74286179       10       0.00077414      -0.00234561      -0.00192653
O        2.17377893       5.02460872       1.15247574       11      -0.00077414      -0.00234561       0.00192653
O        3.40319636       2.21508246       1.15247574       12       0.00077414      -0.00234561       0.00192653
O        4.96226657       5.02460872       2.74286179       13      -0.00077414      -0.00234561      -0.00192653
O        4.96226657       3.40397006       5.04781327       14      -0.00077414       0.00234561       0.00192653
O        3.40319636       0.59444380       6.63819933       15       0.00077414       0.00234561      -0.00192653
O        5.36551909       4.21428939      -0.00000000       16       0.00255337      -0.00000000       0.00000000
O        2.99994384       1.40476313       3.89533753       17      -0.00255337      -0.00000000       0.00000000
O        0.21145620       1.40476313      -0.00000000       18      -0.00255337      -0.00000000      -0.00000000
O        2.57703144       4.21428939       3.89533753       19       0.00255337      -0.00000000      -0.00000000
