20
Lattice="5.578133410787445 7.208130652884374e-58 -1.5566118790141633e-41 2.0391754504099792e-57 5.693113623738614 1.0133128416783349e-15 1.728230822505083e-41 1.2842560345549372e-16 7.485421869316355" Properties=species:S:1:pos:R:3:spacegroup_kinds:I:1:forces:R:3 spacegroup="P 1" unit_cell=conventional occupancy="_JSON {\"0\": {\"In\": 1}, \"1\": {\"In\": 1}, \"2\": {\"In\": 1}, \"3\": {\"In\": 1}, \"4\": {\"In\": 1}, \"5\": {\"In\": 1}, \"6\": {\"In\": 1}, \"7\": {\"In\": 1}, \"8\": {\"O\": 1}, \"9\": {\"O\": 1}, \"10\": {\"O\": 1}, \"11\": {\"O\": 1}, \"12\": {\"O\": 1}, \"13\": {\"O\": 1}, \"14\": {\"O\": 1}, \"15\": {\"O\": 1}, \"16\": {\"O\": 1}, \"17\": {\"O\": 1}, \"18\": {\"O\": 1}, \"19\": {\"O\": 1}}" n_minim_iter=23 energy=-22574.952542815467 stress="0.0387669123490859 -9.605763598758619e-13 -4.649960567496746e-12 -9.605763598758619e-13 0.03873734327934387 -2.8134412827807053e-12 -4.649960567496746e-12 -2.8134412827807053e-12 0.03895608955255796" free_energy=-22574.952542815467 pbc="T T T"
In       1.37108154       3.01302525       0.94862929        0      -0.00018404       0.00408061      -0.00044508
In       1.41798517       0.16646844       2.79408165        1       0.00018404       0.00408061       0.00044508
In       1.41798517       2.68008838       4.69134022        2       0.00018404      -0.00408061      -0.00044508
In       1.37108154       5.52664519       6.53679258        3      -0.00018404      -0.00408061       0.00044508
In       4.20705187       2.68008838       6.53679258        4       0.00018404      -0.00408061       0.00044508
In       4.16014825       5.52664519       4.69134022        5      -0.00018404      -0.00408061      -0.00044508
In       4.16014825       3.01302525       2.79408165        6      -0.00018404       0.00408061       0.00044508
In       4.20705187       0.16646844       0.94862929        7       0.00018404       0.00408061      -0.00044508
O        2.21540140       3.49633576       6.46704222        8      -0.00810062       0.00446194      -0.00189532
O        0.57366531       0.64977895       4.76109058        9       0.00810062       0.00446194       0.00189532
O        0.57366531       2.19677786       2.72433129       10       0.00810062      -0.00446194      -0.00189532
O        2.21540140       5.04333467       1.01837964       11      -0.00810062      -0.00446194       0.00189532
O        3.36273201       2.19677786       1.01837964       12       0.00810062      -0.00446194       0.00189532
O        5.00446811       5.04333467       2.72433129       13      -0.00810062      -0.00446194      -0.00189532
O        5.00446811       3.49633576       4.76109058       14      -0.00810062       0.00446194       0.00189532
O        3.36273201       0.64977895       6.46704222       15       0.00810062       0.00446194      -0.00189532
O        5.37311942       4.26983522      -0.00000000       16       0.00410411       0.00000000      -0.00000000
O        2.99408070       1.42327841       3.74271093       17      -0.00410411      -0.00000000      -0.00000000
O        0.20501400       1.42327841      -0.00000000       18      -0.00410411      -0.00000000       0.00000000
O        2.58405271       4.26983522       3.74271093       19       0.00410411      -0.00000000       0.00000000
