20
Lattice="5.2485098787991085 9.543711669344624e-58 -5.570522951869545e-42 -1.0910029313765004e-57 5.336407098386362 -1.1367453269203195e-16 7.790731935053838e-42 1.563624752078998e-16 7.340376097092031" Properties=species:S:1:pos:R:3:spacegroup_kinds:I:1:forces:R:3 spacegroup="P 1" unit_cell=conventional occupancy="_JSON {\"0\": {\"In\": 1}, \"1\": {\"In\": 1}, \"2\": {\"In\": 1}, \"3\": {\"In\": 1}, \"4\": {\"In\": 1}, \"5\": {\"In\": 1}, \"6\": {\"In\": 1}, \"7\": {\"In\": 1}, \"8\": {\"O\": 1}, \"9\": {\"O\": 1}, \"10\": {\"O\": 1}, \"11\": {\"O\": 1}, \"12\": {\"O\": 1}, \"13\": {\"O\": 1}, \"14\": {\"O\": 1}, \"15\": {\"O\": 1}, \"16\": {\"O\": 1}, \"17\": {\"O\": 1}, \"18\": {\"O\": 1}, \"19\": {\"O\": 1}}" n_minim_iter=1 energy=-22577.680645772904 stress="0.0399963765927207 4.178293875986779e-12 1.1288651971800466e-12 4.178293875986779e-12 0.06723938607575079 1.5687530277641243e-12 1.1288651971800466e-12 1.5687530277641243e-12 0.0519932047534987" free_energy=-22577.680645772904 pbc="T T T"
In       1.25838177       2.76264470       0.92758689        0       0.14482038       0.17259410      -0.21667351
In       1.36587317       0.09444115       2.74260116        1      -0.14482038       0.17259410       0.21667351
In       1.36587317       2.57376240       4.59777494        2      -0.14482038      -0.17259410      -0.21667351
In       1.25838177       5.24196594       6.41278921        3       0.14482038      -0.17259410       0.21667351
In       3.99012811       2.57376240       6.41278921        4      -0.14482038      -0.17259410       0.21667351
In       3.88263671       5.24196594       4.59777494        5       0.14482038      -0.17259410      -0.21667351
In       3.88263671       2.76264470       2.74260116        6       0.14482038       0.17259410       0.21667351
In       3.99012811       0.09444115       0.92758689        7      -0.14482038       0.17259410      -0.21667351
O        2.10760852       3.30557767       6.37503332        8      -0.01245387      -0.10670918       0.01951909
O        0.51664642       0.63737412       4.63553083        9       0.01245387      -0.10670918      -0.01951909
O        0.51664642       2.03082943       2.70484527       10       0.01245387       0.10670918       0.01951909
O        2.10760852       4.69903298       0.96534278       11      -0.01245387       0.10670918      -0.01951909
O        3.14090136       2.03082943       0.96534278       12       0.01245387       0.10670918      -0.01951909
O        4.73186345       4.69903298       2.70484527       13      -0.01245387       0.10670918       0.01951909
O        4.73186345       3.30557767       4.63553083       14      -0.01245387      -0.10670918      -0.01951909
O        3.14090136       0.63737412       6.37503332       15       0.01245387      -0.10670918       0.01951909
O        5.09937932       4.00230532      -0.00000000       16      -0.03011314      -0.00000000      -0.00000000
O        2.77338550       1.33410177       3.67018805       17       0.03011314      -0.00000000       0.00000000
O        0.14913056       1.33410177      -0.00000000       18       0.03011314      -0.00000000      -0.00000000
O        2.47512438       4.00230532       3.67018805       19      -0.03011314      -0.00000000       0.00000000
20
Lattice="5.288470666584574 1.0560244070014974e-57 -5.6002981865683196e-42 -1.0035673499415978e-57 5.292758736911678 -1.2414842747295432e-16 7.746908437053929e-42 1.3981247538738597e-16 7.344987938472641" Properties=species:S:1:pos:R:3:spacegroup_kinds:I:1:forces:R:3 spacegroup="P 1" unit_cell=conventional occupancy="_JSON {\"0\": {\"In\": 1}, \"1\": {\"In\": 1}, \"2\": {\"In\": 1}, \"3\": {\"In\": 1}, \"4\": {\"In\": 1}, \"5\": {\"In\": 1}, \"6\": {\"In\": 1}, \"7\": {\"In\": 1}, \"8\": {\"O\": 1}, \"9\": {\"O\": 1}, \"10\": {\"O\": 1}, \"11\": {\"O\": 1}, \"12\": {\"O\": 1}, \"13\": {\"O\": 1}, \"14\": {\"O\": 1}, \"15\": {\"O\": 1}, \"16\": {\"O\": 1}, \"17\": {\"O\": 1}, \"18\": {\"O\": 1}, \"19\": {\"O\": 1}}" n_minim_iter=2 energy=-22577.708396772727 stress="0.0658300847055885 -5.021589591130917e-12 2.2766484189377103e-12 -5.021589591130917e-12 0.06816955847263911 1.2134222398257705e-12 2.2766484189377103e-12 1.2134222398257705e-12 0.06151081707551857" free_energy=-22577.708396772727 pbc="T T T"
In       1.26837435       2.74053089       0.92755814        0       0.21600536       0.30510185      -0.17545164
In       1.37586099       0.09415152       2.74493582        1      -0.21600536       0.30510185       0.17545164
In       1.37586099       2.55222785       4.60005211        2      -0.21600536      -0.30510185      -0.17545164
In       1.26837435       5.19860721       6.41742979        3       0.21600536      -0.30510185       0.17545164
In       4.02009632       2.55222785       6.41742979        4      -0.21600536      -0.30510185       0.17545164
In       3.91260968       5.19860721       4.60005211        5       0.21600536      -0.30510185      -0.17545164
In       3.91260968       2.74053089       2.74493582        6       0.21600536       0.30510185       0.17545164
In       4.02009632       0.09415152       0.92755814        7      -0.21600536       0.30510185      -0.17545164
O        2.12361990       3.27824165       6.37909374        8       0.07136801      -0.10069662      -0.13720505
O        0.52061543       0.63186229       4.63838817        9      -0.07136801      -0.10069662       0.13720505
O        0.52061543       2.01451708       2.70659977       10      -0.07136801       0.10069662      -0.13720505
O        2.12361990       4.66089645       0.96589420       11       0.07136801       0.10069662       0.13720505
O        3.16485076       2.01451708       0.96589420       12      -0.07136801       0.10069662       0.13720505
O        4.76785524       4.66089645       2.70659977       13       0.07136801       0.10069662      -0.13720505
O        4.76785524       3.27824165       4.63838817       14       0.07136801      -0.10069662       0.13720505
O        3.16485076       0.63186229       6.37909374       15      -0.07136801      -0.10069662      -0.13720505
O        5.13811908       3.96956905      -0.00000000       16      -0.03900288      -0.00000000      -0.00000000
O        2.79458692       1.32318968       3.67249397       17       0.03900288      -0.00000000      -0.00000000
O        0.15035159       1.32318968      -0.00000000       18       0.03900288       0.00000000       0.00000000
O        2.49388375       3.96956905       3.67249397       19      -0.03900288       0.00000000       0.00000000
20
Lattice="5.286824748917642 1.1030794071973936e-57 -5.5833046888620746e-42 -1.0007831413520376e-57 5.27288115890801 -1.7024366545269048e-16 7.804186821459191e-42 7.602249870842378e-17 7.3749721881506565" Properties=species:S:1:pos:R:3:spacegroup_kinds:I:1:forces:R:3 spacegroup="P 1" unit_cell=conventional occupancy="_JSON {\"0\": {\"In\": 1}, \"1\": {\"In\": 1}, \"2\": {\"In\": 1}, \"3\": {\"In\": 1}, \"4\": {\"In\": 1}, \"5\": {\"In\": 1}, \"6\": {\"In\": 1}, \"7\": {\"In\": 1}, \"8\": {\"O\": 1}, \"9\": {\"O\": 1}, \"10\": {\"O\": 1}, \"11\": {\"O\": 1}, \"12\": {\"O\": 1}, \"13\": {\"O\": 1}, \"14\": {\"O\": 1}, \"15\": {\"O\": 1}, \"16\": {\"O\": 1}, \"17\": {\"O\": 1}, \"18\": {\"O\": 1}, \"19\": {\"O\": 1}}" n_minim_iter=3 energy=-22577.71565375832 stress="0.06681935447283514 -6.293988614441195e-13 -2.0398017956576387e-12 -6.293988614441195e-13 0.06623972356994218 -4.2259717416394156e-12 -2.0398017956576387e-12 -4.2259717416394156e-12 0.07594739700109156" free_energy=-22577.71565375832 pbc="T T T"
In       1.26917937       2.73187039       0.93036384        0       0.19805509       0.30432885      -0.12682434
In       1.37423300       0.09542981       2.75712225        1      -0.19805509       0.30432885       0.12682434
In       1.37423300       2.54101077       4.61784993        2      -0.19805509      -0.30432885      -0.12682434
In       1.26917937       5.17745135       6.44460835        3       0.19805509      -0.30432885       0.12682434
In       4.01764538       2.54101077       6.44460835        4      -0.19805509      -0.30432885       0.12682434
In       3.91259175       5.17745135       4.61784993        5       0.19805509      -0.30432885      -0.12682434
In       3.91259175       2.73187039       2.75712225        6       0.19805509       0.30432885       0.12682434
In       4.01764538       0.09542981       0.93036384        7      -0.19805509       0.30432885      -0.12682434
O        2.12334596       3.26538362       6.40439736        8       0.03691452      -0.06476998      -0.15416820
O        0.52006642       0.62894304       4.65806092        9      -0.03691452      -0.06476998       0.15416820
O        0.52006642       2.00749754       2.71691127       10      -0.03691452       0.06476998      -0.15416820
O        2.12334596       4.64393812       0.97057482       11       0.03691452       0.06476998       0.15416820
O        3.16347879       2.00749754       0.97057482       12      -0.03691452       0.06476998       0.15416820
O        4.76675833       4.64393812       2.71691127       13       0.03691452       0.06476998      -0.15416820
O        4.76675833       3.26538362       4.65806092       14       0.03691452      -0.06476998       0.15416820
O        3.16347879       0.62894304       6.40439736       15      -0.03691452      -0.06476998      -0.15416820
O        5.13630270       3.95466087      -0.00000000       16      -0.00499222       0.00000000      -0.00000000
O        2.79393442       1.31822029       3.68748609       17       0.00499222       0.00000000       0.00000000
O        0.15052205       1.31822029      -0.00000000       18       0.00499222      -0.00000000      -0.00000000
O        2.49289032       3.95466087       3.68748609       19      -0.00499222      -0.00000000       0.00000000
20
Lattice="5.323571783331324 1.1530745300057094e-57 -5.5851677870059704e-42 -9.592600353499299e-58 5.249534228076328 -1.7705827045073484e-16 7.836274030902714e-42 6.573006025078429e-17 7.356638205139596" Properties=species:S:1:pos:R:3:spacegroup_kinds:I:1:forces:R:3 spacegroup="P 1" unit_cell=conventional occupancy="_JSON {\"0\": {\"In\": 1}, \"1\": {\"In\": 1}, \"2\": {\"In\": 1}, \"3\": {\"In\": 1}, \"4\": {\"In\": 1}, \"5\": {\"In\": 1}, \"6\": {\"In\": 1}, \"7\": {\"In\": 1}, \"8\": {\"O\": 1}, \"9\": {\"O\": 1}, \"10\": {\"O\": 1}, \"11\": {\"O\": 1}, \"12\": {\"O\": 1}, \"13\": {\"O\": 1}, \"14\": {\"O\": 1}, \"15\": {\"O\": 1}, \"16\": {\"O\": 1}, \"17\": {\"O\": 1}, \"18\": {\"O\": 1}, \"19\": {\"O\": 1}}" n_minim_iter=4 energy=-22577.75262467738 stress="0.09241945276094043 -1.1767652211722699e-12 -7.197463605588092e-13 -1.1767652211722699e-12 0.0738301353204964 -1.995769372095255e-12 -7.197463605588092e-13 -1.995769372095255e-12 0.08569200511053511" free_energy=-22577.75262467738 pbc="T T T"
In       1.28566488       2.73042379       0.92237386        0       0.03937479       0.24169162      -0.05580038
In       1.37612101       0.10565668       2.75594524        1      -0.03937479       0.24169162       0.05580038
In       1.37612101       2.51911044       4.60069297        2      -0.03937479      -0.24169162      -0.05580038
In       1.28566488       5.14387755       6.43426434        3       0.03937479      -0.24169162       0.05580038
In       4.03790690       2.51911044       6.43426434        4      -0.03937479      -0.24169162       0.05580038
In       3.94745078       5.14387755       4.60069297        5       0.03937479      -0.24169162      -0.05580038
In       3.94745078       2.73042379       2.75594524        6       0.03937479       0.24169162       0.05580038
In       4.03790690       0.10565668       0.92237386        7      -0.03937479       0.24169162      -0.05580038
O        2.14018649       3.24788377       6.38333821        8       0.03410786      -0.11250557      -0.16081111
O        0.52159940       0.62311665       4.65161909        9      -0.03410786      -0.11250557       0.16081111
O        0.52159940       2.00165046       2.70501911       10      -0.03410786       0.11250557      -0.16081111
O        2.14018649       4.62641758       0.97329999       11       0.03410786       0.11250557       0.16081111
O        3.18338529       2.00165046       0.97329999       12      -0.03410786       0.11250557       0.16081111
O        4.80197238       4.62641758       2.70501911       13       0.03410786       0.11250557      -0.16081111
O        4.80197238       3.24788377       4.65161909       14       0.03410786      -0.11250557       0.16081111
O        3.18338529       0.62311665       6.38333821       15      -0.03410786      -0.11250557      -0.16081111
O        5.17106945       3.93715067      -0.00000000       16      -0.04081007       0.00000000      -0.00000000
O        2.81428823       1.31238356       3.67831910       17       0.04081007      -0.00000000       0.00000000
O        0.15250233       1.31238356      -0.00000000       18       0.04081008       0.00000000       0.00000000
O        2.50928356       3.93715067       3.67831910       19      -0.04081007      -0.00000000      -0.00000000
20
Lattice="5.3238596916016085 1.2132311508097859e-57 -5.625029145617592e-42 -8.772646180808522e-58 5.264090416596592 -1.5393743148836836e-16 7.827503445523061e-42 9.700124805891273e-17 7.335898994489599" Properties=species:S:1:pos:R:3:spacegroup_kinds:I:1:forces:R:3 spacegroup="P 1" unit_cell=conventional occupancy="_JSON {\"0\": {\"In\": 1}, \"1\": {\"In\": 1}, \"2\": {\"In\": 1}, \"3\": {\"In\": 1}, \"4\": {\"In\": 1}, \"5\": {\"In\": 1}, \"6\": {\"In\": 1}, \"7\": {\"In\": 1}, \"8\": {\"O\": 1}, \"9\": {\"O\": 1}, \"10\": {\"O\": 1}, \"11\": {\"O\": 1}, \"12\": {\"O\": 1}, \"13\": {\"O\": 1}, \"14\": {\"O\": 1}, \"15\": {\"O\": 1}, \"16\": {\"O\": 1}, \"17\": {\"O\": 1}, \"18\": {\"O\": 1}, \"19\": {\"O\": 1}}" n_minim_iter=5 energy=-22577.779538323543 stress="0.09533026482820868 -5.716999884984172e-12 -7.037952264077479e-13 -5.716999884984172e-12 0.09292040930565026 9.643266092153824e-12 -7.037952264077479e-13 9.643266092153824e-12 0.0898411519360997" free_energy=-22577.779538323543 pbc="T T T"
In       1.29245824       2.75041069       0.91300053        0      -0.13806437       0.11653666       0.03914743
In       1.36947161       0.11836548       2.75494897        1       0.13806437       0.11653666      -0.03914743
In       1.36947161       2.51367972       4.58095003        2       0.13806437      -0.11653666       0.03914743
In       1.29245824       5.14572493       6.42289847        3      -0.13806437      -0.11653666      -0.03914743
In       4.03140146       2.51367972       6.42289847        4       0.13806437      -0.11653666      -0.03914743
In       3.95438808       5.14572493       4.58095003        5      -0.13806437      -0.11653667       0.03914743
In       3.95438808       2.75041069       2.75494897        6      -0.13806437       0.11653666      -0.03914743
In       4.03140146       0.11836548       0.91300053        7       0.13806437       0.11653666       0.03914743
O        2.14203270       3.25181498       6.35963548        8       0.02361358      -0.08136839      -0.02326149
O        0.51989715       0.61976977       4.64421301        9      -0.02361358      -0.08136839       0.02326149
O        0.51989715       2.01227544       2.69168598       10      -0.02361358       0.08136839      -0.02326149
O        2.14203270       4.64432065       0.97626351       11       0.02361358       0.08136839       0.02326149
O        3.18182699       2.01227544       0.97626351       12      -0.02361358       0.08136839       0.02326149
O        4.80396255       4.64432065       2.69168598       13       0.02361358       0.08136839      -0.02326149
O        4.80396255       3.25181498       4.64421301       14       0.02361358      -0.08136839       0.02326149
O        3.18182699       0.61976977       6.35963548       15      -0.02361358      -0.08136839      -0.02326149
O        5.16961424       3.94806781      -0.00000000       16      -0.04883125      -0.00000000      -0.00000000
O        2.81617530       1.31602260       3.66794950       17       0.04883125      -0.00000000      -0.00000000
O        0.15424545       1.31602260      -0.00000000       18       0.04883125      -0.00000000       0.00000000
O        2.50768440       3.94806781       3.66794950       19      -0.04883125       0.00000000      -0.00000000
20
Lattice="5.320180818224495 1.3606831217897496e-57 -5.5636954384578905e-42 -8.74268589817357e-58 5.259638725388033 -2.7402259518433006e-16 7.783089856744889e-42 -6.787246626033162e-17 7.34718502993363" Properties=species:S:1:pos:R:3:spacegroup_kinds:I:1:forces:R:3 spacegroup="P 1" unit_cell=conventional occupancy="_JSON {\"0\": {\"In\": 1}, \"1\": {\"In\": 1}, \"2\": {\"In\": 1}, \"3\": {\"In\": 1}, \"4\": {\"In\": 1}, \"5\": {\"In\": 1}, \"6\": {\"In\": 1}, \"7\": {\"In\": 1}, \"8\": {\"O\": 1}, \"9\": {\"O\": 1}, \"10\": {\"O\": 1}, \"11\": {\"O\": 1}, \"12\": {\"O\": 1}, \"13\": {\"O\": 1}, \"14\": {\"O\": 1}, \"15\": {\"O\": 1}, \"16\": {\"O\": 1}, \"17\": {\"O\": 1}, \"18\": {\"O\": 1}, \"19\": {\"O\": 1}}" n_minim_iter=6 energy=-22577.787232441548 stress="0.0954291066348253 5.400073108325542e-12 -1.3368725930963211e-11 5.400073108325542e-12 0.09819382865974845 5.473417714434856e-12 -1.3368725930963211e-11 5.473417714434856e-12 0.10298370548483737" free_energy=-22577.787232441548 pbc="T T T"
In       1.29019619       2.75770817       0.91265279        0      -0.10619932       0.01828421       0.06876640
In       1.36989421       0.12788881       2.76093973        1       0.10619932       0.01828422      -0.06876640
In       1.36989421       2.50193055       4.58624530        2       0.10619932      -0.01828421       0.06876640
In       1.29019619       5.13174992       6.43453224        3      -0.10619932      -0.01828421      -0.06876640
In       4.02998462       2.50193055       6.43453224        4       0.10619932      -0.01828421      -0.06876640
In       3.95028660       5.13174992       4.58624530        5      -0.10619932      -0.01828421       0.06876640
In       3.95028660       2.75770817       2.76093973        6      -0.10619932       0.01828421      -0.06876640
In       4.02998462       0.12788881       0.91265279        7       0.10619932       0.01828421       0.06876640
O        2.14187081       3.24447055       6.36613664        8       0.02544130      -0.04633463       0.08600997
O        0.51821960       0.61465119       4.65464091        9      -0.02544130      -0.04633463      -0.08600997
O        0.51821960       2.01516817       2.69254412       10      -0.02544130       0.04633463       0.08600997
O        2.14187081       4.64498753       0.98104839       11       0.02544130       0.04633463      -0.08600997
O        3.17831001       2.01516817       0.98104839       12      -0.02544130       0.04633463      -0.08600997
O        4.80196122       4.64498753       2.69254412       13       0.02544130       0.04633463       0.08600997
O        4.80196122       3.24447055       4.65464091       14       0.02544130      -0.04633463      -0.08600997
O        3.17831001       0.61465119       6.36613664       15      -0.02544130      -0.04633463       0.08600997
O        5.16391748       3.94472904      -0.00000000       16      -0.03550007       0.00000000       0.00000000
O        2.81635375       1.31490968       3.67359251       17       0.03550007      -0.00000000      -0.00000000
O        0.15626334       1.31490968      -0.00000000       18       0.03550007      -0.00000000       0.00000000
O        2.50382707       3.94472904       3.67359251       19      -0.03550007      -0.00000000      -0.00000000
20
Lattice="5.3255251281670875 1.421512668012285e-57 -5.5096626082373016e-42 -8.19622611954579e-58 5.266739394120668 -2.681868374755103e-16 7.848560895383662e-42 -6.080274907379777e-17 7.329916323980993" Properties=species:S:1:pos:R:3:spacegroup_kinds:I:1:forces:R:3 spacegroup="P 1" unit_cell=conventional occupancy="_JSON {\"0\": {\"In\": 1}, \"1\": {\"In\": 1}, \"2\": {\"In\": 1}, \"3\": {\"In\": 1}, \"4\": {\"In\": 1}, \"5\": {\"In\": 1}, \"6\": {\"In\": 1}, \"7\": {\"In\": 1}, \"8\": {\"O\": 1}, \"9\": {\"O\": 1}, \"10\": {\"O\": 1}, \"11\": {\"O\": 1}, \"12\": {\"O\": 1}, \"13\": {\"O\": 1}, \"14\": {\"O\": 1}, \"15\": {\"O\": 1}, \"16\": {\"O\": 1}, \"17\": {\"O\": 1}, \"18\": {\"O\": 1}, \"19\": {\"O\": 1}}" n_minim_iter=7 energy=-22577.794050856464 stress="0.09789307751096026 -1.3039156309311055e-11 7.095052901213032e-13 -1.3039156309311055e-11 0.10176310837722893 -1.318798879088895e-12 7.095052901213032e-13 -1.318798879088895e-12 0.09652696256170139" free_energy=-22577.794050856464 pbc="T T T"
In       1.28498947       2.76575762       0.91309551        0       0.05117454       0.01545870       0.03562232
In       1.37777309       0.13238793       2.75186265        1      -0.05117454       0.01545870      -0.03562232
In       1.37777309       2.50098177       4.57805367        2      -0.05117454      -0.01545870       0.03562232
In       1.28498947       5.13435147       6.41682081        3       0.05117454      -0.01545870      -0.03562232
In       4.04053566       2.50098177       6.41682081        4      -0.05117454      -0.01545870      -0.03562232
In       3.94775203       5.13435147       4.57805367        5       0.05117454      -0.01545870       0.03562232
In       3.94775203       2.76575762       2.75186265        6       0.05117454       0.01545870      -0.03562232
In       4.04053566       0.13238793       0.91309551        7      -0.05117454       0.01545870       0.03562232
O        2.14578476       3.24497016       6.35277770        8       0.02624638      -0.02378678       0.09739696
O        0.51697780       0.61160046       4.64209679        9      -0.02624638      -0.02378678      -0.09739696
O        0.51697780       2.02176924       2.68781954       10      -0.02624638       0.02378678       0.09739696
O        2.14578476       4.65513893       0.97713863       11       0.02624638       0.02378678      -0.09739696
O        3.17974037       2.02176924       0.97713863       12      -0.02624638       0.02378678      -0.09739696
O        4.80854733       4.65513893       2.68781954       13       0.02624638       0.02378678       0.09739696
O        4.80854733       3.24497016       4.64209679       14       0.02624638      -0.02378678      -0.09739696
O        3.17974037       0.61160046       6.35277770       15      -0.02624638      -0.02378678       0.09739696
O        5.16642491       3.95005455      -0.00000000       16      -0.04572195       0.00000000       0.00000000
O        2.82186279       1.31668485       3.66495816       17       0.04572195      -0.00000000       0.00000000
O        0.15910022       1.31668485      -0.00000000       18       0.04572195      -0.00000000       0.00000000
O        2.50366234       3.95005455       3.66495816       19      -0.04572195      -0.00000000      -0.00000000
20
Lattice="5.328855111066902 1.4816865196954536e-57 -5.5001062848867704e-42 -7.90475810811273e-58 5.261398968072458 -2.9993927175240548e-16 7.904041807440072e-42 -1.0426635285472434e-16 7.332771248573902" Properties=species:S:1:pos:R:3:spacegroup_kinds:I:1:forces:R:3 spacegroup="P 1" unit_cell=conventional occupancy="_JSON {\"0\": {\"In\": 1}, \"1\": {\"In\": 1}, \"2\": {\"In\": 1}, \"3\": {\"In\": 1}, \"4\": {\"In\": 1}, \"5\": {\"In\": 1}, \"6\": {\"In\": 1}, \"7\": {\"In\": 1}, \"8\": {\"O\": 1}, \"9\": {\"O\": 1}, \"10\": {\"O\": 1}, \"11\": {\"O\": 1}, \"12\": {\"O\": 1}, \"13\": {\"O\": 1}, \"14\": {\"O\": 1}, \"15\": {\"O\": 1}, \"16\": {\"O\": 1}, \"17\": {\"O\": 1}, \"18\": {\"O\": 1}, \"19\": {\"O\": 1}}" n_minim_iter=8 energy=-22577.796137608337 stress="0.10046598371534127 -1.4550643755537301e-11 -7.2145650133772315e-12 -1.4550643755537301e-11 0.09960339123252435 -1.333148734754375e-12 -7.2145650133772315e-12 -1.333148734754375e-12 0.09900758051431288" free_energy=-22577.796137608337 pbc="T T T"
In       1.28551908       2.76435750       0.91445817        0       0.05614950       0.01059887       0.03544411
In       1.37890848       0.13365802       2.75192746        1      -0.05614950       0.01059887      -0.03544411
In       1.37890848       2.49704146       4.58084379        2      -0.05614950      -0.01059887       0.03544411
In       1.28551908       5.12774095       6.41831308        3       0.05614950      -0.01059887      -0.03544411
In       4.04333603       2.49704146       6.41831308        4      -0.05614950      -0.01059887      -0.03544411
In       3.94994663       5.12774095       4.58084379        5       0.05614950      -0.01059887       0.03544411
In       3.94994663       2.76435750       2.75192746        6       0.05614950       0.01059887      -0.03544411
In       4.04333603       0.13365802       0.91445817        7      -0.05614950       0.01059887       0.03544411
O        2.14787903       3.24060327       6.35656851        8       0.01073687      -0.02869071       0.05658129
O        0.51654852       0.60990379       4.64258837        9      -0.01073687      -0.02869071      -0.05658129
O        0.51654852       2.02079570       2.69018288       10      -0.01073687       0.02869071       0.05658129
O        2.14787903       4.65149518       0.97620274       11       0.01073687       0.02869071      -0.05658129
O        3.18097608       2.02079570       0.97620274       12      -0.01073687       0.02869071      -0.05658129
O        4.81230659       4.65149518       2.69018288       13       0.01073687       0.02869071       0.05658129
O        4.81230659       3.24060327       4.64258837       14       0.01073687      -0.02869071      -0.05658129
O        3.18097608       0.60990379       6.35656851       15      -0.01073687      -0.02869071       0.05658129
O        5.16853087       3.94604923      -0.00000000       16      -0.04006889       0.00000000      -0.00000000
O        2.82475180       1.31534974       3.66638562       17       0.04006889       0.00000000      -0.00000000
O        0.16032424       1.31534974      -0.00000000       18       0.04006889       0.00000000      -0.00000000
O        2.50410331       3.94604923       3.66638562       19      -0.04006889      -0.00000000      -0.00000000
20
Lattice="5.329167347110344 1.5160204464896818e-57 -5.499966202841616e-42 -5.616522230985638e-58 5.25976011717837 -2.895033125475981e-16 7.906620206826213e-42 -8.977961230844291e-17 7.33462625301505" Properties=species:S:1:pos:R:3:spacegroup_kinds:I:1:forces:R:3 spacegroup="P 1" unit_cell=conventional occupancy="_JSON {\"0\": {\"In\": 1}, \"1\": {\"In\": 1}, \"2\": {\"In\": 1}, \"3\": {\"In\": 1}, \"4\": {\"In\": 1}, \"5\": {\"In\": 1}, \"6\": {\"In\": 1}, \"7\": {\"In\": 1}, \"8\": {\"O\": 1}, \"9\": {\"O\": 1}, \"10\": {\"O\": 1}, \"11\": {\"O\": 1}, \"12\": {\"O\": 1}, \"13\": {\"O\": 1}, \"14\": {\"O\": 1}, \"15\": {\"O\": 1}, \"16\": {\"O\": 1}, \"17\": {\"O\": 1}, \"18\": {\"O\": 1}, \"19\": {\"O\": 1}}" n_minim_iter=9 energy=-22577.79820667685 stress="0.10139277706087911 -8.35715258898819e-12 -2.901121860241215e-12 -8.35715258898819e-12 0.0988458514889229 2.279073313279152e-12 -2.901121860241215e-12 2.279073313279152e-12 0.10090563383044199" free_energy=-22577.79820667685 pbc="T T T"
In       1.28594418       2.76572490       0.91659109        0       0.04055438       0.00664063       0.03440517
In       1.37863949       0.13584485       2.75072204        1      -0.04055438       0.00664063      -0.03440517
In       1.37863949       2.49403521       4.58390421        2      -0.04055438      -0.00664063       0.03440517
In       1.28594418       5.12391527       6.41803516        3       0.04055438      -0.00664063      -0.03440517
In       4.04322316       2.49403521       6.41803516        4      -0.04055438      -0.00664063      -0.03440517
In       3.95052786       5.12391527       4.58390421        5       0.04055438      -0.00664063       0.03440517
In       3.95052786       2.76572490       2.75072204        6       0.04055438       0.00664063      -0.03440517
In       4.04322316       0.13584485       0.91659109        7      -0.04055438       0.00664063       0.03440517
O        2.14905533       3.23740531       6.36074154        8      -0.02210766      -0.02363796       0.00111668
O        0.51552835       0.60752525       4.64119784        9       0.02210766      -0.02363796      -0.00111668
O        0.51552835       2.02235481       2.69342842       10       0.02210766       0.02363796       0.00111668
O        2.14905533       4.65223487       0.97388471       11      -0.02210766       0.02363796      -0.00111668
O        3.18011202       2.02235481       0.97388471       12       0.02210766       0.02363796      -0.00111668
O        4.81363900       4.65223487       2.69342842       13      -0.02210766       0.02363796       0.00111668
O        4.81363900       3.23740531       4.64119784       14      -0.02210766      -0.02363796      -0.00111668
O        3.18011202       0.60752525       6.36074154       15       0.02210766      -0.02363796       0.00111668
O        5.16655438       3.94482009      -0.00000000       16      -0.02904171      -0.00000000      -0.00000000
O        2.82719664       1.31494003       3.66731313       17       0.02904171      -0.00000000      -0.00000000
O        0.16261297       1.31494003      -0.00000000       18       0.02904171       0.00000000      -0.00000000
O        2.50197071       3.94482009       3.66731313       19      -0.02904171       0.00000000      -0.00000000
20