20
Lattice="5.2165572145941 -4.161674462362774e-57 -1.9086454853121232e-42 -2.1341947855824588e-58 5.989129031460539 3.572594545092197e-15 6.551993416960221e-44 -5.884318035741191e-15 9.870676048173394" Properties=species:S:1:pos:R:3:spacegroup_kinds:I:1:forces:R:3 spacegroup="P 1" unit_cell=conventional occupancy="_JSON {\"0\": {\"In\": 1}, \"1\": {\"In\": 1}, \"2\": {\"In\": 1}, \"3\": {\"In\": 1}, \"4\": {\"In\": 1}, \"5\": {\"In\": 1}, \"6\": {\"In\": 1}, \"7\": {\"In\": 1}, \"8\": {\"O\": 1}, \"9\": {\"O\": 1}, \"10\": {\"O\": 1}, \"11\": {\"O\": 1}, \"12\": {\"O\": 1}, \"13\": {\"O\": 1}, \"14\": {\"O\": 1}, \"15\": {\"O\": 1}, \"16\": {\"O\": 1}, \"17\": {\"O\": 1}, \"18\": {\"O\": 1}, \"19\": {\"O\": 1}}" n_minim_iter=7 energy=-22574.160726935057 stress="0.07537103466404127 3.457317603051324e-12 4.333767214887179e-12 3.457317603051324e-12 0.07547798452715586 2.408429341188117e-12 4.333767214887179e-12 2.408429341188117e-12 0.07539165298872438" free_energy=-22574.160726935057 pbc="T T T"
In       1.11712765       2.99463468       1.19557559        0      -0.00411692      -0.00000000       0.00620911
In       1.49115096       0.00007017       3.73976243        1       0.00411692       0.00000000      -0.00620911
In       1.49115096       2.99463468       6.13091362        2       0.00411692      -0.00000000       0.00620911
In       1.11712765       5.98919920       8.67510045        3      -0.00411692      -0.00000000      -0.00620911
In       4.09942956       2.99463468       8.67510045        4       0.00411692       0.00000000      -0.00620911
In       3.72540626       5.98919920       6.13091362        5      -0.00411692       0.00000000       0.00620911
In       3.72540626       2.99463468       3.73976243        6      -0.00411692      -0.00000000      -0.00620911
In       4.09942956       0.00007017       1.19557559        7       0.00411692       0.00000000       0.00620911
O        1.97143773       2.99463468       8.24402099        8       0.00453206       0.00000000      -0.00240059
O        0.63684088       0.00007017       6.56199308        9      -0.00453206      -0.00000000       0.00240059
O        0.63684088       2.99463468       3.30868297       10      -0.00453206       0.00000000      -0.00240059
O        1.97143773       5.98919920       1.62665505       11       0.00453206      -0.00000000       0.00240059
O        3.24511949       2.99463468       1.62665505       12      -0.00453206       0.00000000       0.00240059
O        4.57971633       5.98919920       3.30868297       13       0.00453206       0.00000000      -0.00240059
O        4.57971633       2.99463468       6.56199308       14       0.00453206       0.00000000       0.00240059
O        3.24511949       0.00007017       8.24402099       15      -0.00453206       0.00000000      -0.00240059
O        5.21655721       4.49191694      -0.00000000       16       0.00000000       0.00000000      -0.00000000
O        2.60827861       1.49735242       4.93533802       17      -0.00000000      -0.00000000       0.00000000
O       -0.00000000       1.49735242      -0.00000000       18      -0.00000000      -0.00000000      -0.00000000
O        2.60827861       4.49191694       4.93533802       19      -0.00000000      -0.00000000       0.00000000
