20
Lattice="5.685103846888622 -1.667037000514015e-60 -4.356257288403763e-43 4.1795279105036616e-61 5.7608147766270745 1.8419449558871733e-17 1.9415353108651526e-42 3.160862755365093e-17 8.239109647166156" Properties=species:S:1:pos:R:3:spacegroup_kinds:I:1:forces:R:3 spacegroup="P 1" unit_cell=conventional occupancy="_JSON {\"0\": {\"In\": 1}, \"1\": {\"In\": 1}, \"2\": {\"In\": 1}, \"3\": {\"In\": 1}, \"4\": {\"In\": 1}, \"5\": {\"In\": 1}, \"6\": {\"In\": 1}, \"7\": {\"In\": 1}, \"8\": {\"O\": 1}, \"9\": {\"O\": 1}, \"10\": {\"O\": 1}, \"11\": {\"O\": 1}, \"12\": {\"O\": 1}, \"13\": {\"O\": 1}, \"14\": {\"O\": 1}, \"15\": {\"O\": 1}, \"16\": {\"O\": 1}, \"17\": {\"O\": 1}, \"18\": {\"O\": 1}, \"19\": {\"O\": 1}}" n_minim_iter=6 energy=-22574.884787394265 stress="0.021644100235113057 8.454950797616719e-12 -9.376850539952767e-12 8.454950797616719e-12 0.02178324875761943 -6.238033368859743e-13 -9.376850539952767e-12 -6.238033368859743e-13 0.02158543015185444" free_energy=-22574.884787394265 pbc="T T T"
In       1.40890093       3.03710657       0.94632076        0      -0.00204870       0.00000862      -0.00443306
In       1.43365100       0.15669918       3.17323407        1       0.00204870       0.00000862       0.00443306
In       1.43365100       2.72370821       5.06587558        2       0.00204870      -0.00000862      -0.00443306
In       1.40890093       5.60411560       7.29278889        3      -0.00204870      -0.00000862       0.00443306
In       4.27620292       2.72370821       7.29278889        4       0.00204870      -0.00000862       0.00443306
In       4.25145285       5.60411560       5.06587558        5      -0.00204870      -0.00000862      -0.00443306
In       4.25145285       3.03710657       3.17323407        6      -0.00204870       0.00000862       0.00443306
In       4.27620292       0.15669918       0.94632076        7       0.00204870       0.00000862      -0.00443306
O        2.22007392       3.47765814       6.99548933        8       0.00277995       0.00220452      -0.00149665
O        0.62247801       0.59725075       5.36317514        9      -0.00277994       0.00220452       0.00149665
O        0.62247801       2.28315664       2.87593451       10      -0.00277994      -0.00220452      -0.00149665
O        2.22007392       5.16356403       1.24362031       11       0.00277994      -0.00220452       0.00149665
O        3.46502993       2.28315664       1.24362031       12      -0.00277994      -0.00220452       0.00149665
O        5.06262584       5.16356403       2.87593451       13       0.00277994      -0.00220452      -0.00149665
O        5.06262584       3.47765814       5.36317514       14       0.00277994       0.00220452       0.00149665
O        3.46502993       0.59725075       6.99548933       15      -0.00277994       0.00220452      -0.00149665
O        5.44632564       4.32061108      -0.00000000       16       0.00278469       0.00000000       0.00000000
O        3.08133013       1.44020369       4.11955482       17      -0.00278469       0.00000000       0.00000000
O        0.23877821       1.44020369      -0.00000000       18      -0.00278469       0.00000000       0.00000000
O        2.60377372       4.32061108       4.11955482       19       0.00278469      -0.00000000       0.00000000
