20
Lattice="5.847665237111128 2.5195971483174214e-59 -3.3794478808766646e-42 3.1497223902667414e-60 5.736795048555073 -5.935095239427631e-17 3.4616205607541726e-42 -5.934386069682353e-17 8.426634275641572" Properties=species:S:1:pos:R:3:spacegroup_kinds:I:1:forces:R:3 spacegroup="P 1" unit_cell=conventional occupancy="_JSON {\"0\": {\"In\": 1}, \"1\": {\"In\": 1}, \"2\": {\"In\": 1}, \"3\": {\"In\": 1}, \"4\": {\"In\": 1}, \"5\": {\"In\": 1}, \"6\": {\"In\": 1}, \"7\": {\"In\": 1}, \"8\": {\"O\": 1}, \"9\": {\"O\": 1}, \"10\": {\"O\": 1}, \"11\": {\"O\": 1}, \"12\": {\"O\": 1}, \"13\": {\"O\": 1}, \"14\": {\"O\": 1}, \"15\": {\"O\": 1}, \"16\": {\"O\": 1}, \"17\": {\"O\": 1}, \"18\": {\"O\": 1}, \"19\": {\"O\": 1}}" n_minim_iter=8 energy=-22573.95327056686 stress="0.06570281904419405 6.247664246528622e-13 -4.487686161326061e-12 6.247664246528622e-13 0.0659510920015163 -3.164310702051804e-12 -4.487686161326061e-12 -3.164310702051804e-12 0.06583650056770489" free_energy=-22573.95327056686 pbc="T T T"
In       1.46373279       3.01195706       0.96116679        0      -0.00497452      -0.00559322       0.00283586
In       1.46009983       0.14355954       3.25215035        1       0.00497452      -0.00559322      -0.00283586
In       1.46009983       2.72483798       5.17448393        2       0.00497452       0.00559322       0.00283586
In       1.46373279       5.59323551       7.46546749        3      -0.00497452       0.00559322      -0.00283586
In       4.38393244       2.72483798       7.46546749        4       0.00497452       0.00559322      -0.00283586
In       4.38756541       5.59323551       5.17448393        5      -0.00497452       0.00559322       0.00283586
In       4.38756541       3.01195706       3.25215035        6      -0.00497452      -0.00559322      -0.00283586
In       4.38393244       0.14355954       0.96116679        7       0.00497452      -0.00559322       0.00283586
O        2.28099076       3.45071502       7.14008328        8      -0.00412792       0.00005371       0.00717504
O        0.64284186       0.58231750       5.49986813        9       0.00412792       0.00005371      -0.00717504
O        0.64284186       2.28608003       2.92676614       10       0.00412792      -0.00005371       0.00717504
O        2.28099076       5.15447755       1.28655099       11      -0.00412791      -0.00005371      -0.00717504
O        3.56667448       2.28608003       1.28655099       12       0.00412792      -0.00005371      -0.00717504
O        5.20482337       5.15447755       2.92676614       13      -0.00412791      -0.00005371       0.00717504
O        5.20482337       3.45071502       5.49986813       14      -0.00412792       0.00005371      -0.00717504
O        3.56667448       0.58231750       7.14008328       15       0.00412791       0.00005371       0.00717504
O        5.56442663       4.30259629      -0.00000000       16      -0.00859759      -0.00000000      -0.00000000
O        3.20707123       1.43419876       4.21331714       17       0.00859759       0.00000000      -0.00000000
O        0.28323861       1.43419876      -0.00000000       18       0.00859759      -0.00000000       0.00000000
O        2.64059401       4.30259629       4.21331714       19      -0.00859759      -0.00000000       0.00000000
