20
Lattice="5.448615698007619 7.876740277211175e-58 -1.1267257948571825e-41 -8.86876231182677e-58 5.444556129464394 -8.240026643320505e-17 1.3844935515024403e-41 5.695127048109555e-17 7.363487712955739" Properties=species:S:1:pos:R:3:spacegroup_kinds:I:1:forces:R:3 spacegroup="P 1" unit_cell=conventional occupancy="_JSON {\"0\": {\"In\": 1}, \"1\": {\"In\": 1}, \"2\": {\"In\": 1}, \"3\": {\"In\": 1}, \"4\": {\"In\": 1}, \"5\": {\"In\": 1}, \"6\": {\"In\": 1}, \"7\": {\"In\": 1}, \"8\": {\"O\": 1}, \"9\": {\"O\": 1}, \"10\": {\"O\": 1}, \"11\": {\"O\": 1}, \"12\": {\"O\": 1}, \"13\": {\"O\": 1}, \"14\": {\"O\": 1}, \"15\": {\"O\": 1}, \"16\": {\"O\": 1}, \"17\": {\"O\": 1}, \"18\": {\"O\": 1}, \"19\": {\"O\": 1}}" n_minim_iter=13 energy=-22576.408528396263 stress="0.11288196612234488 7.168640179268842e-12 -4.596699438631592e-12 7.168640179268842e-12 0.1128648648628925 -8.429504976157366e-12 -4.596699438631592e-12 -8.429504976157366e-12 0.11279439811396373" free_energy=-22576.408528396263 pbc="T T T"
In       1.33104356       2.85191520       0.95314600        0       0.00152227      -0.00093838       0.00046635
In       1.39326428       0.12963714       2.72859785        1      -0.00152227      -0.00093838      -0.00046635
In       1.39326428       2.59264093       4.63488986        2      -0.00152227       0.00093838       0.00046635
In       1.33104356       5.31491899       6.41034171        3       0.00152227       0.00093838      -0.00046635
In       4.11757213       2.59264093       6.41034171        4      -0.00152227       0.00093838      -0.00046635
In       4.05535141       5.31491899       4.63488986        5       0.00152227       0.00093838       0.00046635
In       4.05535141       2.85191520       2.72859785        6       0.00152227      -0.00093838      -0.00046635
In       4.11757213       0.12963714       0.95314600        7      -0.00152227      -0.00093838       0.00046635
O        2.14321731       3.32160642       6.40631397        8       0.00295833      -0.00036462       0.00008680
O        0.58109054       0.59932836       4.63891760        9      -0.00295833      -0.00036462      -0.00008680
O        0.58109054       2.12294971       2.72457012       10      -0.00295833       0.00036462       0.00008680
O        2.14321731       4.84522777       0.95717374       11       0.00295832       0.00036462      -0.00008680
O        3.30539839       2.12294971       0.95717374       12      -0.00295832       0.00036462      -0.00008680
O        4.86752516       4.84522777       2.72457012       13       0.00295833       0.00036462       0.00008680
O        4.86752516       3.32160642       4.63891760       14       0.00295832      -0.00036462      -0.00008680
O        3.30539839       0.59932836       6.40631397       15      -0.00295832      -0.00036462       0.00008680
O        5.23890322       4.08341710      -0.00000000       16       0.00001032       0.00000000      -0.00000000
O        2.93402033       1.36113903       3.68174386       17      -0.00001032       0.00000000      -0.00000000
O        0.20971248       1.36113903      -0.00000000       18      -0.00001032      -0.00000000      -0.00000000
O        2.51459537       4.08341710       3.68174386       19       0.00001032       0.00000000       0.00000000
