20
Lattice="5.555295027470536 9.059867140206454e-58 -1.0884208601721495e-41 -1.0487310852503633e-57 5.629270609260726 -7.01536207147963e-17 1.4373124920542697e-41 1.6126570202386167e-16 7.395994036242816" Properties=species:S:1:pos:R:3:spacegroup_kinds:I:1:forces:R:3 spacegroup="P 1" unit_cell=conventional occupancy="_JSON {\"0\": {\"In\": 1}, \"1\": {\"In\": 1}, \"2\": {\"In\": 1}, \"3\": {\"In\": 1}, \"4\": {\"In\": 1}, \"5\": {\"In\": 1}, \"6\": {\"In\": 1}, \"7\": {\"In\": 1}, \"8\": {\"O\": 1}, \"9\": {\"O\": 1}, \"10\": {\"O\": 1}, \"11\": {\"O\": 1}, \"12\": {\"O\": 1}, \"13\": {\"O\": 1}, \"14\": {\"O\": 1}, \"15\": {\"O\": 1}, \"16\": {\"O\": 1}, \"17\": {\"O\": 1}, \"18\": {\"O\": 1}, \"19\": {\"O\": 1}}" n_minim_iter=11 energy=-22575.2693481618 stress="0.059928524561247434 2.236770618802804e-12 -7.488953352375147e-12 2.236770618802804e-12 0.060072834688242406 1.7323553147735847e-12 -7.488953352375147e-12 1.7323553147735847e-12 0.06011815470632701" free_energy=-22575.2693481618 pbc="T T T"
In       1.36256041       2.96321323       0.93816332        0      -0.00106894       0.00355192      -0.00157816
In       1.41508711       0.14857792       2.75983370        1       0.00106894       0.00355191       0.00157816
In       1.41508711       2.66605738       4.63616034        2       0.00106894      -0.00355192      -0.00157816
In       1.36256041       5.48069269       6.45783071        3      -0.00106894      -0.00355192       0.00157816
In       4.19273462       2.66605738       6.45783071        4       0.00106894      -0.00355192       0.00157816
In       4.14020792       5.48069269       4.63616034        5      -0.00106894      -0.00355192      -0.00157816
In       4.14020792       2.96321323       2.75983370        6      -0.00106894       0.00355191       0.00157816
In       4.19273462       0.14857792       0.93816332        7       0.00106894       0.00355192      -0.00157816
O        2.21170998       3.46525248       6.40129765        8      -0.00047370       0.00432209       0.00151529
O        0.56593754       0.65061718       4.69269340        9       0.00047370       0.00432209      -0.00151529
O        0.56593754       2.16401813       2.70330063       10       0.00047370      -0.00432209       0.00151529
O        2.21170998       4.97865343       0.99469638       11      -0.00047370      -0.00432209      -0.00151529
O        3.34358505       2.16401813       0.99469638       12       0.00047370      -0.00432209      -0.00151529
O        4.98935749       4.97865343       2.70330063       13      -0.00047371      -0.00432209       0.00151529
O        4.98935749       3.46525248       4.69269340       14      -0.00047371       0.00432209      -0.00151529
O        3.34358505       0.65061718       6.40129765       15       0.00047370       0.00432209       0.00151529
O        5.36315823       4.22195296      -0.00000000       16      -0.00350058       0.00000000      -0.00000000
O        2.96978431       1.40731765       3.69799702       17       0.00350058       0.00000000      -0.00000000
O        0.19213680       1.40731765      -0.00000000       18       0.00350058       0.00000000       0.00000000
O        2.58551071       4.22195296       3.69799702       19      -0.00350058       0.00000000      -0.00000000
