20
Lattice="5.882975214977898 -7.212572853549421e-60 -2.0143820108950535e-42 3.0576617237897215e-59 5.950586112697093 6.799228982809039e-17 2.9535152438211895e-42 -9.855855422751384e-17 8.625701025169002" Properties=species:S:1:pos:R:3:spacegroup_kinds:I:1:forces:R:3 spacegroup="P 1" unit_cell=conventional occupancy="_JSON {\"0\": {\"In\": 1}, \"1\": {\"In\": 1}, \"2\": {\"In\": 1}, \"3\": {\"In\": 1}, \"4\": {\"In\": 1}, \"5\": {\"In\": 1}, \"6\": {\"In\": 1}, \"7\": {\"In\": 1}, \"8\": {\"O\": 1}, \"9\": {\"O\": 1}, \"10\": {\"O\": 1}, \"11\": {\"O\": 1}, \"12\": {\"O\": 1}, \"13\": {\"O\": 1}, \"14\": {\"O\": 1}, \"15\": {\"O\": 1}, \"16\": {\"O\": 1}, \"17\": {\"O\": 1}, \"18\": {\"O\": 1}, \"19\": {\"O\": 1}}" n_minim_iter=1 energy=-22572.17703697188 stress="0.12217054816800722 3.0891381987432773e-12 -1.2371014188347249e-12 3.0891381987432773e-12 0.11910824625962639 6.853056782350413e-12 -1.2371014188347249e-12 6.853056782350413e-12 0.11405088132494275" free_energy=-22572.17703697188 pbc="T T T"
In       1.45716827       3.16267461       0.99577433        0      -0.00070795      -0.03915018      -0.04083466
In       1.48431934       0.18738155       3.31707618        1       0.00070795      -0.03915018       0.04083466
In       1.48431934       2.78791151       5.30862484        2       0.00070795       0.03915018      -0.04083466
In       1.45716827       5.76320456       7.62992669        3      -0.00070795       0.03915018       0.04083466
In       4.42580695       2.78791151       7.62992669        4       0.00070795       0.03915018       0.04083466
In       4.39865587       5.76320456       5.30862484        5      -0.00070795       0.03915018      -0.04083467
In       4.39865587       3.16267461       3.31707618        6      -0.00070795      -0.03915018       0.04083466
In       4.42580695       0.18738155       0.99577433        7       0.00070795      -0.03915018      -0.04083466
O        2.30098404       3.53011166       7.30212648        8      -0.01201580      -0.04640794      -0.01172034
O        0.64050357       0.55481861       5.63642506        9       0.01201580      -0.04640794       0.01172034
O        0.64050357       2.42047445       2.98927596       10       0.01201580       0.04640794      -0.01172034
O        2.30098404       5.39576751       1.32357455       11      -0.01201580       0.04640794       0.01172034
O        3.58199118       2.42047445       1.32357455       12       0.01201580       0.04640794       0.01172034
O        5.24247164       5.39576751       2.98927596       13      -0.01201580       0.04640794      -0.01172034
O        5.24247164       3.53011166       5.63642506       14      -0.01201580      -0.04640794       0.01172034
O        3.58199118       0.55481861       7.30212648       15       0.01201580      -0.04640794      -0.01172034
O        5.58990423       4.46293958       0.00000000       16      -0.04315041       0.00000000       0.00000000
O        3.23455859       1.48764653       4.31285051       17       0.04315041      -0.00000000      -0.00000000
O        0.29307098       1.48764653       0.00000000       18       0.04315041      -0.00000000       0.00000000
O        2.64841663       4.46293958       4.31285051       19      -0.04315041      -0.00000000       0.00000000
20
Lattice="5.859200136203995 8.039624013723151e-60 -2.0117126428937704e-42 4.9888582811942725e-59 5.946288322595977 7.92650666319697e-17 2.9590232206254466e-42 -8.279633746771386e-17 8.66696151293315" Properties=species:S:1:pos:R:3:spacegroup_kinds:I:1:forces:R:3 spacegroup="P 1" unit_cell=conventional occupancy="_JSON {\"0\": {\"In\": 1}, \"1\": {\"In\": 1}, \"2\": {\"In\": 1}, \"3\": {\"In\": 1}, \"4\": {\"In\": 1}, \"5\": {\"In\": 1}, \"6\": {\"In\": 1}, \"7\": {\"In\": 1}, \"8\": {\"O\": 1}, \"9\": {\"O\": 1}, \"10\": {\"O\": 1}, \"11\": {\"O\": 1}, \"12\": {\"O\": 1}, \"13\": {\"O\": 1}, \"14\": {\"O\": 1}, \"15\": {\"O\": 1}, \"16\": {\"O\": 1}, \"17\": {\"O\": 1}, \"18\": {\"O\": 1}, \"19\": {\"O\": 1}}" n_minim_iter=2 energy=-22572.182631790038 stress="0.11690372066089603 -2.414858004623865e-12 2.7911206084063444e-12 -2.414858004623865e-12 0.11715599472380722 2.072550385315146e-12 2.7911206084063444e-12 2.072550385315146e-12 0.11700433152701138" free_energy=-22572.182631790038 pbc="T T T"
In       1.45127682       3.16024962       1.00038993        0      -0.02169610      -0.02888715      -0.00586435
In       1.47832324       0.18710546       3.33309083        1       0.02169610      -0.02888715       0.00586435
In       1.47832324       2.78603871       5.33387069        2       0.02169610       0.02888715      -0.00586435
In       1.45127682       5.75918287       7.66657158        3      -0.02169610       0.02888715       0.00586435
In       4.40792331       2.78603871       7.66657158        4       0.02169610       0.02888715       0.00586435
In       4.38087689       5.75918287       5.33387069        5      -0.02169610       0.02888715      -0.00586435
In       4.38087689       3.16024962       3.33309083        6      -0.02169610      -0.02888715       0.00586435
In       4.40792331       0.18710546       1.00038993        7       0.02169610      -0.02888715      -0.00586435
O        2.29164193       3.52739520       7.33701336        8      -0.01750218      -0.04270680      -0.06090427
O        0.63795814       0.55425104       5.66342891        9       0.01750218      -0.04270680       0.06090427
O        0.63795814       2.41889312       3.00353260       10       0.01750218       0.04270680      -0.06090427
O        2.29164193       5.39203729       1.32994815       11      -0.01750218       0.04270680       0.06090428
O        3.56755821       2.41889312       1.32994815       12       0.01750218       0.04270680       0.06090427
O        5.22124200       5.39203729       3.00353260       13      -0.01750218       0.04270680      -0.06090428
O        5.22124200       3.52739520       5.66342891       14      -0.01750218      -0.04270680       0.06090428
O        3.56755821       0.55425104       7.33701336       15       0.01750218      -0.04270681      -0.06090428
O        5.56715893       4.45971624       0.00000000       16      -0.05613375      -0.00000000       0.00000000
O        3.22164128       1.48657208       4.33348076       17       0.05613375      -0.00000000      -0.00000000
O        0.29204121       1.48657208       0.00000000       18       0.05613376       0.00000000       0.00000000
O        2.63755886       4.45971624       4.33348076       19      -0.05613375       0.00000000      -0.00000000
20
Lattice="5.864048254565395 7.8524096451743e-60 -1.6795249789650867e-42 4.756412987198334e-59 5.930856983609187 7.940560117588521e-17 2.7212573643046373e-42 -8.258147093568347e-17 8.6823277711741" Properties=species:S:1:pos:R:3:spacegroup_kinds:I:1:forces:R:3 spacegroup="P 1" unit_cell=conventional occupancy="_JSON {\"0\": {\"In\": 1}, \"1\": {\"In\": 1}, \"2\": {\"In\": 1}, \"3\": {\"In\": 1}, \"4\": {\"In\": 1}, \"5\": {\"In\": 1}, \"6\": {\"In\": 1}, \"7\": {\"In\": 1}, \"8\": {\"O\": 1}, \"9\": {\"O\": 1}, \"10\": {\"O\": 1}, \"11\": {\"O\": 1}, \"12\": {\"O\": 1}, \"13\": {\"O\": 1}, \"14\": {\"O\": 1}, \"15\": {\"O\": 1}, \"16\": {\"O\": 1}, \"17\": {\"O\": 1}, \"18\": {\"O\": 1}, \"19\": {\"O\": 1}}" n_minim_iter=3 energy=-22572.18477162645 stress="0.11776669199943025 1.4611599070067373e-12 -2.4809881044020178e-12 1.4611599070067373e-12 0.1139175191638536 8.420152557246702e-13 -2.4809881044020178e-12 8.420152557246702e-13 0.11723810876574471" free_energy=-22572.18477162645 pbc="T T T"
In       1.45121830       3.15032395       1.00177143        0       0.00092833      -0.01910281       0.02301922
In       1.48080583       0.18489546       3.33939246        1      -0.00092833      -0.01910281      -0.02301922
In       1.48080583       2.78053303       5.34293531        2      -0.00092833       0.01910281       0.02301922
In       1.45121830       5.74596152       7.68055634        3       0.00092833       0.01910281      -0.02301922
In       4.41282996       2.78053303       7.68055634        4      -0.00092833       0.01910281      -0.02301922
In       4.38324243       5.74596152       5.34293531        5       0.00092833       0.01910281       0.02301922
In       4.38324243       3.15032395       3.33939246        6       0.00092832      -0.01910281      -0.02301922
In       4.41282996       0.18489546       1.00177143        7      -0.00092833      -0.01910281       0.02301922
O        2.29250954       3.51570446       7.34640925        8      -0.01153221      -0.02648631      -0.05225514
O        0.63951459       0.55027597       5.67708240        9       0.01153221      -0.02648631       0.05225514
O        0.63951459       2.41515253       3.00524537       10       0.01153221       0.02648631      -0.05225514
O        2.29250954       5.38058102       1.33591852       11      -0.01153221       0.02648631       0.05225514
O        3.57153872       2.41515253       1.33591852       12       0.01153221       0.02648631       0.05225514
O        5.22453367       5.38058102       3.00524537       13      -0.01153221       0.02648631      -0.05225514
O        5.22453367       3.51570446       5.67708240       14      -0.01153221      -0.02648631       0.05225514
O        3.57153872       0.55027597       7.34640925       15       0.01153221      -0.02648631      -0.05225514
O        5.56846139       4.44814274       0.00000000       16      -0.03140254      -0.00000000      -0.00000000
O        3.22761099       1.48271425       4.34116389       17       0.03140254      -0.00000000      -0.00000000
O        0.29558686       1.48271425       0.00000000       18       0.03140254       0.00000000      -0.00000000
O        2.63643727       4.44814274       4.34116389       19      -0.03140254      -0.00000000      -0.00000000
20
Lattice="5.840590959098927 8.203779170936551e-60 -2.0057034776022153e-42 4.335347778706713e-59 5.9492297485401435 7.947830423744187e-17 2.2346126845604936e-42 -8.283729399082492e-17 8.690277233190066" Properties=species:S:1:pos:R:3:spacegroup_kinds:I:1:forces:R:3 spacegroup="P 1" unit_cell=conventional occupancy="_JSON {\"0\": {\"In\": 1}, \"1\": {\"In\": 1}, \"2\": {\"In\": 1}, \"3\": {\"In\": 1}, \"4\": {\"In\": 1}, \"5\": {\"In\": 1}, \"6\": {\"In\": 1}, \"7\": {\"In\": 1}, \"8\": {\"O\": 1}, \"9\": {\"O\": 1}, \"10\": {\"O\": 1}, \"11\": {\"O\": 1}, \"12\": {\"O\": 1}, \"13\": {\"O\": 1}, \"14\": {\"O\": 1}, \"15\": {\"O\": 1}, \"16\": {\"O\": 1}, \"17\": {\"O\": 1}, \"18\": {\"O\": 1}, \"19\": {\"O\": 1}}" n_minim_iter=4 energy=-22572.188585814438 stress="0.11405497393404994 2.795270574855984e-12 -2.3956557789358808e-12 2.795270574855984e-12 0.1154387632662936 -6.664296831973056e-13 -2.3956557789358808e-12 -6.664296831973056e-13 0.1141612510465269" free_energy=-22572.188585814438 pbc="T T T"
In       1.44194119       3.15500467       1.00193137        0       0.02578417       0.01938328       0.02939230
In       1.47835428       0.18038980       3.34320724        1      -0.02578417       0.01938328      -0.02939230
In       1.47835428       2.79422508       5.34706999        2      -0.02578417      -0.01938328       0.02939230
In       1.44194119       5.76883995       7.68834586        3       0.02578417      -0.01938328      -0.02939230
In       4.39864976       2.79422508       7.68834586        4      -0.02578417      -0.01938328      -0.02939230
In       4.36223667       5.76883995       5.34706999        5       0.02578417      -0.01938328       0.02939230
In       4.36223667       3.15500467       3.34320724        6       0.02578417       0.01938328      -0.02939230
In       4.39864976       0.18038980       1.00193137        7      -0.02578417       0.01938328       0.02939230
O        2.28032945       3.51914796       7.34233203        8       0.02458465       0.00752937      -0.03139760
O        0.63996603       0.54453309       5.69308382        9      -0.02458465       0.00752936       0.03139760
O        0.63996603       2.43008179       2.99719341       10      -0.02458465      -0.00752936      -0.03139760
O        2.28032945       5.40469666       1.34794520       11       0.02458465      -0.00752937       0.03139760
O        3.56026151       2.43008179       1.34794520       12      -0.02458465      -0.00752937       0.03139760
O        5.20062493       5.40469666       2.99719341       13       0.02458465      -0.00752936      -0.03139760
O        5.20062493       3.51914796       5.69308382       14       0.02458465       0.00752936       0.03139760
O        3.56026151       0.54453309       7.34233203       15      -0.02458465       0.00752936      -0.03139760
O        5.53659875       4.46192231       0.00000000       16       0.07356377       0.00000000      -0.00000000
O        3.22428769       1.48730744       4.34513862       17      -0.07356377       0.00000000      -0.00000000
O        0.30399221       1.48730744       0.00000000       18      -0.07356377       0.00000000      -0.00000000
O        2.61630327       4.46192231       4.34513862       19       0.07356377      -0.00000000       0.00000000
20
Lattice="5.845741663697546 7.626018684706868e-60 -2.0097829613474884e-42 4.325315456281886e-59 5.94411476031767 8.09135363481822e-17 2.23049166097715e-42 -8.068316546019617e-17 8.690091705624573" Properties=species:S:1:pos:R:3:spacegroup_kinds:I:1:forces:R:3 spacegroup="P 1" unit_cell=conventional occupancy="_JSON {\"0\": {\"In\": 1}, \"1\": {\"In\": 1}, \"2\": {\"In\": 1}, \"3\": {\"In\": 1}, \"4\": {\"In\": 1}, \"5\": {\"In\": 1}, \"6\": {\"In\": 1}, \"7\": {\"In\": 1}, \"8\": {\"O\": 1}, \"9\": {\"O\": 1}, \"10\": {\"O\": 1}, \"11\": {\"O\": 1}, \"12\": {\"O\": 1}, \"13\": {\"O\": 1}, \"14\": {\"O\": 1}, \"15\": {\"O\": 1}, \"16\": {\"O\": 1}, \"17\": {\"O\": 1}, \"18\": {\"O\": 1}, \"19\": {\"O\": 1}}" n_minim_iter=5 energy=-22572.189571017785 stress="0.11490215997180295 -9.265275025292686e-13 3.860127529125914e-12 -9.265275025292686e-13 0.11501189182249359 -7.027231969930458e-13 3.860127529125914e-12 -7.027231969930458e-13 0.11487963145276053" free_energy=-22572.189571017785 pbc="T T T"
In       1.44425166       3.15354663       1.00247996        0       0.01477189       0.01022998       0.02767453
In       1.47861917       0.18148925       3.34256589        1      -0.01477189       0.01022998      -0.02767453
In       1.47861917       2.79056813       5.34752581        2      -0.01477189      -0.01022998       0.02767453
In       1.44425166       5.76262551       7.68761175        3       0.01477189      -0.01022998      -0.02767453
In       4.40149000       2.79056813       7.68761175        4      -0.01477189      -0.01022998      -0.02767453
In       4.36712249       5.76262551       5.34752581        5       0.01477189      -0.01022998       0.02767453
In       4.36712249       3.15354663       3.34256589        6       0.01477189       0.01022998      -0.02767453
In       4.40149000       0.18148925       1.00247996        7      -0.01477189       0.01022998       0.02767453
O        2.28321964       3.51774627       7.34402410        8       0.01444144       0.00047861      -0.03525165
O        0.63965119       0.54568889       5.69111346        9      -0.01444144       0.00047861       0.03525165
O        0.63965119       2.42636849       2.99897825       10      -0.01444144      -0.00047861      -0.03525165
O        2.28321964       5.39842587       1.34606760       11       0.01444144      -0.00047861       0.03525165
O        3.56252202       2.42636849       1.34606760       12      -0.01444144      -0.00047861       0.03525165
O        5.20609047       5.39842587       2.99897825       13       0.01444144      -0.00047861      -0.03525165
O        5.20609047       3.51774627       5.69111346       14       0.01444144       0.00047861       0.03525165
O        3.56252202       0.54568889       7.34402410       15      -0.01444144       0.00047861      -0.03525165
O        5.54425213       4.45808607       0.00000000       16       0.04315525      -0.00000000      -0.00000000
O        3.22436037       1.48602869       4.34504585       17      -0.04315525       0.00000000      -0.00000000
O        0.30148953       1.48602869       0.00000000       18      -0.04315525      -0.00000000      -0.00000000
O        2.62138130       4.45808607       4.34504585       19       0.04315525      -0.00000000       0.00000000
20
Lattice="5.8488184524550855 5.779088491525906e-60 1.4881290939939496e-43 3.8613702583438955e-59 5.935247730385829 8.780339971216182e-17 1.7404711330872494e-42 -7.06890052459585e-17 8.6984960868463" Properties=species:S:1:pos:R:3:spacegroup_kinds:I:1:forces:R:3 spacegroup="P 1" unit_cell=conventional occupancy="_JSON {\"0\": {\"In\": 1}, \"1\": {\"In\": 1}, \"2\": {\"In\": 1}, \"3\": {\"In\": 1}, \"4\": {\"In\": 1}, \"5\": {\"In\": 1}, \"6\": {\"In\": 1}, \"7\": {\"In\": 1}, \"8\": {\"O\": 1}, \"9\": {\"O\": 1}, \"10\": {\"O\": 1}, \"11\": {\"O\": 1}, \"12\": {\"O\": 1}, \"13\": {\"O\": 1}, \"14\": {\"O\": 1}, \"15\": {\"O\": 1}, \"16\": {\"O\": 1}, \"17\": {\"O\": 1}, \"18\": {\"O\": 1}, \"19\": {\"O\": 1}}" n_minim_iter=6 energy=-22572.190777792228 stress="0.1156522658561645 7.647640732292416e-12 -2.350838651408892e-12 7.647640732292416e-12 0.11386895341904733 -8.073189036106794e-13 -2.350838651408892e-12 -8.073189036106794e-13 0.11513069185782197" free_energy=-22572.190777792228 pbc="T T T"
In       1.44666589       3.15018794       1.00589528        0      -0.01428210       0.00170318       0.02413007
In       1.47774334       0.18256407       3.34335276        1       0.01428210       0.00170318      -0.02413007
In       1.47774334       2.78505979       5.35514332        2       0.01428210      -0.00170318       0.02413007
In       1.44666589       5.75268366       7.69260081        3      -0.01428210      -0.00170318      -0.02413007
In       4.40215256       2.78505979       7.69260081        4       0.01428210      -0.00170318      -0.02413007
In       4.37107511       5.75268366       5.35514332        5      -0.01428210      -0.00170318       0.02413007
In       4.37107511       3.15018794       3.34335276        6      -0.01428210       0.00170318      -0.02413007
In       4.40215256       0.18256407       1.00589528        7       0.01428210       0.00170318       0.02413007
O        2.28592663       3.51325679       7.34918786        8      -0.00044207      -0.00258176      -0.03197080
O        0.63848260       0.54563292       5.69855627        9       0.00044207      -0.00258176       0.03197080
O        0.63848260       2.42199094       2.99993982       10       0.00044207       0.00258176      -0.03197080
O        2.28592663       5.38961481       1.34930822       11      -0.00044207       0.00258176       0.03197080
O        3.56289183       2.42199094       1.34930822       12       0.00044207       0.00258176       0.03197080
O        5.21033585       5.38961481       2.99993982       13      -0.00044207       0.00258176      -0.03197080
O        5.21033585       3.51325679       5.69855627       14      -0.00044207      -0.00258176       0.03197080
O        3.56289183       0.54563292       7.34918786       15       0.00044207      -0.00258176      -0.03197080
O        5.55174694       4.45143580       0.00000000       16      -0.00678256       0.00000000      -0.00000000
O        3.22148074       1.48381193       4.34924804       17       0.00678256       0.00000000      -0.00000000
O        0.29707151       1.48381193       0.00000000       18       0.00678256      -0.00000000      -0.00000000
O        2.62733772       4.45143580       4.34924804       19      -0.00678256      -0.00000000       0.00000000
20
Lattice="5.822471366956878 -4.7419816799115255e-60 1.1613670500099965e-42 1.3262601824989489e-59 5.932968556341138 6.799270422168422e-17 -1.9625578830210383e-43 -9.987385356765155e-17 8.741214066564806" Properties=species:S:1:pos:R:3:spacegroup_kinds:I:1:forces:R:3 spacegroup="P 1" unit_cell=conventional occupancy="_JSON {\"0\": {\"In\": 1}, \"1\": {\"In\": 1}, \"2\": {\"In\": 1}, \"3\": {\"In\": 1}, \"4\": {\"In\": 1}, \"5\": {\"In\": 1}, \"6\": {\"In\": 1}, \"7\": {\"In\": 1}, \"8\": {\"O\": 1}, \"9\": {\"O\": 1}, \"10\": {\"O\": 1}, \"11\": {\"O\": 1}, \"12\": {\"O\": 1}, \"13\": {\"O\": 1}, \"14\": {\"O\": 1}, \"15\": {\"O\": 1}, \"16\": {\"O\": 1}, \"17\": {\"O\": 1}, \"18\": {\"O\": 1}, \"19\": {\"O\": 1}}" n_minim_iter=7 energy=-22572.195133528578 stress="0.11213262157180118 2.7097849955849023e-12 -3.178461517985136e-12 2.7097849955849023e-12 0.11223601575313409 -5.5948897261876654e-12 -3.178461517985136e-12 -5.5948897261876654e-12 0.11097763996337466" free_energy=-22572.195133528578 pbc="T T T"
In       1.43945140       3.14700928       1.01757118        0      -0.06278838       0.02862890       0.01889446
In       1.47178428       0.18052500       3.35303585        1       0.06278838       0.02862890      -0.01889446
In       1.47178428       2.78595928       5.38817822        2       0.06278838      -0.02862890       0.01889446
In       1.43945140       5.75244356       7.72364288        3      -0.06278838      -0.02862890      -0.01889446
In       4.38301997       2.78595928       7.72364288        4       0.06278838      -0.02862890      -0.01889446
In       4.35068708       5.75244356       5.38817822        5      -0.06278838      -0.02862890       0.01889446
In       4.35068708       3.14700928       3.35303585        6      -0.06278838       0.02862890      -0.01889446
In       4.38301997       0.18052500       1.01757118        7       0.06278838       0.02862891       0.01889446
O        2.27629504       3.50529468       7.36574958        8       0.00229506       0.03134740      -0.00577096
O        0.63494065       0.53881040       5.74607152        9      -0.00229506       0.03134740       0.00577096
O        0.63494065       2.42767388       2.99514254       10      -0.00229506      -0.03134740      -0.00577096
O        2.27629504       5.39415816       1.37546449       11       0.00229506      -0.03134740       0.00577096
O        3.54617633       2.42767388       1.37546449       12      -0.00229506      -0.03134740       0.00577096
O        5.18753072       5.39415816       2.99514254       13       0.00229506      -0.03134740      -0.00577096
O        5.18753072       3.50529468       5.74607152       14       0.00229506       0.03134740       0.00577096
O        3.54617633       0.53881040       7.36574958       15      -0.00229506       0.03134740      -0.00577096
O        5.52777521       4.44972642       0.00000000       16      -0.01927356      -0.00000000       0.00000000
O        3.20593184       1.48324214       4.37060703       17       0.01927356      -0.00000000      -0.00000000
O        0.29469616       1.48324214       0.00000000       18       0.01927356      -0.00000000      -0.00000000
O        2.61653952       4.44972642       4.37060703       19      -0.01927356      -0.00000000      -0.00000000
20
Lattice="5.74488191561785 -6.73842537449007e-60 2.500805088987915e-42 4.232869150309206e-59 5.90241231642725 5.822449083069987e-17 4.1729002958537003e-42 -1.1536728677213886e-16 8.905135123153132" Properties=species:S:1:pos:R:3:spacegroup_kinds:I:1:forces:R:3 spacegroup="P 1" unit_cell=conventional occupancy="_JSON {\"0\": {\"In\": 1}, \"1\": {\"In\": 1}, \"2\": {\"In\": 1}, \"3\": {\"In\": 1}, \"4\": {\"In\": 1}, \"5\": {\"In\": 1}, \"6\": {\"In\": 1}, \"7\": {\"In\": 1}, \"8\": {\"O\": 1}, \"9\": {\"O\": 1}, \"10\": {\"O\": 1}, \"11\": {\"O\": 1}, \"12\": {\"O\": 1}, \"13\": {\"O\": 1}, \"14\": {\"O\": 1}, \"15\": {\"O\": 1}, \"16\": {\"O\": 1}, \"17\": {\"O\": 1}, \"18\": {\"O\": 1}, \"19\": {\"O\": 1}}" n_minim_iter=8 energy=-22572.20564887708 stress="0.10144030197664544 -1.5002127958020228e-12 1.1387155318809866e-12 -1.5002127958020228e-12 0.10240829438060256 -2.5242728588799953e-12 1.1387155318809866e-12 -2.5242728588799953e-12 0.09388618265626511" free_energy=-22572.20564887708 pbc="T T T"
In       1.41454159       3.12849157       1.05716631        0      -0.16648368       0.11487176      -0.00818738
In       1.45789937       0.17728541       3.39540125        1       0.16648368       0.11487176       0.00818738
In       1.45789937       2.77392074       5.50973387        2       0.16648368      -0.11487176      -0.00818738
In       1.41454159       5.72512690       7.84796881        3      -0.16648368      -0.11487176       0.00818738
In       4.33034032       2.77392074       7.84796881        4       0.16648368      -0.11487176       0.00818738
In       4.28698255       5.72512690       5.50973387        5      -0.16648368      -0.11487176      -0.00818738
In       4.28698255       3.12849157       3.39540125        6      -0.16648368       0.11487176       0.00818738
In       4.33034032       0.17728541       1.05716631        7       0.16648368       0.11487176      -0.00818738
O        2.24832608       3.47301854       7.45112455        8       0.01008786       0.13405531       0.07076547
O        0.62411488       0.52181239       5.90657814        9      -0.01008786       0.13405531      -0.07076547
O        0.62411488       2.42939377       2.99855699       10      -0.01008786      -0.13405531       0.07076547
O        2.24832608       5.38059993       1.45401058       11       0.01008786      -0.13405531      -0.07076547
O        3.49655583       2.42939377       1.45401058       12      -0.01008786      -0.13405531      -0.07076547
O        5.12076704       5.38059993       2.99855699       13       0.01008786      -0.13405531       0.07076547
O        5.12076704       3.47301854       5.90657814       14       0.01008786       0.13405531      -0.07076547
O        3.49655583       0.52181239       7.45112455       15      -0.01008786       0.13405531       0.07076547
O        5.45697509       4.42680924       0.00000000       16      -0.07948065       0.00000000       0.00000000
O        3.16034778       1.47560308       4.45256756       17       0.07948065       0.00000000       0.00000000
O        0.28790683       1.47560308       0.00000000       18       0.07948065      -0.00000000       0.00000000
O        2.58453413       4.42680924       4.45256756       19      -0.07948065      -0.00000000       0.00000000
20
Lattice="5.73186851132595 -6.936665934614192e-60 2.1141329113002444e-42 4.261259062004157e-59 5.896871191794754 5.841151751695236e-17 4.2531928958571776e-42 -1.152589811370448e-16 8.933739888758668" Properties=species:S:1:pos:R:3:spacegroup_kinds:I:1:forces:R:3 spacegroup="P 1" unit_cell=conventional occupancy="_JSON {\"0\": {\"In\": 1}, \"1\": {\"In\": 1}, \"2\": {\"In\": 1}, \"3\": {\"In\": 1}, \"4\": {\"In\": 1}, \"5\": {\"In\": 1}, \"6\": {\"In\": 1}, \"7\": {\"In\": 1}, \"8\": {\"O\": 1}, \"9\": {\"O\": 1}, \"10\": {\"O\": 1}, \"11\": {\"O\": 1}, \"12\": {\"O\": 1}, \"13\": {\"O\": 1}, \"14\": {\"O\": 1}, \"15\": {\"O\": 1}, \"16\": {\"O\": 1}, \"17\": {\"O\": 1}, \"18\": {\"O\": 1}, \"19\": {\"O\": 1}}" n_minim_iter=9 energy=-22572.206688255963 stress="0.09962115310251424 3.2172755065414384e-13 -2.1483853897217975e-12 3.2172755065414384e-13 0.1004897262127815 -1.0284000531407052e-12 -2.1483853897217975e-12 -1.0284000531407052e-12 0.09158363128150891" free_energy=-22572.206688255963 pbc="T T T"
In       1.41029435       3.12536006       1.06377614        0      -0.18098571       0.12835432      -0.02627744
In       1.45563991       0.17692447       3.40309380        1       0.18098571       0.12835432       0.02627744
In       1.45563991       2.77151113       5.53064608        2       0.18098571      -0.12835432      -0.02627744
In       1.41029435       5.71994673       7.86996375        3      -0.18098571      -0.12835432       0.02627744
In       4.32157416       2.77151113       7.86996375        4       0.18098571      -0.12835432       0.02627744
In       4.27622860       5.71994673       5.53064608        5      -0.18098571      -0.12835432      -0.02627744
In       4.27622860       3.12536006       3.40309380        6      -0.18098571       0.12835432       0.02627744
In       4.32157416       0.17692447       1.06377614        7       0.18098571       0.12835432      -0.02627744
O        2.24361860       3.46777391       7.46704642        8       0.01351442       0.15120640       0.09457941
O        0.62231565       0.51933831       5.93356342        9      -0.01351442       0.15120640      -0.09457941
O        0.62231565       2.42909728       3.00017647       10      -0.01351442      -0.15120640       0.09457941
O        2.24361860       5.37753288       1.46669347       11       0.01351442      -0.15120640      -0.09457941
O        3.48824991       2.42909728       1.46669347       12      -0.01351442      -0.15120640      -0.09457941
O        5.10955286       5.37753288       3.00017647       13       0.01351442      -0.15120640       0.09457941
O        5.10955286       3.46777391       5.93356342       14       0.01351442       0.15120640      -0.09457941
O        3.48824991       0.51933831       7.46704642       15      -0.01351442       0.15120640       0.09457941
O        5.44502502       4.42265339       0.00000000       16      -0.08471177      -0.00000000      -0.00000000
O        3.15277775       1.47421780       4.46686994       17       0.08471177      -0.00000000      -0.00000000
O        0.28684349       1.47421780       0.00000000       18       0.08471177       0.00000000       0.00000000
O        2.57909076       4.42265339       4.46686994       19      -0.08471177      -0.00000000       0.00000000
20