20
Lattice="5.740926012448593 -3.7791874999995704e-60 -2.844938605293834e-42 -1.3436675815594594e-60 5.778298254528033 -1.0387278182682664e-17 4.1269651920118433e-42 1.4970684745491078e-17 8.327983521051644" Properties=species:S:1:pos:R:3:spacegroup_kinds:I:1:forces:R:3 spacegroup="P 1" unit_cell=conventional occupancy="_JSON {\"0\": {\"In\": 1}, \"1\": {\"In\": 1}, \"2\": {\"In\": 1}, \"3\": {\"In\": 1}, \"4\": {\"In\": 1}, \"5\": {\"In\": 1}, \"6\": {\"In\": 1}, \"7\": {\"In\": 1}, \"8\": {\"O\": 1}, \"9\": {\"O\": 1}, \"10\": {\"O\": 1}, \"11\": {\"O\": 1}, \"12\": {\"O\": 1}, \"13\": {\"O\": 1}, \"14\": {\"O\": 1}, \"15\": {\"O\": 1}, \"16\": {\"O\": 1}, \"17\": {\"O\": 1}, \"18\": {\"O\": 1}, \"19\": {\"O\": 1}}" n_minim_iter=1 energy=-22574.347228301365 stress="0.060892339073705413 2.52874543666879e-12 -1.4379637003423673e-12 2.52874543666879e-12 0.06559443505554645 -1.1210728304914536e-12 -1.4379637003423673e-12 -1.1210728304914536e-12 0.06170824182430101" free_energy=-22574.347228301365 pbc="T T T"
In       1.42204951       3.03674691       0.95798230        0      -0.00174973      -0.04645082      -0.02911229
In       1.44841349       0.14759779       3.20600946        1       0.00174973      -0.04645082       0.02911229
In       1.44841349       2.74155134       5.12197406        2       0.00174973       0.04645082      -0.02911229
In       1.42204951       5.63070047       7.37000122        3      -0.00174973       0.04645082       0.02911229
In       4.31887650       2.74155134       7.37000122        4       0.00174973       0.04645082       0.02911229
In       4.29251252       5.63070047       5.12197406        5      -0.00174973       0.04645082      -0.02911229
In       4.29251252       3.03674691       3.20600946        6      -0.00174973      -0.04645082       0.02911229
In       4.31887650       0.14759779       0.95798230        7       0.00174973      -0.04645082      -0.02911229
O        2.24402373       3.48492203       7.07040499        8       0.03154940      -0.05195957      -0.02028319
O        0.62643927       0.59577291       5.42157030        9      -0.03154940      -0.05195957       0.02028319
O        0.62643927       2.29337622       2.90641322       10      -0.03154940       0.05195957      -0.02028319
O        2.24402373       5.18252535       1.25757854       11       0.03154940       0.05195957       0.02028319
O        3.49690228       2.29337622       1.25757854       12      -0.03154940       0.05195957       0.02028319
O        5.11448674       5.18252535       2.90641322       13       0.03154940       0.05195957      -0.02028319
O        5.11448674       3.48492203       5.42157030       14       0.03154940      -0.05195957       0.02028319
O        3.49690228       0.59577291       7.07040499       15      -0.03154940      -0.05195957      -0.02028319
O        5.50097221       4.33372369      -0.00000000       16      -0.08047889      -0.00000000       0.00000000
O        3.11041681       1.44457456       4.16399176       17       0.08047889       0.00000000       0.00000000
O        0.23995380       1.44457456      -0.00000000       18       0.08047889       0.00000000      -0.00000000
O        2.63050920       4.33372369       4.16399176       19      -0.08047889      -0.00000000      -0.00000000
20
Lattice="5.754089336654533 -3.756888465728461e-60 -2.847348699160119e-42 -1.340053200562888e-60 5.757737577397655 -1.0400523506743773e-17 4.138193897393902e-42 1.4917415183776865e-17 8.3386029382437" Properties=species:S:1:pos:R:3:spacegroup_kinds:I:1:forces:R:3 spacegroup="P 1" unit_cell=conventional occupancy="_JSON {\"0\": {\"In\": 1}, \"1\": {\"In\": 1}, \"2\": {\"In\": 1}, \"3\": {\"In\": 1}, \"4\": {\"In\": 1}, \"5\": {\"In\": 1}, \"6\": {\"In\": 1}, \"7\": {\"In\": 1}, \"8\": {\"O\": 1}, \"9\": {\"O\": 1}, \"10\": {\"O\": 1}, \"11\": {\"O\": 1}, \"12\": {\"O\": 1}, \"13\": {\"O\": 1}, \"14\": {\"O\": 1}, \"15\": {\"O\": 1}, \"16\": {\"O\": 1}, \"17\": {\"O\": 1}, \"18\": {\"O\": 1}, \"19\": {\"O\": 1}}" n_minim_iter=2 energy=-22574.349584319567 stress="0.06175849898434722 -2.7192708929489243e-12 -4.36356023950677e-13 -2.7192708929489243e-12 0.06143914337437019 -2.521644081513897e-12 -4.36356023950677e-13 -2.521644081513897e-12 0.06185385145510708" free_energy=-22574.349584319567 pbc="T T T"
In       1.42530222       3.02573277       0.95907249        0       0.00478471      -0.05822870      -0.01995776
In       1.45174245       0.14686398       3.21022898        1      -0.00478471      -0.05822870       0.01995776
In       1.45174245       2.73200481       5.12837396        2      -0.00478471       0.05822870      -0.01995776
In       1.42530222       5.61087360       7.37953045        3       0.00478471       0.05822870       0.01995776
In       4.32878712       2.73200481       7.37953045        4      -0.00478471       0.05822870       0.01995776
In       4.30234688       5.61087360       5.12837396        5       0.00478471       0.05822870      -0.01995776
In       4.30234688       3.02573277       3.21022898        6       0.00478471      -0.05822870       0.01995776
In       4.32878712       0.14686398       0.95907249        7      -0.00478471      -0.05822870      -0.01995776
O        2.24931156       3.47228842       7.07932927        8       0.02200532      -0.04594668      -0.02411527
O        0.62773311       0.59341963       5.42857514        9      -0.02200532      -0.04594668       0.02411527
O        0.62773311       2.28544915       2.91002780       10      -0.02200531       0.04594668      -0.02411527
O        2.24931156       5.16431794       1.25927367       11       0.02200532       0.04594668       0.02411527
O        3.50477777       2.28544915       1.25927367       12      -0.02200532       0.04594668       0.02411527
O        5.12635623       5.16431794       2.91002780       13       0.02200532       0.04594668      -0.02411527
O        5.12635623       3.47228842       5.42857514       14       0.02200532      -0.04594668       0.02411527
O        3.50477777       0.59341963       7.07932927       15      -0.02200532      -0.04594668      -0.02411527
O        5.51322178       4.31830318      -0.00000000       16      -0.07893812       0.00000000       0.00000000
O        3.11791222       1.43943439       4.16930147       17       0.07893812      -0.00000000      -0.00000000
O        0.24086755       1.43943439      -0.00000000       18       0.07893812      -0.00000000       0.00000000
O        2.63617711       4.31830318       4.16930147       19      -0.07893812      -0.00000000       0.00000000
20
Lattice="5.76208063250323 -3.755189657987341e-60 -2.856264102269278e-42 -1.3544761298384906e-60 5.758684440261612 -1.0384391543710783e-17 4.155874136360291e-42 1.4919868360267442e-17 8.325669162914089" Properties=species:S:1:pos:R:3:spacegroup_kinds:I:1:forces:R:3 spacegroup="P 1" unit_cell=conventional occupancy="_JSON {\"0\": {\"In\": 1}, \"1\": {\"In\": 1}, \"2\": {\"In\": 1}, \"3\": {\"In\": 1}, \"4\": {\"In\": 1}, \"5\": {\"In\": 1}, \"6\": {\"In\": 1}, \"7\": {\"In\": 1}, \"8\": {\"O\": 1}, \"9\": {\"O\": 1}, \"10\": {\"O\": 1}, \"11\": {\"O\": 1}, \"12\": {\"O\": 1}, \"13\": {\"O\": 1}, \"14\": {\"O\": 1}, \"15\": {\"O\": 1}, \"16\": {\"O\": 1}, \"17\": {\"O\": 1}, \"18\": {\"O\": 1}, \"19\": {\"O\": 1}}" n_minim_iter=3 energy=-22574.35245864884 stress="0.06174156054068417 -1.7247578009007215e-12 9.794849417655683e-13 -1.7247578009007215e-12 0.060855937301869605 1.0596385560280235e-12 9.794849417655683e-13 1.0596385560280235e-12 0.0594028908076643" free_energy=-22574.35245864884 pbc="T T T"
In       1.42758745       3.02219377       0.95611964        0       0.01534607      -0.00950455      -0.01168578
In       1.45345286       0.14285155       3.20671494        1      -0.01534607      -0.00950455       0.01168578
In       1.45345286       2.73649067       5.11895423        2      -0.01534607       0.00950455      -0.01168578
In       1.42758745       5.61583289       7.36954952        3       0.01534607       0.00950455       0.01168578
In       4.33449318       2.73649067       7.36954952        4      -0.01534607       0.00950455       0.01168578
In       4.30862777       5.61583289       5.11895423        5       0.01534607       0.00950455      -0.01168578
In       4.30862777       3.02219377       3.20671494        6       0.01534607      -0.00950455       0.01168578
In       4.33449318       0.14285155       0.95611964        7      -0.01534607      -0.00950455      -0.01168578
O        2.25405589       3.46959207       7.06665848        8      -0.00082290      -0.01250501       0.00729284
O        0.62698442       0.59024985       5.42184526        9       0.00082290      -0.01250501      -0.00729284
O        0.62698442       2.28909237       2.90382390       10       0.00082290       0.01250501       0.00729284
O        2.25405589       5.16843459       1.25901068       11      -0.00082290       0.01250501      -0.00729284
O        3.50802474       2.28909237       1.25901068       12       0.00082290       0.01250501      -0.00729284
O        5.13509621       5.16843459       2.90382390       13      -0.00082290       0.01250501       0.00729284
O        5.13509621       3.46959207       5.42184526       14      -0.00082290      -0.01250501      -0.00729284
O        3.50802474       0.59024985       7.06665848       15       0.00082290      -0.01250501       0.00729284
O        5.51524240       4.31901333      -0.00000000       16      -0.01181933      -0.00000000       0.00000000
O        3.12787855       1.43967111       4.16283458       17       0.01181933      -0.00000000       0.00000000
O        0.24683823       1.43967111      -0.00000000       18       0.01181933       0.00000000       0.00000000
O        2.63420208       4.31901333       4.16283458       19      -0.01181933      -0.00000000       0.00000000
20
Lattice="5.755008052222057 -6.470857677349064e-60 -2.7949206170353226e-42 -1.3975742823289974e-60 5.7574038051110605 -4.951956564453131e-18 4.120917413741236e-42 2.27908495445639e-17 8.337755118054979" Properties=species:S:1:pos:R:3:spacegroup_kinds:I:1:forces:R:3 spacegroup="P 1" unit_cell=conventional occupancy="_JSON {\"0\": {\"In\": 1}, \"1\": {\"In\": 1}, \"2\": {\"In\": 1}, \"3\": {\"In\": 1}, \"4\": {\"In\": 1}, \"5\": {\"In\": 1}, \"6\": {\"In\": 1}, \"7\": {\"In\": 1}, \"8\": {\"O\": 1}, \"9\": {\"O\": 1}, \"10\": {\"O\": 1}, \"11\": {\"O\": 1}, \"12\": {\"O\": 1}, \"13\": {\"O\": 1}, \"14\": {\"O\": 1}, \"15\": {\"O\": 1}, \"16\": {\"O\": 1}, \"17\": {\"O\": 1}, \"18\": {\"O\": 1}, \"19\": {\"O\": 1}}" n_minim_iter=4 energy=-22574.352999612966 stress="0.060476997017886114 -2.555410114647487e-12 -1.6306558193305163e-12 -2.555410114647487e-12 0.060429109174430284 2.128631100231692e-12 -1.6306558193305163e-12 2.128631100231692e-12 0.0604897123431655" free_energy=-22574.352999612966 pbc="T T T"
In       1.42597064       3.02070696       0.95717009        0       0.01107291      -0.00246814      -0.00787430
In       1.45153338       0.14200505       3.21170747        1      -0.01107291      -0.00246814       0.00787430
In       1.45153338       2.73669685       5.12604765        2      -0.01107291       0.00246814      -0.00787430
In       1.42597064       5.61539875       7.38058503        3       0.01107291       0.00246814       0.00787430
In       4.32903741       2.73669685       7.38058503        4      -0.01107291       0.00246814       0.00787430
In       4.30347467       5.61539875       5.12604765        5       0.01107291       0.00246814      -0.00787430
In       4.30347467       3.02070696       3.21170747        6       0.01107291      -0.00246814       0.00787430
In       4.32903741       0.14200505       0.95717009        7      -0.01107291      -0.00246814      -0.00787430
O        2.25159269       3.46813723       7.07663147        8      -0.01111388      -0.00249192      -0.00321753
O        0.62591133       0.58943533       5.43000121        9       0.01111388      -0.00249192       0.00321753
O        0.62591133       2.28926658       2.90775391       10       0.01111388       0.00249192      -0.00321753
O        2.25159269       5.16796848       1.26112365       11      -0.01111388       0.00249192       0.00321753
O        3.50341536       2.28926658       1.26112365       12       0.01111388       0.00249192       0.00321753
O        5.12909672       5.16796848       2.90775391       13      -0.01111388       0.00249192      -0.00321753
O        5.12909672       3.46813723       5.43000121       14      -0.01111388      -0.00249192       0.00321753
O        3.50341536       0.58943533       7.07663147       15       0.01111388      -0.00249192      -0.00321753
O        5.50734290       4.31805285      -0.00000000       16       0.00804178      -0.00000000      -0.00000000
O        3.12516918       1.43935095       4.16887756       17      -0.00804178       0.00000000      -0.00000000
O        0.24766515       1.43935095      -0.00000000       18      -0.00804178       0.00000000       0.00000000
O        2.62983887       4.31805285       4.16887756       19       0.00804178      -0.00000000       0.00000000
20
Lattice="5.7526411860842925 -3.402102732045045e-60 -2.8028862573049745e-42 -1.5207755875125713e-60 5.759944894021509 -1.1557387790400766e-17 4.121214909577057e-42 1.3277647582484766e-17 8.337505759988673" Properties=species:S:1:pos:R:3:spacegroup_kinds:I:1:forces:R:3 spacegroup="P 1" unit_cell=conventional occupancy="_JSON {\"0\": {\"In\": 1}, \"1\": {\"In\": 1}, \"2\": {\"In\": 1}, \"3\": {\"In\": 1}, \"4\": {\"In\": 1}, \"5\": {\"In\": 1}, \"6\": {\"In\": 1}, \"7\": {\"In\": 1}, \"8\": {\"O\": 1}, \"9\": {\"O\": 1}, \"10\": {\"O\": 1}, \"11\": {\"O\": 1}, \"12\": {\"O\": 1}, \"13\": {\"O\": 1}, \"14\": {\"O\": 1}, \"15\": {\"O\": 1}, \"16\": {\"O\": 1}, \"17\": {\"O\": 1}, \"18\": {\"O\": 1}, \"19\": {\"O\": 1}}" n_minim_iter=5 energy=-22574.353307787318 stress="0.060195532898508694 3.774293380713885e-12 4.779575599458914e-13 3.774293380713885e-12 0.06104602770195501 1.9690418383145666e-12 4.779575599458914e-13 1.9690418383145666e-12 0.060364016327578415" free_energy=-22574.353307787318 pbc="T T T"
In       1.42776377       3.02122376       0.95533383        0      -0.00078862      -0.00196620      -0.01007821
In       1.44855682       0.14125132       3.21341905        1       0.00078861      -0.00196620       0.01007821
In       1.44855682       2.73872113       5.12408671        2       0.00078861       0.00196620      -0.01007821
In       1.42776377       5.61869358       7.38217193        3      -0.00078862       0.00196620       0.01007821
In       4.32487742       2.73872113       7.38217193        4       0.00078861       0.00196620       0.01007821
In       4.30408436       5.61869358       5.12408671        5      -0.00078862       0.00196620      -0.01007821
In       4.30408436       3.02122376       3.21341905        6      -0.00078861      -0.00196620       0.01007821
In       4.32487742       0.14125132       0.95533383        7       0.00078861      -0.00196620      -0.01007821
O        2.24846436       3.46886433       7.07564531        8       0.00095827       0.00378882      -0.00000722
O        0.62785624       0.58889189       5.43061333        9      -0.00095827       0.00378882       0.00000722
O        0.62785624       2.29108056       2.90689243       10      -0.00095827      -0.00378882      -0.00000722
O        2.24846436       5.17105301       1.26186045       11       0.00095827      -0.00378882       0.00000722
O        3.50417683       2.29108056       1.26186045       12      -0.00095827      -0.00378882       0.00000722
O        5.12478495       5.17105301       2.90689243       13       0.00095827      -0.00378882      -0.00000722
O        5.12478495       3.46886433       5.43061333       14       0.00095827       0.00378882       0.00000722
O        3.50417683       0.58889189       7.07564531       15      -0.00095827       0.00378882      -0.00000722
O        5.50631851       4.31995867      -0.00000000       16      -0.00098673       0.00000000      -0.00000000
O        3.12264326       1.43998622       4.16875288       17       0.00098674       0.00000000       0.00000000
O        0.24632267       1.43998622      -0.00000000       18       0.00098674       0.00000000       0.00000000
O        2.62999792       4.31995867       4.16875288       19      -0.00098673      -0.00000000      -0.00000000
20
Lattice="5.754497077926026 -3.399056529685794e-60 -2.7386538815146368e-42 -1.5633447621411183e-60 5.757139857124632 -1.1559289660357304e-17 4.153904156951201e-42 1.3271181497815926e-17 8.338877769996898" Properties=species:S:1:pos:R:3:spacegroup_kinds:I:1:forces:R:3 spacegroup="P 1" unit_cell=conventional occupancy="_JSON {\"0\": {\"In\": 1}, \"1\": {\"In\": 1}, \"2\": {\"In\": 1}, \"3\": {\"In\": 1}, \"4\": {\"In\": 1}, \"5\": {\"In\": 1}, \"6\": {\"In\": 1}, \"7\": {\"In\": 1}, \"8\": {\"O\": 1}, \"9\": {\"O\": 1}, \"10\": {\"O\": 1}, \"11\": {\"O\": 1}, \"12\": {\"O\": 1}, \"13\": {\"O\": 1}, \"14\": {\"O\": 1}, \"15\": {\"O\": 1}, \"16\": {\"O\": 1}, \"17\": {\"O\": 1}, \"18\": {\"O\": 1}, \"19\": {\"O\": 1}}" n_minim_iter=6 energy=-22574.353407249255 stress="0.06023896149079742 -9.704350767249628e-13 -1.502567679275218e-14 -9.704350767249628e-13 0.060474526076884444 -1.8732948718760167e-12 -1.502567679275218e-14 -1.8732948718760167e-12 0.060239676237196435" free_energy=-22574.353407249255 pbc="T T T"
In       1.42878491       3.01938409       0.95489667        0      -0.00154439      -0.00232664      -0.00839074
In       1.44846363       0.14081416       3.21454221        1       0.00154439      -0.00232664       0.00839074
In       1.44846363       2.73775577       5.12433556        2       0.00154439       0.00232664      -0.00839074
In       1.42878491       5.61632570       7.38398110        3      -0.00154439       0.00232664       0.00839074
In       4.32571217       2.73775577       7.38398110        4       0.00154439       0.00232664       0.00839074
In       4.30603345       5.61632570       5.12433556        5      -0.00154439       0.00232664      -0.00839074
In       4.30603345       3.01938409       3.21454221        6      -0.00154439      -0.00232664       0.00839074
In       4.32571217       0.14081416       0.95489667        7       0.00154439      -0.00232664      -0.00839074
O        2.24873428       3.46694414       7.07657211        8       0.00129670       0.00682555       0.00038540
O        0.62851426       0.58837421       5.43174454        9      -0.00129670       0.00682555      -0.00038540
O        0.62851426       2.29019572       2.90713323       10      -0.00129670      -0.00682555       0.00038540
O        2.24873428       5.16876564       1.26230566       11       0.00129670      -0.00682555      -0.00038540
O        3.50576280       2.29019572       1.26230566       12      -0.00129670      -0.00682555      -0.00038540
O        5.12598282       5.16876564       2.90713323       13       0.00129670      -0.00682555       0.00038540
O        5.12598282       3.46694414       5.43174454       14       0.00129670       0.00682555      -0.00038540
O        3.50576280       0.58837421       7.07657211       15      -0.00129670       0.00682555       0.00038540
O        5.50818128       4.31785489      -0.00000000       16      -0.00097599       0.00000000       0.00000000
O        3.12356434       1.43928496       4.16943888       17       0.00097599      -0.00000000       0.00000000
O        0.24631580       1.43928496      -0.00000000       18       0.00097599       0.00000000      -0.00000000
O        2.63093274       4.31785489       4.16943888       19      -0.00097599      -0.00000000       0.00000000
