20
Lattice="5.340460360142869 1.7153371986474274e-57 -5.631636344200122e-42 -1.1530806508169978e-57 5.136853356410689 -1.1991672606386872e-16 7.261551788508839e-42 -2.723430064806327e-16 7.260042051510665" Properties=species:S:1:pos:R:3:spacegroup_kinds:I:1:forces:R:3 spacegroup="P 1" unit_cell=conventional occupancy="_JSON {\"0\": {\"In\": 1}, \"1\": {\"In\": 1}, \"2\": {\"In\": 1}, \"3\": {\"In\": 1}, \"4\": {\"In\": 1}, \"5\": {\"In\": 1}, \"6\": {\"In\": 1}, \"7\": {\"In\": 1}, \"8\": {\"O\": 1}, \"9\": {\"O\": 1}, \"10\": {\"O\": 1}, \"11\": {\"O\": 1}, \"12\": {\"O\": 1}, \"13\": {\"O\": 1}, \"14\": {\"O\": 1}, \"15\": {\"O\": 1}, \"16\": {\"O\": 1}, \"17\": {\"O\": 1}, \"18\": {\"O\": 1}, \"19\": {\"O\": 1}}" n_minim_iter=13 energy=-22578.535933573592 stress="0.154219039460597 -1.0215410531052598e-12 -7.22435861850767e-12 -1.0215410531052598e-12 0.15449147339671557 2.7122954040829524e-12 -7.22435861850767e-12 2.7122954040829524e-12 0.15442918273323678" free_energy=-22578.535933573592 pbc="T T T"
In       1.28978669       2.78016415       0.90029448        0      -0.00706453       0.00151027      -0.00101258
In       1.38044349       0.21173747       2.72972654        1       0.00706453       0.00151027       0.00101257
In       1.38044349       2.35668921       4.53031551        2       0.00706453      -0.00151027      -0.00101257
In       1.28978669       4.92511588       6.35974757        3      -0.00706453      -0.00151027       0.00101258
In       4.05067367       2.35668921       6.35974757        4       0.00706453      -0.00151027       0.00101257
In       3.96001687       4.92511588       4.53031551        5      -0.00706453      -0.00151027      -0.00101257
In       3.96001687       2.78016415       2.72972654        6      -0.00706453       0.00151027       0.00101257
In       4.05067367       0.21173747       0.90029448        7       0.00706453       0.00151027      -0.00101257
O        2.14753749       3.09445259       6.29707000        8      -0.00244111       0.00010267       0.00113785
O        0.52269269       0.52602591       4.59299307        9       0.00244111       0.00010267      -0.00113785
O        0.52269269       2.04240077       2.66704898       10       0.00244111      -0.00010267       0.00113785
O        2.14753749       4.61082744       0.96297205       11      -0.00244111      -0.00010267      -0.00113785
O        3.19292287       2.04240077       0.96297205       12       0.00244111      -0.00010267      -0.00113785
O        4.81776767       4.61082744       2.66704898       13      -0.00244111      -0.00010267       0.00113785
O        4.81776767       3.09445259       4.59299307       14      -0.00244111       0.00010267      -0.00113785
O        3.19292287       0.52602591       6.29707000       15       0.00244111       0.00010267       0.00113785
O        5.11171920       3.85264002      -0.00000000       16       0.00302248       0.00000000      -0.00000000
O        2.89897134       1.28421334       3.63002103       17      -0.00302248      -0.00000000      -0.00000000
O        0.22874116       1.28421334      -0.00000000       18      -0.00302248      -0.00000000      -0.00000000
O        2.44148902       3.85264002       3.63002103       19       0.00302248       0.00000000       0.00000000
