40
Lattice="5.908285653577057 1.1310095091056303e-42 0.0 -1.2152740547099266e-42 6.348475591761347 0.0 0.0 0.0 17.355178629306554" Properties=species:S:1:pos:R:3:spacegroup_kinds:I:1:forces:R:3 spacegroup="P 1" unit_cell=conventional occupancy="_JSON {\"0\": {\"In\": 1}, \"1\": {\"In\": 1}, \"2\": {\"In\": 1}, \"3\": {\"In\": 1}, \"4\": {\"In\": 1}, \"5\": {\"In\": 1}, \"6\": {\"In\": 1}, \"7\": {\"In\": 1}, \"8\": {\"In\": 1}, \"9\": {\"In\": 1}, \"10\": {\"In\": 1}, \"11\": {\"In\": 1}, \"12\": {\"In\": 1}, \"13\": {\"In\": 1}, \"14\": {\"In\": 1}, \"15\": {\"In\": 1}, \"16\": {\"O\": 1}, \"17\": {\"O\": 1}, \"18\": {\"O\": 1}, \"19\": {\"O\": 1}, \"20\": {\"O\": 1}, \"21\": {\"O\": 1}, \"22\": {\"O\": 1}, \"23\": {\"O\": 1}, \"24\": {\"O\": 1}, \"25\": {\"O\": 1}, \"26\": {\"O\": 1}, \"27\": {\"O\": 1}, \"28\": {\"O\": 1}, \"29\": {\"O\": 1}, \"30\": {\"O\": 1}, \"31\": {\"O\": 1}, \"32\": {\"O\": 1}, \"33\": {\"O\": 1}, \"34\": {\"O\": 1}, \"35\": {\"O\": 1}, \"36\": {\"O\": 1}, \"37\": {\"O\": 1}, \"38\": {\"O\": 1}, \"39\": {\"O\": 1}}" n_minim_iter=1 energy=-45145.69044494277 stress="0.0741947697335171 -5.818497538271346e-14 2.71844321368425e-13 -5.818497538271346e-14 0.07116213928071312 -1.035139367769143e-13 2.71844321368425e-13 -1.035139367769143e-13 0.07188322484041944" free_energy=-45145.69044494277 pbc="T T T"
In       2.69717101       5.30855942      10.01431807        0       0.05629100       0.07585767       0.00974730
In      -0.25697182       4.21415396       7.34086056        1       0.05629100      -0.07585767      -0.00974730
In       3.21111464       2.13432163      16.01844987        2      -0.05629100       0.07585767      -0.00974730
In       6.16525747       1.03991617       1.33672876        3      -0.05629100      -0.07585767       0.00974730
In       3.21111464       1.03991617       7.34086056        4      -0.05629100      -0.07585767      -0.00974730
In       6.16525747       2.13432163      10.01431807        5      -0.05629100       0.07585767       0.00974730
In       2.69717101       4.21415396       1.33672876        6       0.05629100      -0.07585767       0.00974730
In      -0.25697182       5.30855942      16.01844987        7       0.05629100       0.07585767      -0.00974730
In       2.70031627       5.08975932      14.11435129        8       0.02837670       0.01265883      -0.01668720
In       5.65445910       4.43295407       3.24082733        9       0.02837670      -0.01265883       0.01668720
In       3.20796938       1.91552153      11.91841665       10      -0.02837670       0.01265883       0.01668720
In       0.25382656       1.25871627       5.43676198       11      -0.02837670      -0.01265883      -0.01668720
In       3.20796938       1.25871627       3.24082733       12      -0.02837670      -0.01265883       0.01668720
In       0.25382656       1.91552153      14.11435129       13      -0.02837670       0.01265883      -0.01668720
In       2.70031627       4.43295407       5.43676198       14       0.02837670      -0.01265883      -0.01668720
In       5.65445910       5.08975932      11.91841665       15       0.02837670       0.01265883       0.01668720
O        4.82813628       5.70080905      13.90528314       16       0.00245619      -0.09710108       0.01197048
O        1.87399345       3.82190433       3.44989549       17       0.00245619       0.09710108      -0.01197048
O        1.08014938       2.52657126      12.12748480       18      -0.00245619      -0.09710108      -0.01197048
O        4.03429220       0.64766654       5.22769383       19      -0.00245619       0.09710108       0.01197048
O        1.08014938       0.64766654       3.44989549       20      -0.00245619       0.09710108      -0.01197048
O        4.03429220       2.52657126      13.90528314       21      -0.00245619      -0.09710108       0.01197048
O        4.82813628       3.82190433       5.22769383       22       0.00245619       0.09710108       0.01197048
O        1.87399345       5.70080905      12.12748480       23       0.00245619      -0.09710108      -0.01197048
O        4.09032963       3.80854558      11.01517110       24      -0.00474597       0.12318860       0.06483265
O        1.13618680       5.71416780       6.34000753       25      -0.00474597      -0.12318860      -0.06483265
O        1.81795603       0.63430779      15.01759684       26       0.00474597       0.12318860      -0.06483265
O        4.77209885       2.53993001       2.33758179       27       0.00474597      -0.12318860       0.06483265
O        1.81795603       2.53993001       6.34000753       28       0.00474597      -0.12318860      -0.06483265
O        4.77209885       0.63430779      11.01517110       29       0.00474597       0.12318860       0.06483265
O        4.09032963       5.71416780       2.33758179       30      -0.00474597      -0.12318860       0.06483265
O        1.13618680       3.80854558      15.01759684       31      -0.00474597       0.12318860      -0.06483265
O        3.73073705       4.22817025      16.64431774       32      -0.06589185      -0.09627603       0.01703280
O        0.77659422       5.29454313       0.71086089       33      -0.06589185       0.09627603      -0.01703280
O        2.17754860       1.05393246       9.38845021       34       0.06589185      -0.09627603      -0.01703280
O        5.13169143       2.12030534       7.96672842       35       0.06589185       0.09627603       0.01703280
O        2.17754860       2.12030534       0.71086089       36       0.06589185       0.09627603      -0.01703280
O        5.13169143       1.05393246      16.64431774       37       0.06589185      -0.09627603       0.01703280
O        3.73073705       5.29454313       7.96672842       38      -0.06589185       0.09627603       0.01703280
O        0.77659422       4.22817025       9.38845021       39      -0.06589185      -0.09627603      -0.01703280
40
Lattice="5.894358655172358 1.1298801411290227e-42 0.0 -1.2155921840684087e-42 6.359007779032515 0.0 0.0 0.0 17.367372227584404" Properties=species:S:1:pos:R:3:spacegroup_kinds:I:1:forces:R:3 spacegroup="P 1" unit_cell=conventional occupancy="_JSON {\"0\": {\"In\": 1}, \"1\": {\"In\": 1}, \"2\": {\"In\": 1}, \"3\": {\"In\": 1}, \"4\": {\"In\": 1}, \"5\": {\"In\": 1}, \"6\": {\"In\": 1}, \"7\": {\"In\": 1}, \"8\": {\"In\": 1}, \"9\": {\"In\": 1}, \"10\": {\"In\": 1}, \"11\": {\"In\": 1}, \"12\": {\"In\": 1}, \"13\": {\"In\": 1}, \"14\": {\"In\": 1}, \"15\": {\"In\": 1}, \"16\": {\"O\": 1}, \"17\": {\"O\": 1}, \"18\": {\"O\": 1}, \"19\": {\"O\": 1}, \"20\": {\"O\": 1}, \"21\": {\"O\": 1}, \"22\": {\"O\": 1}, \"23\": {\"O\": 1}, \"24\": {\"O\": 1}, \"25\": {\"O\": 1}, \"26\": {\"O\": 1}, \"27\": {\"O\": 1}, \"28\": {\"O\": 1}, \"29\": {\"O\": 1}, \"30\": {\"O\": 1}, \"31\": {\"O\": 1}, \"32\": {\"O\": 1}, \"33\": {\"O\": 1}, \"34\": {\"O\": 1}, \"35\": {\"O\": 1}, \"36\": {\"O\": 1}, \"37\": {\"O\": 1}, \"38\": {\"O\": 1}, \"39\": {\"O\": 1}}" n_minim_iter=2 energy=-45145.69302375628 stress="0.07168381741694735 -1.098029460078296e-13 -7.49063210379234e-14 -1.098029460078296e-13 0.07233172642590666 1.8547128177778637e-13 -7.49063210379234e-14 1.8547128177778637e-13 0.07215646904286616" free_energy=-45145.69302375628 pbc="T T T"
In       2.69092753       5.31752101      10.02137390        0       0.06208678       0.09323110      -0.00287822
In      -0.25625179       4.22099066       7.34599833        1       0.06208678      -0.09323110       0.00287822
In       3.20343112       2.13801712      16.02968445        2      -0.06208678       0.09323110       0.00287822
In       6.15061045       1.04148677       1.33768778        3      -0.06208678      -0.09323110      -0.00287822
In       3.20343112       1.04148677       7.34599833        4      -0.06208678      -0.09323110       0.00287822
In       6.15061045       2.13801712      10.02137390        5      -0.06208678       0.09323110      -0.00287822
In       2.69092753       4.22099066       1.33768778        6       0.06208678      -0.09323110      -0.00287822
In      -0.25625179       5.31752101      16.02968445        7       0.06208678       0.09323110       0.00287822
In       2.69400871       5.09822909      14.12423393        8       0.00992328       0.00772022      -0.01448394
In       5.64118803       4.44028258       3.24313830        9       0.00992328      -0.00772022       0.01448394
In       3.20034995       1.91872520      11.92682441       10      -0.00992328       0.00772022       0.01448394
In       0.25317062       1.26077869       5.44054782       11      -0.00992328      -0.00772022      -0.01448394
In       3.20034995       1.26077869       3.24313830       12      -0.00992328      -0.00772022       0.01448394
In       0.25317062       1.91872520      14.12423393       13      -0.00992328       0.00772022      -0.01448394
In       2.69400871       4.44028258       5.44054782       14       0.00992328      -0.00772022      -0.01448394
In       5.64118803       5.09822909      11.92682441       15       0.00992328       0.00772022       0.01448394
O        4.81676039       5.71006882      13.91507725       16       0.01658058      -0.09923593       0.00726214
O        1.86958106       3.82844285       3.45229497       17       0.01658058       0.09923593      -0.00726214
O        1.07759826       2.53056493      12.13598109       18      -0.01658058      -0.09923593      -0.00726214
O        4.02477759       0.64893896       5.23139114       19      -0.01658058       0.09923593       0.00726214
O        1.07759826       0.64893896       3.45229497       20      -0.01658058       0.09923593      -0.00726214
O        4.02477759       2.53056493      13.91507725       21      -0.01658058      -0.09923593       0.00726214
O        4.81676039       3.82844285       5.23139114       22       0.01658058       0.09923593       0.00726214
O        1.86958106       5.71006882      12.13598109       23       0.01658058      -0.09923593      -0.00726214
O        4.08067827       3.81511512      11.02304230       24      -0.00508844       0.11854145       0.07282570
O        1.13349895       5.72339655       6.34432993       25      -0.00508844      -0.11854145      -0.07282570
O        1.81368038       0.63561123      15.02801604       26       0.00508844       0.11854145      -0.07282570
O        4.76085971       2.54389266       2.33935619       27       0.00508844      -0.11854145       0.07282570
O        1.81368038       2.54389266       6.34432993       28       0.00508844      -0.11854145      -0.07282570
O        4.76085971       0.63561123      11.02304230       29       0.00508844       0.11854145       0.07282570
O        4.08067827       5.72339655       2.33935619       30      -0.00508844      -0.11854145       0.07282570
O        1.13349895       3.81511512      15.02801604       31      -0.00508844       0.11854145      -0.07282570
O        3.72180918       4.23498857      16.65604658       32      -0.06554512      -0.10330807       0.02095137
O        0.77462986       5.30352309       0.71132565       33      -0.06554512       0.10330807      -0.02095137
O        2.17254947       1.05548469       9.39501176       34       0.06554512      -0.10330807      -0.02095137
O        5.11972880       2.12401920       7.97236046       35       0.06554512       0.10330807       0.02095137
O        2.17254947       2.12401920       0.71132565       36       0.06554512       0.10330807      -0.02095137
O        5.11972880       1.05548469      16.65604658       37       0.06554512      -0.10330807       0.02095137
O        3.72180918       5.30352309       7.97236046       38      -0.06554512       0.10330807       0.02095137
O        0.77462986       4.23498857       9.39501176       39      -0.06554512      -0.10330807      -0.02095137
40
Lattice="5.8885610412525855 1.1288556665517683e-42 0.0 -1.2156659276782197e-42 6.359860127164383 0.0 0.0 0.0 17.382141499801865" Properties=species:S:1:pos:R:3:spacegroup_kinds:I:1:forces:R:3 spacegroup="P 1" unit_cell=conventional occupancy="_JSON {\"0\": {\"In\": 1}, \"1\": {\"In\": 1}, \"2\": {\"In\": 1}, \"3\": {\"In\": 1}, \"4\": {\"In\": 1}, \"5\": {\"In\": 1}, \"6\": {\"In\": 1}, \"7\": {\"In\": 1}, \"8\": {\"In\": 1}, \"9\": {\"In\": 1}, \"10\": {\"In\": 1}, \"11\": {\"In\": 1}, \"12\": {\"In\": 1}, \"13\": {\"In\": 1}, \"14\": {\"In\": 1}, \"15\": {\"In\": 1}, \"16\": {\"O\": 1}, \"17\": {\"O\": 1}, \"18\": {\"O\": 1}, \"19\": {\"O\": 1}, \"20\": {\"O\": 1}, \"21\": {\"O\": 1}, \"22\": {\"O\": 1}, \"23\": {\"O\": 1}, \"24\": {\"O\": 1}, \"25\": {\"O\": 1}, \"26\": {\"O\": 1}, \"27\": {\"O\": 1}, \"28\": {\"O\": 1}, \"29\": {\"O\": 1}, \"30\": {\"O\": 1}, \"31\": {\"O\": 1}, \"32\": {\"O\": 1}, \"33\": {\"O\": 1}, \"34\": {\"O\": 1}, \"35\": {\"O\": 1}, \"36\": {\"O\": 1}, \"37\": {\"O\": 1}, \"38\": {\"O\": 1}, \"39\": {\"O\": 1}}" n_minim_iter=3 energy=-45145.718031354925 stress="0.06864006298675973 -4.594756113335865e-13 -2.193023140785456e-13 -4.594756113335865e-13 0.0683105560974609 -3.552811824392124e-13 -2.193023140785456e-13 -3.552811824392124e-13 0.06986547467400396" free_energy=-45145.718031354925 pbc="T T T"
In       2.69355741       5.32608783      10.02984479        0       0.00894721       0.00349314      -0.00642124
In      -0.25072311       4.21370236       7.35229671        1       0.00894721      -0.00349314       0.00642124
In       3.19500363       2.14615777      16.04336746        2      -0.00894721       0.00349314       0.00642124
In       6.13928416       1.03377230       1.33877404        3      -0.00894721      -0.00349314      -0.00642124
In       3.19500363       1.03377230       7.35229671        4      -0.00894721      -0.00349314       0.00642124
In       6.13928416       2.14615777      10.02984479        5      -0.00894721       0.00349314      -0.00642124
In       2.69355741       4.21370236       1.33877404        6       0.00894721      -0.00349314      -0.00642124
In      -0.25072311       5.32608783      16.04336746        7       0.00894721       0.00349314       0.00642124
In       2.69250680       5.09966355      14.13494892        8       0.01058150       0.01593179      -0.02580488
In       5.63678732       4.44012664       3.24719258        9       0.01058150      -0.01593179       0.02580488
In       3.19605424       1.91973348      11.93826333       10      -0.01058150       0.01593179       0.02580488
In       0.25177372       1.26019658       5.44387817       11      -0.01058150      -0.01593179      -0.02580488
In       3.19605424       1.26019658       3.24719258       12      -0.01058150      -0.01593179       0.02580488
In       0.25177372       1.91973348      14.13494892       13      -0.01058150       0.01593179      -0.02580488
In       2.69250680       4.44012664       5.44387817       14       0.01058150      -0.01593179      -0.02580488
In       5.63678732       5.09966355      11.93826333       15       0.01058150       0.01593179       0.02580488
O        4.81323421       5.70221589      13.92761754       16       0.02481493      -0.05634921       0.00359011
O        1.86895369       3.83757430       3.45452395       17       0.02481493       0.05634921      -0.00359011
O        1.07532683       2.52228582      12.14559470       18      -0.02481493      -0.05634921      -0.00359011
O        4.01960735       0.65764424       5.23654679       19      -0.02481493       0.05634921       0.00359011
O        1.07532683       0.65764424       3.45452395       20      -0.02481493       0.05634921      -0.00359011
O        4.01960735       2.52228582      13.92761754       21      -0.02481493      -0.05634921       0.00359011
O        4.81323421       3.83757430       5.23654679       22       0.02481493       0.05634921       0.00359011
O        1.86895369       5.70221589      12.14559470       23       0.02481493      -0.05634921      -0.00359011
O        4.07623003       3.82603508      11.03863304       24      -0.00264250       0.06396838       0.05557040
O        1.13194951       5.71375511       6.34350846       25      -0.00264250      -0.06396838      -0.05557040
O        1.81233101       0.64610502      15.03457921       26       0.00264250       0.06396838      -0.05557040
O        4.75661153       2.53382504       2.34756229       27       0.00264250      -0.06396838       0.05557040
O        1.81233101       2.53382504       6.34350846       28       0.00264250      -0.06396838      -0.05557040
O        4.75661153       0.64610502      11.03863304       29       0.00264250       0.06396838       0.05557040
O        4.07623003       5.71375511       2.34756229       30      -0.00264250      -0.06396838       0.05557040
O        1.13194951       3.82603508      15.03457921       31      -0.00264250       0.06396838      -0.05557040
O        3.71247631       4.22666024      16.67197387       32       0.02178623       0.02039091       0.00682488
O        0.76819579       5.31312995       0.71016763       33       0.02178623      -0.02039091      -0.00682488
O        2.17608473       1.04673018       9.40123838       34      -0.02178623       0.02039091      -0.00682488
O        5.12036525       2.13319988       7.98090312       35      -0.02178623      -0.02039091       0.00682488
O        2.17608473       2.13319988       0.71016763       36      -0.02178623      -0.02039091      -0.00682488
O        5.12036525       1.04673018      16.67197387       37      -0.02178623       0.02039091       0.00682488
O        3.71247631       5.31312995       7.98090312       38       0.02178623      -0.02039091       0.00682488
O        0.76819579       4.22666024       9.40123838       39       0.02178623       0.02039091      -0.00682488
40
Lattice="5.8907342794139534 1.1298464692675223e-42 0.0 -1.2169976867482543e-42 6.37005166437595 0.0 0.0 0.0 17.347929117914603" Properties=species:S:1:pos:R:3:spacegroup_kinds:I:1:forces:R:3 spacegroup="P 1" unit_cell=conventional occupancy="_JSON {\"0\": {\"In\": 1}, \"1\": {\"In\": 1}, \"2\": {\"In\": 1}, \"3\": {\"In\": 1}, \"4\": {\"In\": 1}, \"5\": {\"In\": 1}, \"6\": {\"In\": 1}, \"7\": {\"In\": 1}, \"8\": {\"In\": 1}, \"9\": {\"In\": 1}, \"10\": {\"In\": 1}, \"11\": {\"In\": 1}, \"12\": {\"In\": 1}, \"13\": {\"In\": 1}, \"14\": {\"In\": 1}, \"15\": {\"In\": 1}, \"16\": {\"O\": 1}, \"17\": {\"O\": 1}, \"18\": {\"O\": 1}, \"19\": {\"O\": 1}, \"20\": {\"O\": 1}, \"21\": {\"O\": 1}, \"22\": {\"O\": 1}, \"23\": {\"O\": 1}, \"24\": {\"O\": 1}, \"25\": {\"O\": 1}, \"26\": {\"O\": 1}, \"27\": {\"O\": 1}, \"28\": {\"O\": 1}, \"29\": {\"O\": 1}, \"30\": {\"O\": 1}, \"31\": {\"O\": 1}, \"32\": {\"O\": 1}, \"33\": {\"O\": 1}, \"34\": {\"O\": 1}, \"35\": {\"O\": 1}, \"36\": {\"O\": 1}, \"37\": {\"O\": 1}, \"38\": {\"O\": 1}, \"39\": {\"O\": 1}}" n_minim_iter=4 energy=-45145.71990661796 stress="0.06856062474410451 -1.5973060150107779e-13 -3.178906135511047e-13 -1.5973060150107779e-13 0.06904152191598997 -2.8538781999991404e-13 -3.178906135511047e-13 -2.8538781999991404e-13 0.06787077982165478" free_energy=-45145.71990661796 pbc="T T T"
In       2.69527479       5.33566494      10.01007578        0      -0.00084058      -0.00563366       0.00438668
In      -0.25009235       4.21941255       7.33785334        1      -0.00084058       0.00563366      -0.00438668
In       3.19545949       2.15063911      16.01181790        2       0.00084058      -0.00563366      -0.00438668
In       6.14082663       1.03438672       1.33611122        3       0.00084058       0.00563366       0.00438668
In       3.19545949       1.03438672       7.33785334        4       0.00084058       0.00563366      -0.00438668
In       6.14082663       2.15063911      10.01007578        5       0.00084058      -0.00563366       0.00438668
In       2.69527479       4.21941255       1.33611122        6      -0.00084058       0.00563366       0.00438668
In      -0.25009235       5.33566494      16.01181790        7      -0.00084058      -0.00563366      -0.00438668
In       2.69369092       5.10799176      14.10686626        8       0.01795568       0.01077929      -0.01208274
In       5.63905806       4.44708574       3.24106286        9       0.01795568      -0.01077929       0.01208274
In       3.19704336       1.92296593      11.91502742       10      -0.01795568       0.01077929       0.01208274
In       0.25167622       1.26205991       5.43290170       11      -0.01795568      -0.01077929      -0.01208274
In       3.19704336       1.26205991       3.24106286       12      -0.01795568      -0.01077929       0.01208274
In       0.25167622       1.92296593      14.10686626       13      -0.01795568       0.01077929      -0.01208274
In       2.69369092       4.44708574       5.43290170       14       0.01795568      -0.01077929      -0.01208274
In       5.63905806       5.10799176      11.91502742       15       0.01795568       0.01077929       0.01208274
O        4.81525506       5.71002065      13.90031046       16       0.02057260      -0.04631811       0.01280544
O        1.86988792       3.84505684       3.44761866       17       0.02057260       0.04631811      -0.01280544
O        1.07547922       2.52499482      12.12158322       18      -0.02057260      -0.04631811      -0.01280544
O        4.02084636       0.66003101       5.22634590       19      -0.02057260       0.04631811       0.01280544
O        1.07547922       0.66003101       3.44761866       20      -0.02057260       0.04631811      -0.01280544
O        4.02084636       2.52499482      13.90031046       21      -0.02057260      -0.04631811       0.01280544
O        4.81525506       3.84505684       5.22634590       22       0.02057260       0.04631811       0.01280544
O        1.86988792       5.71002065      12.12158322       23       0.02057260      -0.04631811      -0.01280544
O        4.07766812       3.83376245      11.01791631       24       0.00072334       0.06129191       0.05225456
O        1.13230098       5.72131504       6.33001281       25       0.00072334      -0.06129191      -0.05225456
O        1.81306616       0.64873662      15.00397737       26      -0.00072334       0.06129191      -0.05225456
O        4.75843330       2.53628921       2.34395175       27      -0.00072334      -0.06129191       0.05225456
O        1.81306616       2.53628921       6.33001281       28      -0.00072334      -0.06129191      -0.05225456
O        4.75843330       0.64873662      11.01791631       29      -0.00072334       0.06129191       0.05225456
O        4.07766812       5.72131504       2.34395175       30       0.00072334      -0.06129191       0.05225456
O        1.13230098       3.83376245      15.00397737       31       0.00072334       0.06129191      -0.05225456
O        3.71317860       4.23233793      16.63941379       32       0.03264595       0.02120444       0.00170645
O        0.76781146       5.32273957       0.70851533       33       0.03264595      -0.02120444      -0.00170645
O        2.17755568       1.04731210       9.38247989       34      -0.03264595       0.02120444      -0.00170645
O        5.12292282       2.13771374       7.96544923       35      -0.03264595      -0.02120444       0.00170645
O        2.17755568       2.13771374       0.70851533       36      -0.03264595      -0.02120444      -0.00170645
O        5.12292282       1.04731210      16.63941379       37      -0.03264595       0.02120444       0.00170645
O        3.71317860       5.32273957       7.96544923       38       0.03264595      -0.02120444       0.00170645
O        0.76781146       4.23233793       9.38247989       39       0.03264595       0.02120444      -0.00170645
40
Lattice="5.8878827656741475 1.0871432628347998e-42 0.0 -1.2163868591196763e-42 6.368108373517618 0.0 0.0 0.0 17.36162721060052" Properties=species:S:1:pos:R:3:spacegroup_kinds:I:1:forces:R:3 spacegroup="P 1" unit_cell=conventional occupancy="_JSON {\"0\": {\"In\": 1}, \"1\": {\"In\": 1}, \"2\": {\"In\": 1}, \"3\": {\"In\": 1}, \"4\": {\"In\": 1}, \"5\": {\"In\": 1}, \"6\": {\"In\": 1}, \"7\": {\"In\": 1}, \"8\": {\"In\": 1}, \"9\": {\"In\": 1}, \"10\": {\"In\": 1}, \"11\": {\"In\": 1}, \"12\": {\"In\": 1}, \"13\": {\"In\": 1}, \"14\": {\"In\": 1}, \"15\": {\"In\": 1}, \"16\": {\"O\": 1}, \"17\": {\"O\": 1}, \"18\": {\"O\": 1}, \"19\": {\"O\": 1}, \"20\": {\"O\": 1}, \"21\": {\"O\": 1}, \"22\": {\"O\": 1}, \"23\": {\"O\": 1}, \"24\": {\"O\": 1}, \"25\": {\"O\": 1}, \"26\": {\"O\": 1}, \"27\": {\"O\": 1}, \"28\": {\"O\": 1}, \"29\": {\"O\": 1}, \"30\": {\"O\": 1}, \"31\": {\"O\": 1}, \"32\": {\"O\": 1}, \"33\": {\"O\": 1}, \"34\": {\"O\": 1}, \"35\": {\"O\": 1}, \"36\": {\"O\": 1}, \"37\": {\"O\": 1}, \"38\": {\"O\": 1}, \"39\": {\"O\": 1}}" n_minim_iter=5 energy=-45145.72307754508 stress="0.0671043727583219 3.836597503301443e-13 1.8062034511188863e-14 3.836597503301443e-13 0.06705800107488487 1.8085416834322653e-13 1.8062034511188863e-14 1.8085416834322653e-13 0.06717483974827604" free_energy=-45145.72307754508 pbc="T T T"
In       2.69597022       5.33685435      10.01797503        0      -0.01515808      -0.03352570       0.00016258
In      -0.24797116       4.21530821       7.34365218        1      -0.01515808       0.03352570      -0.00016258
In       3.19191254       2.15280016      16.02446579        2       0.01515808      -0.03352570      -0.00016258
In       6.13585392       1.03125403       1.33716142        3       0.01515808       0.03352570       0.00016258
In       3.19191254       1.03125403       7.34365218        4       0.01515808       0.03352570      -0.00016258
In       6.13585392       2.15280016      10.01797503        5       0.01515808      -0.03352570       0.00016258
In       2.69597022       4.21530821       1.33716142        6      -0.01515808       0.03352570       0.00016258
In      -0.24797116       5.33685435      16.02446579        7      -0.01515808      -0.03352570      -0.00016258
In       2.69318038       5.10702087      14.11711070        8       0.01795459       0.01482300      -0.01927018
In       5.63712176       4.44514169       3.24451651        9       0.01795459      -0.01482300       0.01927018
In       3.19470239       1.92296669      11.92533011       10      -0.01795459       0.01482300       0.01927018
In       0.25076100       1.26108750       5.43629710       11      -0.01795459      -0.01482300      -0.01927018
In       3.19470239       1.26108750       3.24451651       12      -0.01795459      -0.01482300       0.01927018
In       0.25076100       1.92296669      14.11711070       13      -0.01795459       0.01482300      -0.01927018
In       2.69318038       4.44514169       5.43629710       14       0.01795459      -0.01482300      -0.01927018
In       5.63712176       5.10702087      11.92533011       15       0.01795459       0.01482300       0.01927018
O        4.81388154       5.70391372      13.91176731       16       0.02199070      -0.02401607       0.00965104
O        1.86994016       3.84824884       3.44985990       17       0.02199070       0.02401607      -0.00965104
O        1.07400122       2.51985954      12.13067350       18      -0.02199070      -0.02401607      -0.00965104
O        4.01794261       0.66419465       5.23095371       19      -0.02199070       0.02401607       0.00965104
O        1.07400122       0.66419465       3.44985990       20      -0.02199070       0.02401607      -0.00965104
O        4.01794261       2.51985954      13.91176731       21      -0.02199070      -0.02401607       0.00965104
O        4.81388154       3.84824884       5.23095371       22       0.02199070       0.02401607       0.00965104
O        1.86994016       5.70391372      12.13067350       23       0.02199070      -0.02401607      -0.00965104
O        4.07552085       3.83790996      11.03016090       24       0.00430263       0.03030499       0.03885461
O        1.13157947       5.71425260       6.33146631       25       0.00430263      -0.03030499      -0.03885461
O        1.81236191       0.65385578      15.01227991       26      -0.00430263       0.03030499      -0.03885461
O        4.75630330       2.53019841       2.34934730       27      -0.00430263      -0.03030499       0.03885461
O        1.81236191       2.53019841       6.33146631       28      -0.00430263      -0.03030499      -0.03885461
O        4.75630330       0.65385578      11.03016090       29      -0.00430263       0.03030499       0.03885461
O        4.07552085       5.71425260       2.34934730       30       0.00430263      -0.03030499       0.03885461
O        1.13157947       3.83790996      15.01227991       31       0.00430263       0.03030499      -0.03885461
O        3.70997287       4.22828967      16.65328316       32       0.05615994       0.06288850      -0.00077930
O        0.76603149       5.32387289       0.70834405       33       0.05615994      -0.06288850       0.00077930
O        2.17790989       1.04423549       9.38915765       34      -0.05615994       0.06288850       0.00077930
O        5.12185128       2.13981870       7.97246956       35      -0.05615994      -0.06288850      -0.00077930
O        2.17790989       2.13981870       0.70834405       36      -0.05615994      -0.06288850       0.00077930
O        5.12185128       1.04423549      16.65328316       37      -0.05615994       0.06288850      -0.00077930
O        3.70997287       5.32387289       7.97246956       38       0.05615994      -0.06288850      -0.00077930
O        0.76603149       4.22828967       9.38915765       39       0.05615994       0.06288850       0.00077930
40