40
Lattice="5.733718120192526 2.9094335725554835e-42 0.0 -2.9909091488143626e-42 5.894284765313876 0.0 0.0 0.0 16.56498418980858" Properties=species:S:1:pos:R:3:spacegroup_kinds:I:1:forces:R:3 spacegroup="P 1" unit_cell=conventional occupancy="_JSON {\"0\": {\"In\": 1}, \"1\": {\"In\": 1}, \"2\": {\"In\": 1}, \"3\": {\"In\": 1}, \"4\": {\"In\": 1}, \"5\": {\"In\": 1}, \"6\": {\"In\": 1}, \"7\": {\"In\": 1}, \"8\": {\"In\": 1}, \"9\": {\"In\": 1}, \"10\": {\"In\": 1}, \"11\": {\"In\": 1}, \"12\": {\"In\": 1}, \"13\": {\"In\": 1}, \"14\": {\"In\": 1}, \"15\": {\"In\": 1}, \"16\": {\"O\": 1}, \"17\": {\"O\": 1}, \"18\": {\"O\": 1}, \"19\": {\"O\": 1}, \"20\": {\"O\": 1}, \"21\": {\"O\": 1}, \"22\": {\"O\": 1}, \"23\": {\"O\": 1}, \"24\": {\"O\": 1}, \"25\": {\"O\": 1}, \"26\": {\"O\": 1}, \"27\": {\"O\": 1}, \"28\": {\"O\": 1}, \"29\": {\"O\": 1}, \"30\": {\"O\": 1}, \"31\": {\"O\": 1}, \"32\": {\"O\": 1}, \"33\": {\"O\": 1}, \"34\": {\"O\": 1}, \"35\": {\"O\": 1}, \"36\": {\"O\": 1}, \"37\": {\"O\": 1}, \"38\": {\"O\": 1}, \"39\": {\"O\": 1}}" n_minim_iter=1 energy=-45149.572355673794 stress="0.03631795317370839 1.2270831223401544e-13 8.948414825325474e-15 1.2270831223401544e-13 0.03731770334267922 -1.0196747213383961e-13 8.948414825325474e-15 -1.0196747213383961e-13 0.038078392772444895" free_energy=-45149.572355673794 pbc="T T T"
In       2.86044697       4.69519261       9.45106650        0       0.00318925      -0.00726497       0.02296206
In      -0.00641209       4.14623453       7.11391769        1       0.00318925       0.00726497      -0.02296206
In       2.87327115       1.74805023      15.39640978        2      -0.00318925      -0.00726497      -0.02296206
In       5.74013021       1.19909215       1.16857441        3      -0.00318925       0.00726497       0.02296206
In       2.87327115       1.19909215       7.11391769        4      -0.00318925       0.00726497      -0.02296206
In       5.74013021       1.74805023       9.45106650        5      -0.00318925      -0.00726497       0.02296206
In       2.86044697       4.14623453       1.16857441        6       0.00318925       0.00726497       0.02296206
In      -0.00641209       4.69519261      15.39640978        7       0.00318925      -0.00726497      -0.02296206
In       2.84361827       4.38600904      13.54815604        8      -0.01467334      -0.00938606      -0.02786906
In       5.71047733       4.45541811       3.01682815        9      -0.01467334       0.00938606       0.02786906
In       2.89009985       1.43886666      11.29932025       10       0.01467334      -0.00938606       0.02786906
In       0.02324079       1.50827572       5.26566394       11       0.01467334       0.00938606      -0.02786906
In       2.89009985       1.50827572       3.01682815       12       0.01467334       0.00938606       0.02786906
In       0.02324079       1.43886666      13.54815604       13       0.01467334      -0.00938606      -0.02786906
In       2.84361827       4.45541811       5.26566394       14      -0.01467334       0.00938606      -0.02786906
In       5.71047733       4.38600904      11.29932025       15      -0.01467334      -0.00938606       0.02786906
O        4.92195217       5.16460945      13.22059348       16      -0.00699940      -0.04769821      -0.00861428
O        2.05509311       3.67681770       3.34439071       17      -0.00699940       0.04769821       0.00861428
O        0.81176595       2.21746707      11.62688280       18       0.00699940      -0.04769821       0.00861428
O        3.67862501       0.72967532       4.93810139       19       0.00699940       0.04769821      -0.00861428
O        0.81176595       0.72967532       3.34439071       20       0.00699940       0.04769821       0.00861428
O        3.67862501       2.21746707      13.22059348       21       0.00699940      -0.04769821      -0.00861428
O        4.92195217       3.67681770       4.93810139       22      -0.00699940       0.04769821      -0.00861428
O        2.05509311       5.16460945      11.62688280       23      -0.00699940      -0.04769821       0.00861428
O        4.04263203       3.09845808      10.34564307       24      -0.06857038       0.01875478      -0.00781916
O        1.17577297       5.74296907       6.21934112       25      -0.06857038      -0.01875478       0.00781916
O        1.69108609       0.15131570      14.50183322       26       0.06857038       0.01875478       0.00781916
O        4.55794515       2.79582668       2.06315097       27       0.06857038      -0.01875478      -0.00781916
O        1.69108609       2.79582668       6.21934112       28       0.06857038      -0.01875478       0.00781916
O        4.55794515       0.15131570      10.34564307       29       0.06857038       0.01875478      -0.00781916
O        4.04263203       5.74296907       2.06315097       30      -0.06857038      -0.01875478      -0.00781916
O        1.17577297       3.09845808      14.50183322       31      -0.06857038       0.01875478       0.00781916
O        3.70892239       3.88718712      15.70545295       32       0.04068348       0.02013678       0.02720645
O        0.84206333       4.95424003       0.85953124       33       0.04068348      -0.02013678      -0.02720645
O        2.02479573       0.94004474       9.14202334       34      -0.04068348       0.02013678      -0.02720645
O        4.89165479       2.00709765       7.42296085       35      -0.04068348      -0.02013678       0.02720645
O        2.02479573       2.00709765       0.85953124       36      -0.04068348      -0.02013678      -0.02720645
O        4.89165479       0.94004474      15.70545295       37      -0.04068348       0.02013678       0.02720645
O        3.70892239       4.95424003       7.42296085       38       0.04068348      -0.02013678       0.02720645
O        0.84206333       3.88718712       9.14202334       39       0.04068348       0.02013678      -0.02720645
40
Lattice="5.741779873511846 2.9136093897798015e-42 0.0 -2.990458159043791e-42 5.89356752938547 0.0 0.0 0.0 16.54373919925045" Properties=species:S:1:pos:R:3:spacegroup_kinds:I:1:forces:R:3 spacegroup="P 1" unit_cell=conventional occupancy="_JSON {\"0\": {\"In\": 1}, \"1\": {\"In\": 1}, \"2\": {\"In\": 1}, \"3\": {\"In\": 1}, \"4\": {\"In\": 1}, \"5\": {\"In\": 1}, \"6\": {\"In\": 1}, \"7\": {\"In\": 1}, \"8\": {\"In\": 1}, \"9\": {\"In\": 1}, \"10\": {\"In\": 1}, \"11\": {\"In\": 1}, \"12\": {\"In\": 1}, \"13\": {\"In\": 1}, \"14\": {\"In\": 1}, \"15\": {\"In\": 1}, \"16\": {\"O\": 1}, \"17\": {\"O\": 1}, \"18\": {\"O\": 1}, \"19\": {\"O\": 1}, \"20\": {\"O\": 1}, \"21\": {\"O\": 1}, \"22\": {\"O\": 1}, \"23\": {\"O\": 1}, \"24\": {\"O\": 1}, \"25\": {\"O\": 1}, \"26\": {\"O\": 1}, \"27\": {\"O\": 1}, \"28\": {\"O\": 1}, \"29\": {\"O\": 1}, \"30\": {\"O\": 1}, \"31\": {\"O\": 1}, \"32\": {\"O\": 1}, \"33\": {\"O\": 1}, \"34\": {\"O\": 1}, \"35\": {\"O\": 1}, \"36\": {\"O\": 1}, \"37\": {\"O\": 1}, \"38\": {\"O\": 1}, \"39\": {\"O\": 1}}" n_minim_iter=2 energy=-45149.57315617689 stress="0.03730195253298123 8.844573045001058e-15 1.5193068816915388e-13 8.844573045001058e-15 0.037172239825715256 -3.1089668794173376e-13 1.5193068816915388e-13 -3.1089668794173376e-13 0.036960812618625556" free_energy=-45149.57315617689 pbc="T T T"
In       2.86447754       4.69460147       9.43900784        0      -0.00715662      -0.01211838       0.02596217
In      -0.00641239       4.14574982       7.10473136        1      -0.00715662       0.01211838      -0.02596217
In       2.87730233       1.74781771      15.37660096        2       0.00715662      -0.01211838      -0.02596217
In       5.74819227       1.19896606       1.16713824        3       0.00715662       0.01211838       0.02596217
In       2.87730233       1.19896606       7.10473136        4       0.00715662       0.01211838      -0.02596217
In       5.74819227       1.74781771       9.43900784        5       0.00715662      -0.01211838       0.02596217
In       2.86447754       4.14574982       1.16713824        6      -0.00715662       0.01211838       0.02596217
In      -0.00641239       4.69460147      15.37660096        7      -0.00715662      -0.01211838      -0.02596217
In       2.84757639       4.38544974      13.53070428        8      -0.00955939      -0.01073699      -0.02174667
In       5.71846633       4.45490156       3.01303492        9      -0.00955939       0.01073699       0.02174667
In       2.89420348       1.43866597      11.28490452       10       0.00955939      -0.01073699       0.02174667
In       0.02331355       1.50811779       5.25883468       11       0.00955939       0.01073699      -0.02174667
In       2.89420348       1.50811779       3.01303492       12       0.00955939       0.01073699       0.02174667
In       0.02331355       1.43866597      13.53070428       13       0.00955939      -0.01073699      -0.02174667
In       2.84757639       4.45490156       5.25883468       14      -0.00955939       0.01073699      -0.02174667
In       5.71846633       4.38544974      11.28490452       15      -0.00955939      -0.01073699       0.02174667
O        4.92885344       5.16385091      13.20361429       16      -0.00963014      -0.04634006      -0.00007587
O        2.05796350       3.67650039       3.34012491       17      -0.00963014       0.04634006       0.00007587
O        0.81292643       2.21706714      11.61199451       18       0.00963014      -0.04634006       0.00007587
O        3.68381637       0.72971662       4.93174469       19       0.00963014       0.04634006      -0.00007587
O        0.81292643       0.72971662       3.34012491       20       0.00963014       0.04634006       0.00007587
O        3.68381637       2.21706714      13.20361429       21       0.00963014      -0.04634006      -0.00007587
O        4.92885344       3.67650039       4.93174469       22      -0.00963014       0.04634006      -0.00007587
O        2.05796350       5.16385091      11.61199451       23      -0.00963014      -0.04634006       0.00007587
O        4.04812876       3.09813220      10.33235323       24      -0.06909470       0.02202047      -0.00992751
O        1.17723883       5.74221909       6.21138597       25      -0.06909470      -0.02202047       0.00992751
O        1.69365111       0.15134844      14.48325557       26       0.06909470       0.02202047       0.00992751
O        4.56454105       2.79543533       2.06048363       27       0.06909470      -0.02202047      -0.00992751
O        1.69365111       2.79543533       6.21138597       28       0.06909470      -0.02202047       0.00992751
O        4.56454105       0.15134844      10.33235323       29       0.06909470       0.02202047      -0.00992751
O        4.04812876       5.74221909       2.06048363       30      -0.06909470      -0.02202047      -0.00992751
O        1.17723883       3.09813220      14.48325557       31      -0.06909470       0.02202047       0.00992751
O        3.71424837       3.88676904      15.68538444       32       0.04592772       0.02226480       0.01945102
O        0.84335843       4.95358226       0.85835475       33       0.04592772      -0.02226480      -0.01945102
O        2.02753151       0.93998527       9.13022435       34      -0.04592772       0.02226480      -0.01945102
O        4.89842144       2.00679849       7.41351484       35      -0.04592772      -0.02226480       0.01945102
O        2.02753151       2.00679849       0.85835475       36      -0.04592772      -0.02226480      -0.01945102
O        4.89842144       0.93998527      15.68538444       37      -0.04592772       0.02226480       0.01945102
O        3.71424837       4.95358226       7.41351484       38       0.04592772      -0.02226480       0.01945102
O        0.84335843       3.88676904       9.13022435       39       0.04592772       0.02226480      -0.01945102
40
Lattice="5.74634680552864 2.9143527308631004e-42 0.0 -2.9896965997811584e-42 5.885020786436732 0.0 0.0 0.0 16.554598169597323" Properties=species:S:1:pos:R:3:spacegroup_kinds:I:1:forces:R:3 spacegroup="P 1" unit_cell=conventional occupancy="_JSON {\"0\": {\"In\": 1}, \"1\": {\"In\": 1}, \"2\": {\"In\": 1}, \"3\": {\"In\": 1}, \"4\": {\"In\": 1}, \"5\": {\"In\": 1}, \"6\": {\"In\": 1}, \"7\": {\"In\": 1}, \"8\": {\"In\": 1}, \"9\": {\"In\": 1}, \"10\": {\"In\": 1}, \"11\": {\"In\": 1}, \"12\": {\"In\": 1}, \"13\": {\"In\": 1}, \"14\": {\"In\": 1}, \"15\": {\"In\": 1}, \"16\": {\"O\": 1}, \"17\": {\"O\": 1}, \"18\": {\"O\": 1}, \"19\": {\"O\": 1}, \"20\": {\"O\": 1}, \"21\": {\"O\": 1}, \"22\": {\"O\": 1}, \"23\": {\"O\": 1}, \"24\": {\"O\": 1}, \"25\": {\"O\": 1}, \"26\": {\"O\": 1}, \"27\": {\"O\": 1}, \"28\": {\"O\": 1}, \"29\": {\"O\": 1}, \"30\": {\"O\": 1}, \"31\": {\"O\": 1}, \"32\": {\"O\": 1}, \"33\": {\"O\": 1}, \"34\": {\"O\": 1}, \"35\": {\"O\": 1}, \"36\": {\"O\": 1}, \"37\": {\"O\": 1}, \"38\": {\"O\": 1}, \"39\": {\"O\": 1}}" n_minim_iter=3 energy=-45149.576666720204 stress="0.03712856735518966 -6.636394566975143e-14 -5.55176332916721e-13 -6.636394566975143e-14 0.0354603934857924 2.1063580055954232e-13 -5.55176332916721e-13 2.1063580055954232e-13 0.03721370984318345" free_energy=-45149.576666720204 pbc="T T T"
In       2.86635946       4.68697582       9.44704260        0      -0.01154297       0.01091834      -0.01020395
In      -0.00681394       4.14055536       7.10755557        1      -0.01154297      -0.01091834       0.01020395
In       2.87998734       1.74446542      15.38485466        2       0.01154297       0.01091834       0.01020395
In       5.75316075       1.19804497       1.16974351        3       0.01154297      -0.01091834      -0.01020395
In       2.87998734       1.19804497       7.10755557        4       0.01154297      -0.01091834       0.01020395
In       5.75316075       1.74446542       9.44704260        5       0.01154297       0.01091834      -0.01020395
In       2.86635946       4.14055536       1.16974351        6      -0.01154297      -0.01091834      -0.01020395
In      -0.00681394       4.68697582      15.38485466        7      -0.01154297       0.01091834       0.01020395
In       2.84908673       4.37833069      13.53794264        8      -0.00723452      -0.01226057      -0.00948293
In       5.72226013       4.44920049       3.01665553        9      -0.00723452       0.01226057       0.00948293
In       2.89726008       1.43582030      11.29395461       10       0.00723452      -0.01226057       0.00948293
In       0.02408668       1.50669010       5.26064356       11       0.00723452       0.01226057      -0.00948293
In       2.89726008       1.50669010       3.01665553       12       0.00723452       0.01226057       0.00948293
In       0.02408668       1.43582030      13.53794264       13       0.00723452      -0.01226057      -0.00948293
In       2.84908673       4.44920049       5.26064356       14      -0.00723452       0.01226057      -0.00948293
In       5.72226013       4.37833069      11.29395461       15      -0.00723452      -0.01226057       0.00948293
O        4.93210611       5.15299996      13.21217419       16       0.00408940      -0.02719331       0.00404698
O        2.05893271       3.67453122       3.34242398       17       0.00408940       0.02719331      -0.00404698
O        0.81424070       2.21048957      11.61972307       18      -0.00408940      -0.02719331      -0.00404698
O        3.68741410       0.73202082       4.93487510       19      -0.00408940       0.02719331       0.00404698
O        0.81424070       0.73202082       3.34242398       20      -0.00408940       0.02719331      -0.00404698
O        3.68741410       2.21048957      13.21217419       21      -0.00408940      -0.02719331       0.00404698
O        4.93210611       3.67453122       4.93487510       22       0.00408940       0.02719331       0.00404698
O        2.05893271       5.15299996      11.61972307       23       0.00408940      -0.02719331      -0.00404698
O        4.04634005       3.09519084      10.33844329       24      -0.01339565      -0.00273949       0.01211358
O        1.17316665       5.73234034       6.21615488       25      -0.01339565       0.00273949      -0.01211358
O        1.70000676       0.15268044      14.49345396       26       0.01339565      -0.00273949      -0.01211358
O        4.57318016       2.78982995       2.06114421       27       0.01339565       0.00273949       0.01211358
O        1.70000676       2.78982995       6.21615488       28       0.01339565       0.00273949      -0.01211358
O        4.57318016       0.15268044      10.33844329       29       0.01339565      -0.00273949       0.01211358
O        4.04634005       5.73234034       2.06114421       30      -0.01339565       0.00273949       0.01211358
O        1.17316665       3.09519084      14.49345396       31      -0.01339565      -0.00273949      -0.01211358
O        3.72047365       3.88271512      15.69717650       32       0.00115973       0.00059428       0.01217351
O        0.84730025       4.94481606       0.85742167       33       0.00115973      -0.00059428      -0.01217351
O        2.02587316       0.94020472       9.13472075       34      -0.00115973       0.00059428      -0.01217351
O        4.89904656       2.00230567       7.41987742       35      -0.00115973      -0.00059428       0.01217351
O        2.02587316       2.00230567       0.85742167       36      -0.00115973      -0.00059428      -0.01217351
O        4.89904656       0.94020472      15.69717650       37      -0.00115973       0.00059428       0.01217351
O        3.72047365       4.94481606       7.41987742       38       0.00115973      -0.00059428       0.01217351
O        0.84730025       3.88271512       9.13472075       39       0.00115973       0.00059428      -0.01217351
40
Lattice="5.742233292662345 2.912503933282737e-42 0.0 -2.994275572717894e-42 5.894546815391821 0.0 0.0 0.0 16.53968460547496" Properties=species:S:1:pos:R:3:spacegroup_kinds:I:1:forces:R:3 spacegroup="P 1" unit_cell=conventional occupancy="_JSON {\"0\": {\"In\": 1}, \"1\": {\"In\": 1}, \"2\": {\"In\": 1}, \"3\": {\"In\": 1}, \"4\": {\"In\": 1}, \"5\": {\"In\": 1}, \"6\": {\"In\": 1}, \"7\": {\"In\": 1}, \"8\": {\"In\": 1}, \"9\": {\"In\": 1}, \"10\": {\"In\": 1}, \"11\": {\"In\": 1}, \"12\": {\"In\": 1}, \"13\": {\"In\": 1}, \"14\": {\"In\": 1}, \"15\": {\"In\": 1}, \"16\": {\"O\": 1}, \"17\": {\"O\": 1}, \"18\": {\"O\": 1}, \"19\": {\"O\": 1}, \"20\": {\"O\": 1}, \"21\": {\"O\": 1}, \"22\": {\"O\": 1}, \"23\": {\"O\": 1}, \"24\": {\"O\": 1}, \"25\": {\"O\": 1}, \"26\": {\"O\": 1}, \"27\": {\"O\": 1}, \"28\": {\"O\": 1}, \"29\": {\"O\": 1}, \"30\": {\"O\": 1}, \"31\": {\"O\": 1}, \"32\": {\"O\": 1}, \"33\": {\"O\": 1}, \"34\": {\"O\": 1}, \"35\": {\"O\": 1}, \"36\": {\"O\": 1}, \"37\": {\"O\": 1}, \"38\": {\"O\": 1}, \"39\": {\"O\": 1}}" n_minim_iter=4 energy=-45149.5777140932 stress="0.036445966819604485 6.220365079391901e-13 -2.561891494402106e-13 6.220365079391901e-13 0.03639565773581952 2.3733887921786284e-13 -2.561891494402106e-13 2.3733887921786284e-13 0.03644241624237819" free_energy=-45149.5777140932 pbc="T T T"
In       2.86415822       4.69436467       9.43902144        0      -0.00908575       0.02302444      -0.01157927
In      -0.00695842       4.14745555       7.10066317        1      -0.00908575      -0.02302444       0.01157927
In       2.87807507       1.74709126      15.37050547        2       0.00908575       0.02302444       0.01157927
In       5.74919172       1.20018215       1.16917913        3       0.00908575      -0.02302444      -0.01157927
In       2.87807507       1.20018215       7.10066317        4       0.00908575      -0.02302444       0.01157927
In       5.74919172       1.74709126       9.43902144        5       0.00908575       0.02302444      -0.01157927
In       2.86415822       4.14745555       1.16917913        6      -0.00908575      -0.02302444      -0.01157927
In      -0.00695842       4.69436467      15.37050547        7      -0.00908575       0.02302444       0.01157927
In       2.84681005       4.38516298      13.52525058        8      -0.00798654      -0.02458130       0.00336877
In       5.71792670       4.45665725       3.01443402        9      -0.00798654       0.02458130      -0.00336877
In       2.89542324       1.43788957      11.28427633       10       0.00798654      -0.02458130      -0.00336877
In       0.02430659       1.50938384       5.25540828       11       0.00798654       0.02458130       0.00336877
In       2.89542324       1.50938384       3.01443402       12       0.00798654       0.02458130      -0.00336877
In       0.02430659       1.43788957      13.52525058       13       0.00798654      -0.02458130       0.00336877
In       2.84681005       4.45665725       5.25540828       14      -0.00798654       0.02458130       0.00336877
In       5.71792670       4.38516298      11.28427633       15      -0.00798654      -0.02458130      -0.00336877
O        4.92839906       5.16029851      13.20025433       16       0.00353733      -0.01997486       0.00887477
O        2.05728241       3.68152172       3.33943027       17       0.00353733       0.01997486      -0.00887477
O        0.81383423       2.21302510      11.60927258       18      -0.00353733      -0.01997486      -0.00887477
O        3.68495088       0.73424831       4.93041203       19      -0.00353733       0.01997486       0.00887477
O        0.81383423       0.73424831       3.33943027       20      -0.00353733       0.01997486      -0.00887477
O        3.68495088       2.21302510      13.20025433       21      -0.00353733      -0.01997486       0.00887477
O        4.92839906       3.68152172       4.93041203       22       0.00353733       0.01997486       0.00887477
O        2.05728241       5.16029851      11.60927258       23       0.00353733      -0.01997486      -0.00887477
O        4.04197963       3.10063356      10.32897181       24      -0.00140643      -0.00343212       0.01386381
O        1.17086298       5.74118666       6.21071279       25      -0.00140643       0.00343212      -0.01386381
O        1.70025366       0.15336016      14.48055510       26       0.00140643      -0.00343212      -0.01386381
O        4.57137031       2.79391325       2.05912951       27       0.00140643       0.00343212       0.01386381
O        1.70025366       2.79391325       6.21071279       28       0.00140643       0.00343212      -0.01386381
O        4.57137031       0.15336016      10.32897181       29       0.00140643      -0.00343212       0.01386381
O        4.04197963       5.74118666       2.05912951       30      -0.00140643       0.00343212       0.01386381
O        1.17086298       3.10063356      14.48055510       31      -0.00140643      -0.00343212      -0.01386381
O        3.71874220       3.88945203      15.68349847       32      -0.00861357      -0.01044271       0.00699799
O        0.84762555       4.95236820       0.85618614       33      -0.00861357       0.01044271      -0.00699799
O        2.02349109       0.94217862       9.12602844       34       0.00861357      -0.01044271      -0.00699799
O        4.89460774       2.00509479       7.41365617       35       0.00861357       0.01044271       0.00699799
O        2.02349109       2.00509479       0.85618614       36       0.00861357       0.01044271      -0.00699799
O        4.89460774       0.94217862      15.68349847       37       0.00861357      -0.01044271       0.00699799
O        3.71874220       4.95236820       7.41365617       38      -0.00861357       0.01044271       0.00699799
O        0.84762555       3.88945203       9.12602844       39      -0.00861357      -0.01044271      -0.00699799
40
Lattice="5.738320158150555 9.624421496830236e-43 0.0 -1.49656477483411e-42 5.901733331829481 0.0 0.0 0.0 16.530809477624604" Properties=species:S:1:pos:R:3:spacegroup_kinds:I:1:forces:R:3 spacegroup="P 1" unit_cell=conventional occupancy="_JSON {\"0\": {\"In\": 1}, \"1\": {\"In\": 1}, \"2\": {\"In\": 1}, \"3\": {\"In\": 1}, \"4\": {\"In\": 1}, \"5\": {\"In\": 1}, \"6\": {\"In\": 1}, \"7\": {\"In\": 1}, \"8\": {\"In\": 1}, \"9\": {\"In\": 1}, \"10\": {\"In\": 1}, \"11\": {\"In\": 1}, \"12\": {\"In\": 1}, \"13\": {\"In\": 1}, \"14\": {\"In\": 1}, \"15\": {\"In\": 1}, \"16\": {\"O\": 1}, \"17\": {\"O\": 1}, \"18\": {\"O\": 1}, \"19\": {\"O\": 1}, \"20\": {\"O\": 1}, \"21\": {\"O\": 1}, \"22\": {\"O\": 1}, \"23\": {\"O\": 1}, \"24\": {\"O\": 1}, \"25\": {\"O\": 1}, \"26\": {\"O\": 1}, \"27\": {\"O\": 1}, \"28\": {\"O\": 1}, \"29\": {\"O\": 1}, \"30\": {\"O\": 1}, \"31\": {\"O\": 1}, \"32\": {\"O\": 1}, \"33\": {\"O\": 1}, \"34\": {\"O\": 1}, \"35\": {\"O\": 1}, \"36\": {\"O\": 1}, \"37\": {\"O\": 1}, \"38\": {\"O\": 1}, \"39\": {\"O\": 1}}" n_minim_iter=5 energy=-45149.579210607706 stress="0.03575596303176671 -1.1080634367263999e-13 3.078996788127717e-13 -1.1080634367263999e-13 0.03676546077538525 2.3198035579889716e-13 3.078996788127717e-13 2.3198035579889716e-13 0.03571172134590818" free_energy=-45149.579210607706 pbc="T T T"
In       2.86055587       4.70325708       9.43318813        0       0.00594937       0.00088489       0.00744997
In      -0.00860421       4.14934292       7.09762135        1       0.00594937      -0.00088489      -0.00744997
In       2.87776429       1.75239041      15.36302609        2      -0.00594937       0.00088489      -0.00744997
In       5.74692437       1.19847625       1.16778339        3      -0.00594937      -0.00088489       0.00744997
In       2.87776429       1.19847625       7.09762135        4      -0.00594937      -0.00088489      -0.00744997
In       5.74692437       1.75239041       9.43318813        5      -0.00594937       0.00088489       0.00744997
In       2.86055587       4.14934292       1.16778339        6       0.00594937      -0.00088489       0.00744997
In      -0.00860421       4.70325708      15.36302609        7       0.00594937       0.00088489      -0.00744997
In       2.84318283       4.38619591      13.51760199        8      -0.00625544      -0.01824085      -0.00173156
In       5.71234291       4.46640409       3.01320749        9      -0.00625544       0.01824085       0.00173156
In       2.89513732       1.43532924      11.27861222       10       0.00625544      -0.01824085       0.00173156
In       0.02597724       1.51553742       5.25219725       11       0.00625544       0.01824085      -0.00173156
In       2.89513732       1.51553742       3.01320749       12       0.00625544       0.01824085       0.00173156
In       0.02597724       1.43532924      13.51760199       13       0.00625544      -0.01824085      -0.00173156
In       2.84318283       4.46640409       5.25219725       14      -0.00625544       0.01824085      -0.00173156
In       5.71234291       4.38619591      11.27861222       15      -0.00625544      -0.01824085       0.00173156
O        4.92521734       5.16153972      13.19450391       16      -0.00378605      -0.00715685       0.01040201
O        2.05605726       3.69106028       3.33630556       17      -0.00378605       0.00715685      -0.01040201
O        0.81310282       2.21067305      11.60171030       18       0.00378605      -0.00715685      -0.01040201
O        3.68226289       0.74019361       4.92909918       19       0.00378605       0.00715685       0.01040201
O        0.81310282       0.74019361       3.33630556       20       0.00378605       0.00715685      -0.01040201
O        3.68226289       2.21067305      13.19450391       21       0.00378605      -0.00715685       0.01040201
O        4.92521734       3.69106028       4.92909918       22      -0.00378605       0.00715685       0.01040201
O        2.05605726       5.16153972      11.60171030       23      -0.00378605      -0.00715685      -0.01040201
O        4.03617296       3.10475839      10.32520745       24       0.01196089      -0.00057915      -0.00108102
O        1.16701288       5.74784160       6.20560203       25       0.01196089       0.00057915       0.00108102
O        1.70214720       0.15389173      14.47100677       26      -0.01196089      -0.00057915       0.00108102
O        4.57130728       2.79697494       2.05980271       27      -0.01196089       0.00057915      -0.00108102
O        1.70214720       2.79697494       6.20560203       28      -0.01196089       0.00057915       0.00108102
O        4.57130728       0.15389173      10.32520745       29      -0.01196089      -0.00057915      -0.00108102
O        4.03617296       5.74784160       2.05980271       30       0.01196089       0.00057915      -0.00108102
O        1.16701288       3.10475839      14.47100677       31       0.01196089      -0.00057915       0.00108102
O        3.71669827       3.89344109      15.67702232       32      -0.01591459      -0.01605628      -0.00923857
O        0.84753819       4.95915891       0.85378716       33      -0.01591459       0.01605628       0.00923857
O        2.02162189       0.94257442       9.11919190       34       0.01591459      -0.01605628       0.00923857
O        4.89078197       2.00829224       7.41161758       35       0.01591459       0.01605628      -0.00923857
O        2.02162189       2.00829224       0.85378716       36       0.01591459       0.01605628       0.00923857
O        4.89078197       0.94257442      15.67702232       37       0.01591459      -0.01605628      -0.00923857
O        3.71669827       4.95915891       7.41161758       38      -0.01591459       0.01605628      -0.00923857
O        0.84753819       3.89344109       9.11919190       39      -0.01591459      -0.01605628       0.00923857
40