40
Lattice="5.486857777694484 1.5633476030851084e-42 0.0 -1.619980220705184e-42 5.685620431532121 0.0 0.0 0.0 15.858863190596535" Properties=species:S:1:pos:R:3:spacegroup_kinds:I:1:forces:R:3 spacegroup="P 1" unit_cell=conventional occupancy="_JSON {\"0\": {\"In\": 1}, \"1\": {\"In\": 1}, \"2\": {\"In\": 1}, \"3\": {\"In\": 1}, \"4\": {\"In\": 1}, \"5\": {\"In\": 1}, \"6\": {\"In\": 1}, \"7\": {\"In\": 1}, \"8\": {\"In\": 1}, \"9\": {\"In\": 1}, \"10\": {\"In\": 1}, \"11\": {\"In\": 1}, \"12\": {\"In\": 1}, \"13\": {\"In\": 1}, \"14\": {\"In\": 1}, \"15\": {\"In\": 1}, \"16\": {\"O\": 1}, \"17\": {\"O\": 1}, \"18\": {\"O\": 1}, \"19\": {\"O\": 1}, \"20\": {\"O\": 1}, \"21\": {\"O\": 1}, \"22\": {\"O\": 1}, \"23\": {\"O\": 1}, \"24\": {\"O\": 1}, \"25\": {\"O\": 1}, \"26\": {\"O\": 1}, \"27\": {\"O\": 1}, \"28\": {\"O\": 1}, \"29\": {\"O\": 1}, \"30\": {\"O\": 1}, \"31\": {\"O\": 1}, \"32\": {\"O\": 1}, \"33\": {\"O\": 1}, \"34\": {\"O\": 1}, \"35\": {\"O\": 1}, \"36\": {\"O\": 1}, \"37\": {\"O\": 1}, \"38\": {\"O\": 1}, \"39\": {\"O\": 1}}" n_minim_iter=1 energy=-45149.89470051804 stress="-0.03412887674998216 2.503687674876007e-13 -5.261106857768616e-14 2.503687674876007e-13 -0.034077639628010886 -2.9365050321928673e-13 -5.261106857768616e-14 -2.9365050321928673e-13 -0.03177353702677521" free_energy=-45149.89470051804 pbc="T T T"
In       2.73461807       4.57013568       9.06097414        0      -0.00859059       0.02120488       0.04509056
In      -0.00881081       3.95829497       6.79788905        1      -0.00859059      -0.02120489      -0.04509056
In       2.75223970       1.72732546      14.72732064        2       0.00859059       0.02120488      -0.04509056
In       5.49566859       1.11548475       1.13154255        3       0.00859059      -0.02120488       0.04509056
In       2.75223970       1.11548475       6.79788905        4       0.00859059      -0.02120488      -0.04509056
In       5.49566859       1.72732546       9.06097414        5       0.00859059       0.02120488       0.04509056
In       2.73461807       3.95829497       1.13154255        6      -0.00859059      -0.02120488       0.04509056
In      -0.00881081       4.57013568      14.72732064        7      -0.00859059       0.02120488      -0.04509056
In       2.72924212       4.27715936      12.97805084        8       0.01969237      -0.01885347      -0.01490278
In       5.47267101       4.25127129       2.88081235        9       0.01969237       0.01885347       0.01490278
In       2.75761566       1.43434914      10.81024395       10      -0.01969237      -0.01885347       0.01490278
In       0.01418677       1.40846107       5.04861924       11      -0.01969237       0.01885347      -0.01490278
In       2.75761566       1.40846107       2.88081235       12      -0.01969237       0.01885347       0.01490278
In       0.01418677       1.43434914      12.97805084       13      -0.01969237      -0.01885347      -0.01490278
In       2.72924212       4.25127129       5.04861924       14       0.01969237       0.01885347      -0.01490278
In       5.47267101       4.27715936      10.81024395       15       0.01969237      -0.01885347       0.01490278
O        4.71077128       5.04745481      12.66039489       16       0.01610032       0.02629229       0.00972544
O        1.96734239       3.48097583       3.19846830       17       0.01610032      -0.02629229      -0.00972544
O        0.77608650       2.20464460      11.12789990       18      -0.01610032       0.02629229      -0.00972544
O        3.51951539       0.63816562       4.73096329       19      -0.01610032      -0.02629229       0.00972544
O        0.77608650       0.63816562       3.19846830       20      -0.01610032      -0.02629229      -0.00972545
O        3.51951539       2.20464460      12.66039489       21      -0.01610032       0.02629229       0.00972544
O        4.71077128       3.48097583       4.73096329       22       0.01610032      -0.02629229       0.00972544
O        1.96734239       5.04745481      11.12789990       23       0.01610032       0.02629229      -0.00972544
O        3.87956256       3.02418336       9.90613792       24       0.04988766      -0.03308246       0.02834392
O        1.13613367       5.50424729       5.95272527       25       0.04988766       0.03308246      -0.02834392
O        1.60729522       0.18137314      13.88215686       26      -0.04988766      -0.03308246      -0.02834392
O        4.35072411       2.66143707       1.97670633       27      -0.04988766       0.03308246       0.02834392
O        1.60729522       2.66143707       5.95272527       28      -0.04988766       0.03308246      -0.02834392
O        4.35072411       0.18137314       9.90613792       29      -0.04988766      -0.03308246       0.02834392
O        3.87956256       5.50424729       1.97670633       30       0.04988766       0.03308246       0.02834392
O        1.13613367       3.02418336      13.88215686       31       0.04988766      -0.03308246      -0.02834392
O        3.53925722       3.77756896      15.03579562       32      -0.03523438       0.00346227      -0.03350014
O        0.79582833       4.75086168       0.82306757       33      -0.03523438      -0.00346227       0.03350014
O        1.94760055       0.93475875       8.75249916       34       0.03523438       0.00346227       0.03350014
O        4.69102944       1.90805147       7.10636403       35       0.03523438      -0.00346227      -0.03350014
O        1.94760055       1.90805147       0.82306757       36       0.03523438      -0.00346227       0.03350014
O        4.69102944       0.93475875      15.03579562       37       0.03523438       0.00346227      -0.03350014
O        3.53925722       4.75086168       7.10636403       38      -0.03523438      -0.00346227      -0.03350014
O        0.79582833       3.77756896       8.75249916       39      -0.03523438       0.00346227       0.03350014
40
Lattice="5.491775168209428 1.5646458306224625e-42 0.0 -1.621445885421348e-42 5.690390361023362 0.0 0.0 0.0 15.831381328836116" Properties=species:S:1:pos:R:3:spacegroup_kinds:I:1:forces:R:3 spacegroup="P 1" unit_cell=conventional occupancy="_JSON {\"0\": {\"In\": 1}, \"1\": {\"In\": 1}, \"2\": {\"In\": 1}, \"3\": {\"In\": 1}, \"4\": {\"In\": 1}, \"5\": {\"In\": 1}, \"6\": {\"In\": 1}, \"7\": {\"In\": 1}, \"8\": {\"In\": 1}, \"9\": {\"In\": 1}, \"10\": {\"In\": 1}, \"11\": {\"In\": 1}, \"12\": {\"In\": 1}, \"13\": {\"In\": 1}, \"14\": {\"In\": 1}, \"15\": {\"In\": 1}, \"16\": {\"O\": 1}, \"17\": {\"O\": 1}, \"18\": {\"O\": 1}, \"19\": {\"O\": 1}, \"20\": {\"O\": 1}, \"21\": {\"O\": 1}, \"22\": {\"O\": 1}, \"23\": {\"O\": 1}, \"24\": {\"O\": 1}, \"25\": {\"O\": 1}, \"26\": {\"O\": 1}, \"27\": {\"O\": 1}, \"28\": {\"O\": 1}, \"29\": {\"O\": 1}, \"30\": {\"O\": 1}, \"31\": {\"O\": 1}, \"32\": {\"O\": 1}, \"33\": {\"O\": 1}, \"34\": {\"O\": 1}, \"35\": {\"O\": 1}, \"36\": {\"O\": 1}, \"37\": {\"O\": 1}, \"38\": {\"O\": 1}, \"39\": {\"O\": 1}}" n_minim_iter=2 energy=-45149.89578855238 stress="-0.03297395806217312 3.243795784924637e-13 -7.622879476886161e-13 3.243795784924637e-13 -0.03328079147320233 3.653278449516602e-13 -7.622879476886161e-13 3.653278449516602e-13 -0.03340561678804914" free_energy=-45149.89578855238 pbc="T T T"
In       2.73704947       4.57401768       9.04537396        0      -0.02219473       0.01189799       0.06323609
In      -0.00883812       3.96156786       6.78600737        1      -0.02219473      -0.01189799      -0.06323609
In       2.75472570       1.72882250      14.70169803        2       0.02219473       0.01189799      -0.06323609
In       5.50061329       1.11637268       1.12968330        3       0.02219473      -0.01189799       0.06323609
In       2.75472570       1.11637268       6.78600737        4       0.02219473      -0.01189799      -0.06323609
In       5.50061329       1.72882250       9.04537396        5       0.02219473       0.01189799       0.06323609
In       2.73704947       3.96156786       1.12968330        6      -0.02219473      -0.01189799       0.06323609
In      -0.00883812       4.57401768      14.70169803        7      -0.02219473       0.01189799      -0.06323609
In       2.73173259       4.28070507      12.95552756        8       0.03265084      -0.02013962      -0.00546363
In       5.47762017       4.25488047       2.87585377        9       0.03265084       0.02013962       0.00546363
In       2.76004258       1.43550989      10.79154443       10      -0.03265084      -0.02013962       0.00546363
In       0.01415500       1.40968529       5.03983690       11      -0.03265084       0.02013962      -0.00546363
In       2.76004258       1.40968529       2.87585377       12      -0.03265084       0.02013961       0.00546363
In       0.01415500       1.43550989      12.95552756       13      -0.03265084      -0.02013962      -0.00546363
In       2.73173259       4.25488047       5.03983690       14       0.03265084       0.02013962      -0.00546363
In       5.47762017       4.28070507      10.79154443       15       0.03265084      -0.02013962       0.00546363
O        4.71502950       5.05174875      12.63847757       16       0.00475314       0.02733306       0.01805081
O        1.96914192       3.48383679       3.19290376       17       0.00475314      -0.02733306      -0.01805081
O        0.77674566       2.20655357      11.10859442       18      -0.00475314       0.02733306      -0.01805081
O        3.52263325       0.63864161       4.72278691       19      -0.00475314      -0.02733306       0.01805081
O        0.77674566       0.63864161       3.19290376       20      -0.00475314      -0.02733306      -0.01805081
O        3.52263325       2.20655357      12.63847757       21      -0.00475314       0.02733306       0.01805081
O        4.71502950       3.48383679       4.72278691       22       0.00475314      -0.02733306       0.01805081
O        1.96914192       5.05174875      11.10859442       23       0.00475314       0.02733306      -0.01805081
O        3.88315217       3.02664575       9.88903542       24       0.04725048      -0.02896717       0.02715577
O        1.13726459       5.50893979       5.94234591       25       0.04725048       0.02896717      -0.02715577
O        1.60862299       0.18145057      13.85803657       26      -0.04725048      -0.02896717      -0.02715577
O        4.35451058       2.66374461       1.97334475       27      -0.04725048       0.02896717       0.02715577
O        1.60862299       2.66374461       5.94234591       28      -0.04725048       0.02896717      -0.02715577
O        4.35451058       0.18145057       9.88903542       29      -0.04725048      -0.02896717       0.02715577
O        3.88315217       5.50893979       1.97334475       30       0.04725048       0.02896717       0.02715577
O        1.13726459       3.02664575      13.85803657       31       0.04725048      -0.02896717      -0.02715577
O        3.54234955       3.78074596      15.00966457       32      -0.02039750       0.00444628      -0.04763303
O        0.79646196       4.75483958       0.82171676       33      -0.02039750      -0.00444628       0.04763303
O        1.94942562       0.93555078       8.73740742       34       0.02039750       0.00444628       0.04763303
O        4.69531320       1.90964440       7.09397391       35       0.02039750      -0.00444628      -0.04763303
O        1.94942562       1.90964440       0.82171676       36       0.02039750      -0.00444628       0.04763303
O        4.69531320       0.93555078      15.00966457       37       0.02039750       0.00444628      -0.04763303
O        3.54234955       4.75483958       7.09397391       38      -0.02039750      -0.00444628      -0.04763303
O        0.79646196       3.78074596       8.73740742       39      -0.02039750       0.00444628       0.04763303
40
Lattice="5.486859803176579 1.5631364851224912e-42 0.0 -1.62349122567958e-42 5.697173109201322 0.0 0.0 0.0 15.826698884443164" Properties=species:S:1:pos:R:3:spacegroup_kinds:I:1:forces:R:3 spacegroup="P 1" unit_cell=conventional occupancy="_JSON {\"0\": {\"In\": 1}, \"1\": {\"In\": 1}, \"2\": {\"In\": 1}, \"3\": {\"In\": 1}, \"4\": {\"In\": 1}, \"5\": {\"In\": 1}, \"6\": {\"In\": 1}, \"7\": {\"In\": 1}, \"8\": {\"In\": 1}, \"9\": {\"In\": 1}, \"10\": {\"In\": 1}, \"11\": {\"In\": 1}, \"12\": {\"In\": 1}, \"13\": {\"In\": 1}, \"14\": {\"In\": 1}, \"15\": {\"In\": 1}, \"16\": {\"O\": 1}, \"17\": {\"O\": 1}, \"18\": {\"O\": 1}, \"19\": {\"O\": 1}, \"20\": {\"O\": 1}, \"21\": {\"O\": 1}, \"22\": {\"O\": 1}, \"23\": {\"O\": 1}, \"24\": {\"O\": 1}, \"25\": {\"O\": 1}, \"26\": {\"O\": 1}, \"27\": {\"O\": 1}, \"28\": {\"O\": 1}, \"29\": {\"O\": 1}, \"30\": {\"O\": 1}, \"31\": {\"O\": 1}, \"32\": {\"O\": 1}, \"33\": {\"O\": 1}, \"34\": {\"O\": 1}, \"35\": {\"O\": 1}, \"36\": {\"O\": 1}, \"37\": {\"O\": 1}, \"38\": {\"O\": 1}, \"39\": {\"O\": 1}}" n_minim_iter=3 energy=-45149.89701907262 stress="-0.03370987492739286 5.935976455111968e-13 -3.300325057727985e-13 5.935976455111968e-13 -0.03239928065253328 -7.74633985301475e-14 -3.300325057727985e-13 -7.74633985301475e-14 -0.03328239444058192" free_energy=-45149.89701907262 pbc="T T T"
In       2.73426889       4.57968183       9.04367941        0      -0.00669340       0.01302584       0.05215984
In      -0.00916101       3.96607783       6.78301947        1      -0.00669340      -0.01302584      -0.05215984
In       2.75259091       1.73109528      14.69636891        2       0.00669340       0.01302584      -0.05215984
In       5.49602081       1.11749128       1.13032997        3       0.00669340      -0.01302584       0.05215984
In       2.75259091       1.11749128       6.78301947        4       0.00669340      -0.01302584      -0.05215984
In       5.49602081       1.73109528       9.04367941        5       0.00669340       0.01302584       0.05215984
In       2.73426889       3.96607783       1.13032997        6      -0.00669340      -0.01302584       0.05215984
In      -0.00916101       4.57968183      14.69636891        7      -0.00669340       0.01302584      -0.05215984
In       2.72978881       4.28548385      12.95158825        8       0.01870137      -0.02078617      -0.00291896
In       5.47321871       4.26027582       2.87511063        9       0.01870137       0.02078617       0.00291896
In       2.75707099       1.43689729      10.78846008       10      -0.01870137      -0.02078617       0.00291896
In       0.01364109       1.41168926       5.03823881       11      -0.01870137       0.02078617      -0.00291896
In       2.75707099       1.41168926       2.87511063       12      -0.01870137       0.02078617       0.00291896
In       0.01364109       1.43689729      12.95158825       13      -0.01870137      -0.02078617      -0.00291896
In       2.72978881       4.26027582       5.03823881       14       0.01870137       0.02078617      -0.00291896
In       5.47321871       4.28548385      10.78846008       15       0.01870137      -0.02078617       0.00291896
O        4.71090969       5.05821101      12.63501297       16       0.00560079       0.02695971       0.00830902
O        1.96747979       3.48754865       3.19168591       17       0.00560079      -0.02695971      -0.00830902
O        0.77595011       2.20962446      11.10503535       18      -0.00560079       0.02695971      -0.00830902
O        3.51938001       0.63896210       4.72166353       19      -0.00560079      -0.02695971       0.00830902
O        0.77595011       0.63896210       3.19168591       20      -0.00560079      -0.02695971      -0.00830902
O        3.51938001       2.20962446      12.63501297       21      -0.00560079       0.02695971       0.00830902
O        4.71090969       3.48754865       4.72166353       22       0.00560079      -0.02695971       0.00830902
O        1.96747979       5.05821101      11.10503535       23       0.00560079       0.02695971      -0.00830902
O        3.88044619       3.02977549       9.88655026       24       0.03019299      -0.02202472       0.02491307
O        1.13701628       5.51598417       5.94014862       25       0.03019300       0.02202472      -0.02491307
O        1.60641362       0.18118894      13.85349806       26      -0.03019299      -0.02202472      -0.02491307
O        4.34984352       2.66739762       1.97320082       27      -0.03019299       0.02202472       0.02491307
O        1.60641362       2.66739762       5.94014862       28      -0.03019300       0.02202472      -0.02491307
O        4.34984352       0.18118894       9.88655026       29      -0.03019299      -0.02202472       0.02491307
O        3.88044619       5.51598417       1.97320082       30       0.03019299       0.02202472       0.02491307
O        1.13701628       3.02977549      13.85349806       31       0.03019300      -0.02202472      -0.02491307
O        3.53881845       3.78532249      15.00448733       32      -0.02465528      -0.00055923      -0.03178251
O        0.79538855       4.76043717       0.82221155       33      -0.02465528       0.00055923       0.03178251
O        1.94804136       0.93673594       8.73556100       34       0.02465528      -0.00055923       0.03178251
O        4.69147126       1.91185062       7.09113789       35       0.02465528       0.00055923      -0.03178251
O        1.94804136       1.91185062       0.82221155       36       0.02465528       0.00055923       0.03178251
O        4.69147126       0.93673594      15.00448733       37       0.02465528      -0.00055923      -0.03178251
O        3.53881845       4.76043717       7.09113789       38      -0.02465528       0.00055923      -0.03178251
O        0.79538855       3.78532249       8.73556100       39      -0.02465528      -0.00055923       0.03178251
40
Lattice="5.49346364550016 1.5968027398030268e-42 0.0 -1.621847089376207e-42 5.691837923842671 0.0 0.0 0.0 15.822490337318916" Properties=species:S:1:pos:R:3:spacegroup_kinds:I:1:forces:R:3 spacegroup="P 1" unit_cell=conventional occupancy="_JSON {\"0\": {\"In\": 1}, \"1\": {\"In\": 1}, \"2\": {\"In\": 1}, \"3\": {\"In\": 1}, \"4\": {\"In\": 1}, \"5\": {\"In\": 1}, \"6\": {\"In\": 1}, \"7\": {\"In\": 1}, \"8\": {\"In\": 1}, \"9\": {\"In\": 1}, \"10\": {\"In\": 1}, \"11\": {\"In\": 1}, \"12\": {\"In\": 1}, \"13\": {\"In\": 1}, \"14\": {\"In\": 1}, \"15\": {\"In\": 1}, \"16\": {\"O\": 1}, \"17\": {\"O\": 1}, \"18\": {\"O\": 1}, \"19\": {\"O\": 1}, \"20\": {\"O\": 1}, \"21\": {\"O\": 1}, \"22\": {\"O\": 1}, \"23\": {\"O\": 1}, \"24\": {\"O\": 1}, \"25\": {\"O\": 1}, \"26\": {\"O\": 1}, \"27\": {\"O\": 1}, \"28\": {\"O\": 1}, \"29\": {\"O\": 1}, \"30\": {\"O\": 1}, \"31\": {\"O\": 1}, \"32\": {\"O\": 1}, \"33\": {\"O\": 1}, \"34\": {\"O\": 1}, \"35\": {\"O\": 1}, \"36\": {\"O\": 1}, \"37\": {\"O\": 1}, \"38\": {\"O\": 1}, \"39\": {\"O\": 1}}" n_minim_iter=4 energy=-45149.89921962079 stress="-0.03253257858514014 5.579635918521239e-13 1.1373704050088016e-13 5.579635918521239e-13 -0.03297335509234713 7.686317683559158e-13 1.1373704050088016e-13 7.686317683559158e-13 -0.032722368207124986" free_energy=-45149.89921962079 pbc="T T T"
In       2.73673047       4.57602477       9.04408009        0       0.00957424      -0.02470411      -0.00209041
In      -0.01000136       3.96173212       6.77841025        1       0.00957424       0.02470411       0.00209041
In       2.75673318       1.73010581      14.68965541        2      -0.00957424      -0.02470411       0.00209041
In       5.50346500       1.11581316       1.13283492        3      -0.00957424       0.02470411      -0.00209041
In       2.75673318       1.11581316       6.77841025        4      -0.00957424       0.02470411       0.00209041
In       5.50346500       1.73010581       9.04408009        5      -0.00957424      -0.02470411      -0.00209041
In       2.73673047       3.96173212       1.13283492        6       0.00957424       0.02470411      -0.00209041
In      -0.01000136       4.57602477      14.68965541        7       0.00957424      -0.02470411       0.00209041
In       2.73442518       4.28050387      12.94786135        8       0.00538831       0.00892575      -0.01844141
In       5.48115700       4.25725302       2.87462899        9       0.00538831      -0.00892575       0.01844141
In       2.75903847       1.43458491      10.78587416       10      -0.00538831       0.00892575       0.01844141
In       0.01230664       1.41133405       5.03661618       11      -0.00538831      -0.00892575      -0.01844141
In       2.75903847       1.41133405       2.87462899       12      -0.00538831      -0.00892575       0.01844141
In       0.01230664       1.43458491      12.94786135       13      -0.00538831       0.00892575      -0.01844141
In       2.73442518       4.25725302       5.03661618       14       0.00538831      -0.00892575      -0.01844141
In       5.48115700       4.28050387      10.78587416       15       0.00538831       0.00892575       0.01844141
O        4.71687592       5.05477666      12.63236813       16      -0.00246526       0.01136727      -0.02023336
O        1.97014410       3.48298022       3.19012221       17      -0.00246526      -0.01136727       0.02023336
O        0.77658773       2.20885770      11.10136737       18       0.00246526       0.01136727       0.02023336
O        3.52331955       0.63706126       4.72112296       19       0.00246526      -0.01136727      -0.02023336
O        0.77658773       0.63706126       3.19012221       20       0.00246526      -0.01136727       0.02023336
O        3.52331955       2.20885770      12.63236813       21       0.00246526       0.01136727      -0.02023336
O        4.71687592       3.48298022       4.72112296       22      -0.00246526      -0.01136727      -0.02023336
O        1.97014410       5.05477666      11.10136737       23      -0.00246526       0.01136727       0.02023336
O        3.88721638       3.02560030       9.88519934       24       0.00720893      -0.00884734       0.02216702
O        1.14048456       5.51215659       5.93729100       25       0.00720893       0.00884734      -0.02216702
O        1.60624727       0.17968133      13.84853617       26      -0.00720893      -0.00884734      -0.02216702
O        4.35297909       2.66623763       1.97395417       27      -0.00720893       0.00884734       0.02216702
O        1.60624727       2.66623763       5.93729100       28      -0.00720893       0.00884734      -0.02216702
O        4.35297909       0.17968133       9.88519934       29      -0.00720893      -0.00884734       0.02216702
O        3.88721638       5.51215659       1.97395417       30       0.00720893       0.00884734       0.02216702
O        1.14048456       3.02560030      13.84853617       31       0.00720893      -0.00884734      -0.02216702
O        3.54197631       3.78193269      14.99846583       32      -0.01887313       0.01607489       0.01113302
O        0.79524449       4.75582419       0.82402450       33      -0.01887313      -0.01607489      -0.01113302
O        1.95148733       0.93601373       8.73526967       34       0.01887313       0.01607489      -0.01113302
O        4.69821916       1.90990523       7.08722067       35       0.01887313      -0.01607489       0.01113302
O        1.95148733       1.90990523       0.82402450       36       0.01887313      -0.01607489      -0.01113302
O        4.69821916       0.93601373      14.99846583       37       0.01887313       0.01607489       0.01113302
O        3.54197631       4.75582419       7.08722067       38      -0.01887313      -0.01607489       0.01113302
O        0.79524449       3.78193269       8.73526967       39      -0.01887313       0.01607489      -0.01113302
40
Lattice="5.489477860608465 1.6271455881187317e-42 0.0 -1.6561530890764483e-42 5.697134861366124 0.0 0.0 0.0 15.819256972291724" Properties=species:S:1:pos:R:3:spacegroup_kinds:I:1:forces:R:3 spacegroup="P 1" unit_cell=conventional occupancy="_JSON {\"0\": {\"In\": 1}, \"1\": {\"In\": 1}, \"2\": {\"In\": 1}, \"3\": {\"In\": 1}, \"4\": {\"In\": 1}, \"5\": {\"In\": 1}, \"6\": {\"In\": 1}, \"7\": {\"In\": 1}, \"8\": {\"In\": 1}, \"9\": {\"In\": 1}, \"10\": {\"In\": 1}, \"11\": {\"In\": 1}, \"12\": {\"In\": 1}, \"13\": {\"In\": 1}, \"14\": {\"In\": 1}, \"15\": {\"In\": 1}, \"16\": {\"O\": 1}, \"17\": {\"O\": 1}, \"18\": {\"O\": 1}, \"19\": {\"O\": 1}, \"20\": {\"O\": 1}, \"21\": {\"O\": 1}, \"22\": {\"O\": 1}, \"23\": {\"O\": 1}, \"24\": {\"O\": 1}, \"25\": {\"O\": 1}, \"26\": {\"O\": 1}, \"27\": {\"O\": 1}, \"28\": {\"O\": 1}, \"29\": {\"O\": 1}, \"30\": {\"O\": 1}, \"31\": {\"O\": 1}, \"32\": {\"O\": 1}, \"33\": {\"O\": 1}, \"34\": {\"O\": 1}, \"35\": {\"O\": 1}, \"36\": {\"O\": 1}, \"37\": {\"O\": 1}, \"38\": {\"O\": 1}, \"39\": {\"O\": 1}}" n_minim_iter=5 energy=-45149.89995482944 stress="-0.03306516136696515 8.58411049793644e-14 2.305413895717074e-13 8.58411049793644e-14 -0.03196408604441106 -5.158888017055341e-13 2.305413895717074e-13 -5.158888017055341e-13 -0.032612099670027074" free_energy=-45149.89995482944 pbc="T T T"
In       2.73489711       4.57945324       9.04352765        0       0.00992369      -0.01551765      -0.01179079
In      -0.00984182       3.96624905       6.77572933        1       0.00992369       0.01551765       0.01179079
In       2.75458076       1.73088581      14.68535781        2      -0.00992369      -0.01551765       0.01179079
In       5.49931969       1.11768162       1.13389916        3      -0.00992369       0.01551765      -0.01179079
In       2.75458076       1.11768162       6.77572933        4      -0.00992369       0.01551765       0.01179079
In       5.49931969       1.73088581       9.04352765        5      -0.00992369      -0.01551765      -0.01179079
In       2.73489711       3.96624905       1.13389916        6       0.00992369       0.01551765      -0.01179079
In      -0.00984182       4.57945324      14.68535781        7       0.00992369      -0.01551765       0.01179079
In       2.73328718       4.28438977      12.94422934        8      -0.00503016       0.00241578      -0.00426351
In       5.47802611       4.26131253       2.87502763        9      -0.00503016      -0.00241578       0.00426351
In       2.75619068       1.43582234      10.78465611       10       0.00503016       0.00241578       0.00426351
In       0.01145175       1.41274510       5.03460086       11       0.00503016      -0.00241578      -0.00426351
In       2.75619068       1.41274510       2.87502763       12       0.00503016      -0.00241578       0.00426351
In       0.01145175       1.43582234      12.94422934       13       0.00503016       0.00241578      -0.00426351
In       2.73328718       4.26131253       5.03460086       14      -0.00503016      -0.00241578      -0.00426351
In       5.47802611       4.28438977      10.78465611       15      -0.00503016       0.00241578       0.00426351
O        4.71349448       5.06070778      12.62912804       16      -0.00408288       0.00973260      -0.01417490
O        1.96875555       3.48499451       3.19012894       17      -0.00408288      -0.00973260       0.01417490
O        0.77598338       2.21214035      11.09975742       18       0.00408288       0.00973260       0.01417490
O        3.52072231       0.63642708       4.71949955       19       0.00408288      -0.00973260      -0.01417490
O        0.77598338       0.63642708       3.19012894       20       0.00408288      -0.00973260       0.01417490
O        3.52072231       2.21214035      12.62912804       21       0.00408288       0.00973260      -0.01417490
O        4.71349448       3.48499451       4.71949955       22      -0.00408288      -0.00973260      -0.01417490
O        1.96875555       5.06070778      11.09975742       23      -0.00408288       0.00973260       0.01417490
O        3.88568477       3.02735571       9.88487619       24      -0.00878524       0.00092580       0.01736992
O        1.14094584       5.51834658       5.93438078       25      -0.00878524      -0.00092580      -0.01736992
O        1.60379309       0.17878828      13.84400927       26       0.00878524       0.00092580      -0.01736992
O        4.34853202       2.66977915       1.97524771       27       0.00878524      -0.00092580       0.01736992
O        1.60379309       2.66977915       5.93438078       28       0.00878524      -0.00092580      -0.01736992
O        4.34853202       0.17878828       9.88487619       29       0.00878524       0.00092580       0.01736992
O        3.88568477       5.51834658       1.97524771       30      -0.00878524      -0.00092580       0.01736992
O        1.14094584       3.02735571      13.84400927       31      -0.00878524       0.00092580      -0.01736992
O        3.53789977       3.78624866      14.99498816       32      -0.01189448       0.01150234       0.01651423
O        0.79316084       4.75945364       0.82426881       33      -0.01189448      -0.01150234      -0.01651423
O        1.95157809       0.93768123       8.73389730       34       0.01189448       0.01150234      -0.01651423
O        4.69631702       1.91088620       7.08535967       35       0.01189448      -0.01150234       0.01651423
O        1.95157809       1.91088620       0.82426881       36       0.01189448      -0.01150234      -0.01651423
O        4.69631702       0.93768123      14.99498816       37       0.01189448       0.01150234       0.01651423
O        3.53789977       4.75945364       7.08535967       38      -0.01189448      -0.01150234       0.01651423
O        0.79316084       3.78624866       8.73389730       39      -0.01189448       0.01150234      -0.01651423
40