40
Lattice="5.8499666525146985 9.64318368776116e-43 0.0 -1.1764262705715773e-42 6.250997911571779 0.0 0.0 0.0 17.089466906664853" Properties=species:S:1:pos:R:3:spacegroup_kinds:I:1:forces:R:3 spacegroup="P 1" unit_cell=conventional occupancy="_JSON {\"0\": {\"In\": 1}, \"1\": {\"In\": 1}, \"2\": {\"In\": 1}, \"3\": {\"In\": 1}, \"4\": {\"In\": 1}, \"5\": {\"In\": 1}, \"6\": {\"In\": 1}, \"7\": {\"In\": 1}, \"8\": {\"In\": 1}, \"9\": {\"In\": 1}, \"10\": {\"In\": 1}, \"11\": {\"In\": 1}, \"12\": {\"In\": 1}, \"13\": {\"In\": 1}, \"14\": {\"In\": 1}, \"15\": {\"In\": 1}, \"16\": {\"O\": 1}, \"17\": {\"O\": 1}, \"18\": {\"O\": 1}, \"19\": {\"O\": 1}, \"20\": {\"O\": 1}, \"21\": {\"O\": 1}, \"22\": {\"O\": 1}, \"23\": {\"O\": 1}, \"24\": {\"O\": 1}, \"25\": {\"O\": 1}, \"26\": {\"O\": 1}, \"27\": {\"O\": 1}, \"28\": {\"O\": 1}, \"29\": {\"O\": 1}, \"30\": {\"O\": 1}, \"31\": {\"O\": 1}, \"32\": {\"O\": 1}, \"33\": {\"O\": 1}, \"34\": {\"O\": 1}, \"35\": {\"O\": 1}, \"36\": {\"O\": 1}, \"37\": {\"O\": 1}, \"38\": {\"O\": 1}, \"39\": {\"O\": 1}}" n_minim_iter=10 energy=-45147.14098268173 stress="0.04291536639335599 1.0574791366156273e-13 -1.9088084590656633e-13 1.0574791366156273e-13 0.04296974891358889 -4.83894846411943e-14 -1.9088084590656633e-13 -4.83894846411943e-14 0.04287082861146561" free_energy=-45147.14098268173 pbc="T T T"
In       2.65937992       5.21726333       9.86097744        0       0.00423878      -0.00046144       0.00111464
In      -0.26560341       4.15923354       7.22848946        1       0.00423878       0.00046144      -0.00111464
In       3.19058673       2.09176437      15.77322292        2      -0.00423878      -0.00046144      -0.00111464
In       6.11557006       1.03373458       1.31624399        3      -0.00423878       0.00046144       0.00111464
In       3.19058673       1.03373458       7.22848946        4      -0.00423878       0.00046144      -0.00111464
In       6.11557006       2.09176437       9.86097744        5      -0.00423878      -0.00046144       0.00111464
In       2.65937992       4.15923354       1.31624399        6       0.00423878       0.00046144       0.00111464
In      -0.26560341       5.21726333      15.77322292        7       0.00423878      -0.00046144      -0.00111464
In       2.66406216       5.00576055      13.90358062        8       0.00728167       0.00001386      -0.00041974
In       5.58904549       4.37073631       3.18588628        9       0.00728167      -0.00001386       0.00041974
In       3.18590449       1.88026160      11.73061974       10      -0.00728167       0.00001386       0.00041974
In       0.26092116       1.24523736       5.35884717       11      -0.00728167      -0.00001386      -0.00041974
In       3.18590449       1.24523736       3.18588628       12      -0.00728167      -0.00001386       0.00041974
In       0.26092116       1.88026160      13.90358062       13      -0.00728167       0.00001386      -0.00041974
In       2.66406216       4.37073631       5.35884717       14       0.00728167      -0.00001386      -0.00041974
In       5.58904549       5.00576055      11.73061974       15       0.00728167       0.00001386       0.00041974
O        4.76985158       5.63534275      13.68988462       16      -0.00077000      -0.00402621      -0.00416738
O        1.84486825       3.74115412       3.39958229       17      -0.00077000       0.00402621       0.00416738
O        1.08011508       2.50984379      11.94431574       18       0.00077000      -0.00402621       0.00416738
O        4.00509840       0.61565516       5.14515116       19       0.00077000       0.00402621      -0.00416738
O        1.08011508       0.61565516       3.39958229       20       0.00077000       0.00402621       0.00416738
O        4.00509840       2.50984379      13.68988462       21       0.00077000      -0.00402621      -0.00416738
O        4.76985158       3.74115412       5.14515116       22      -0.00077000       0.00402621      -0.00416738
O        1.84486825       5.63534275      11.94431574       23      -0.00077000      -0.00402621       0.00416738
O        4.04727936       3.73013895      10.82422626       24      -0.00378900      -0.00312555      -0.00307816
O        1.12229603       5.64635792       6.26524064       25      -0.00378900       0.00312555       0.00307816
O        1.80268729       0.60463999      14.80997410       26       0.00378900      -0.00312555       0.00307816
O        4.72767062       2.52085897       2.27949281       27       0.00378900       0.00312555      -0.00307816
O        1.80268729       2.52085897       6.26524064       28       0.00378900       0.00312555       0.00307816
O        4.72767062       0.60463999      10.82422626       29       0.00378900      -0.00312555      -0.00307816
O        4.04727936       5.64635792       2.27949281       30      -0.00378900       0.00312555      -0.00307816
O        1.12229603       3.73013895      14.80997410       31      -0.00378900      -0.00312555       0.00307816
O        3.69253614       4.17067251      16.37973804       32       0.00539261      -0.00027039      -0.00402100
O        0.76755281       5.20582436       0.70972886       33       0.00539261       0.00027039       0.00402100
O        2.15743051       1.04517355       9.25446232       34      -0.00539261      -0.00027039       0.00402100
O        5.08241384       2.08032540       7.83500459       35      -0.00539261       0.00027039      -0.00402100
O        2.15743051       2.08032540       0.70972886       36      -0.00539261       0.00027039       0.00402100
O        5.08241384       1.04517355      16.37973804       37      -0.00539261      -0.00027039      -0.00402100
O        3.69253614       5.20582436       7.83500459       38       0.00539261       0.00027039      -0.00402100
O        0.76755281       4.17067251       9.25446232       39       0.00539261      -0.00027039       0.00402100
