40
Lattice="5.468137008434199 2.8808996436857724e-42 3.918702629582991e-83 -2.6565691072393505e-42 5.33883073366681 7.378258538882441e-41 -1.7684950442076385e-84 2.1564428443777462e-40 15.16293941906833" Properties=species:S:1:pos:R:3:spacegroup_kinds:I:1:forces:R:3 spacegroup="P 1" unit_cell=conventional occupancy="_JSON {\"0\": {\"In\": 1}, \"1\": {\"In\": 1}, \"2\": {\"In\": 1}, \"3\": {\"In\": 1}, \"4\": {\"In\": 1}, \"5\": {\"In\": 1}, \"6\": {\"In\": 1}, \"7\": {\"In\": 1}, \"8\": {\"In\": 1}, \"9\": {\"In\": 1}, \"10\": {\"In\": 1}, \"11\": {\"In\": 1}, \"12\": {\"In\": 1}, \"13\": {\"In\": 1}, \"14\": {\"In\": 1}, \"15\": {\"In\": 1}, \"16\": {\"O\": 1}, \"17\": {\"O\": 1}, \"18\": {\"O\": 1}, \"19\": {\"O\": 1}, \"20\": {\"O\": 1}, \"21\": {\"O\": 1}, \"22\": {\"O\": 1}, \"23\": {\"O\": 1}, \"24\": {\"O\": 1}, \"25\": {\"O\": 1}, \"26\": {\"O\": 1}, \"27\": {\"O\": 1}, \"28\": {\"O\": 1}, \"29\": {\"O\": 1}, \"30\": {\"O\": 1}, \"31\": {\"O\": 1}, \"32\": {\"O\": 1}, \"33\": {\"O\": 1}, \"34\": {\"O\": 1}, \"35\": {\"O\": 1}, \"36\": {\"O\": 1}, \"37\": {\"O\": 1}, \"38\": {\"O\": 1}, \"39\": {\"O\": 1}}" n_minim_iter=27 energy=-45146.36129855454 stress="-0.11495008731573463 1.0983552094378008e-12 2.659045772499607e-13 1.0983552094378008e-12 -0.11502590560496004 -1.782735351667814e-13 2.659045772499607e-13 -1.782735351667814e-13 -0.11546783116134768" free_energy=-45146.36129855454 pbc="T T T"
In       2.79781366       3.99758147       8.54839838        0       0.00385851       0.00050409       0.00227578
In       0.06374516       4.01066463       6.61454104        1       0.00385851      -0.00050409      -0.00227578
In       2.67032335       1.32816610      14.19601075        2      -0.00385851       0.00050409      -0.00227578
In       5.40439185       1.34124926       0.96692867        3      -0.00385851      -0.00050409       0.00227578
In       2.67032335       1.34124926       6.61454104        4      -0.00385851      -0.00050409      -0.00227578
In       5.40439185       1.32816610       8.54839838        5      -0.00385851       0.00050409       0.00227578
In       2.79781366       4.01066463       0.96692867        6       0.00385851      -0.00050409       0.00227578
In       0.06374516       3.99758147      14.19601075        7       0.00385851       0.00050409      -0.00227578
In       2.78117136       3.75686488      12.35838693        8       0.00221688      -0.00147112      -0.00330695
In       5.51523987       4.25138122       2.80455249        9       0.00221688       0.00147112       0.00330695
In       2.68696564       1.08744951      10.38602220       10      -0.00221688      -0.00147112       0.00330695
In      -0.04710286       1.58196586       4.77691722       11      -0.00221688       0.00147112      -0.00330695
In       2.68696564       1.58196586       2.80455249       12      -0.00221688       0.00147112       0.00330695
In      -0.04710286       1.08744951      12.35838693       13      -0.00221688      -0.00147112      -0.00330695
In       2.78117136       4.25138122       4.77691722       14       0.00221688       0.00147112      -0.00330695
In       5.51523987       3.75686488      10.38602220       15       0.00221688      -0.00147112       0.00330695
O        4.75421808       4.41003903      12.18586776       16       0.00004162      -0.00482748      -0.00006946
O        2.02014958       3.59820707       2.97707166       17       0.00004162       0.00482748       0.00006946
O        0.71391892       1.74062367      10.55854137       18      -0.00004162      -0.00482748       0.00006946
O        3.44798743       0.92879170       4.60439805       19      -0.00004162       0.00482748      -0.00006946
O        0.71391892       0.92879170       2.97707166       20      -0.00004162       0.00482748       0.00006946
O        3.44798743       1.74062367      12.18586776       21      -0.00004162      -0.00482748      -0.00006946
O        4.75421808       3.59820707       4.60439805       22       0.00004162       0.00482748      -0.00006946
O        2.02014958       4.41003903      10.55854137       23       0.00004162      -0.00482748       0.00006946
O        3.90360679       2.56468646       9.53410391       24      -0.00130808       0.00136642       0.00918867
O        1.16953828       5.44355964       5.62883551       25      -0.00130808      -0.00136642      -0.00918867
O        1.56453022      -0.10472891      13.21030522       26       0.00130808       0.00136642      -0.00918867
O        4.29859873       2.77414427       1.95263420       27       0.00130808      -0.00136642       0.00918867
O        1.56453022       2.77414427       5.62883551       28       0.00130808      -0.00136642      -0.00918867
O        4.29859873      -0.10472891       9.53410391       29       0.00130808       0.00136642       0.00918867
O        3.90360679       5.44355964       1.95263420       30      -0.00130808      -0.00136642       0.00918867
O        1.16953828       2.56468646      13.21030522       31      -0.00130808       0.00136642      -0.00918867
O        3.58196481       3.30107137      14.33907480       32      -0.00177673       0.00617769       0.00624538
O        0.84789631       4.70717473       0.82386462       33      -0.00177673      -0.00617769      -0.00624538
O        1.88617220       0.63165600       8.40533433       34       0.00177673       0.00617769      -0.00624538
O        4.62024070       2.03775936       6.75760509       35       0.00177673      -0.00617769       0.00624538
O        1.88617220       2.03775936       0.82386462       36       0.00177673      -0.00617769      -0.00624538
O        4.62024070       0.63165600      14.33907480       37       0.00177673       0.00617769       0.00624538
O        3.58196481       4.70717473       6.75760509       38      -0.00177673      -0.00617769       0.00624538
O        0.84789631       3.30107137       8.40533433       39      -0.00177673       0.00617769      -0.00624538
