40
Lattice="5.890312525055545 9.709690504477309e-43 0.0 -1.1845398115856584e-42 6.294109604334157 0.0 0.0 0.0 17.20732902359007" Properties=species:S:1:pos:R:3:spacegroup_kinds:I:1:forces:R:3 spacegroup="P 1" unit_cell=conventional occupancy="_JSON {\"0\": {\"In\": 1}, \"1\": {\"In\": 1}, \"2\": {\"In\": 1}, \"3\": {\"In\": 1}, \"4\": {\"In\": 1}, \"5\": {\"In\": 1}, \"6\": {\"In\": 1}, \"7\": {\"In\": 1}, \"8\": {\"In\": 1}, \"9\": {\"In\": 1}, \"10\": {\"In\": 1}, \"11\": {\"In\": 1}, \"12\": {\"In\": 1}, \"13\": {\"In\": 1}, \"14\": {\"In\": 1}, \"15\": {\"In\": 1}, \"16\": {\"O\": 1}, \"17\": {\"O\": 1}, \"18\": {\"O\": 1}, \"19\": {\"O\": 1}, \"20\": {\"O\": 1}, \"21\": {\"O\": 1}, \"22\": {\"O\": 1}, \"23\": {\"O\": 1}, \"24\": {\"O\": 1}, \"25\": {\"O\": 1}, \"26\": {\"O\": 1}, \"27\": {\"O\": 1}, \"28\": {\"O\": 1}, \"29\": {\"O\": 1}, \"30\": {\"O\": 1}, \"31\": {\"O\": 1}, \"32\": {\"O\": 1}, \"33\": {\"O\": 1}, \"34\": {\"O\": 1}, \"35\": {\"O\": 1}, \"36\": {\"O\": 1}, \"37\": {\"O\": 1}, \"38\": {\"O\": 1}, \"39\": {\"O\": 1}}" n_minim_iter=10 energy=-45147.14098268173 stress="0.04291536639335599 1.0574791366156273e-13 -1.9088084590656633e-13 1.0574791366156273e-13 0.04296974891358889 -4.83894846411943e-14 -1.9088084590656633e-13 -4.83894846411943e-14 0.04287082861146561" free_energy=-45147.14098268173 pbc="T T T"
In       2.67772105       5.25324559       9.92898633        0       0.00423878      -0.00046144       0.00111464
In      -0.26743521       4.18791882       7.27834269        1       0.00423878       0.00046144      -0.00111464
In       3.21259147       2.10619079      15.88200720        2      -0.00423878      -0.00046144      -0.00111464
In       6.15774774       1.04086401       1.32532182        3      -0.00423878       0.00046144       0.00111464
In       3.21259147       1.04086401       7.27834269        4      -0.00423878       0.00046144      -0.00111464
In       6.15774774       2.10619079       9.92898633        5      -0.00423878      -0.00046144       0.00111464
In       2.67772105       4.18791882       1.32532182        6       0.00423878       0.00046144       0.00111464
In      -0.26743521       5.25324559      15.88200720        7       0.00423878      -0.00046144      -0.00111464
In       2.68243559       5.04028413      13.99947042        8       0.00728167       0.00001386      -0.00041974
In       5.62759185       4.40088028       3.20785861        9       0.00728167      -0.00001386       0.00041974
In       3.20787694       1.89322933      11.81152312       10      -0.00728167       0.00001386       0.00041974
In       0.26272068       1.25382547       5.39580590       11      -0.00728167      -0.00001386      -0.00041974
In       3.20787694       1.25382547       3.20785861       12      -0.00728167      -0.00001386       0.00041974
In       0.26272068       1.89322933      13.99947042       13      -0.00728167       0.00001386      -0.00041974
In       2.68243559       4.40088028       5.39580590       14       0.00728167      -0.00001386      -0.00041974
In       5.62759185       5.04028413      11.81152312       15       0.00728167       0.00001386       0.00041974
O        4.80274814       5.67420841      13.78430060       16      -0.00077000      -0.00402621      -0.00416738
O        1.85759188       3.76695600       3.42302842       17      -0.00077000       0.00402621       0.00416738
O        1.08756438       2.52715361      12.02669294       18       0.00077000      -0.00402621       0.00416738
O        4.03272064       0.61990119       5.18063609       19       0.00077000       0.00402621      -0.00416738
O        1.08756438       0.61990119       3.42302842       20       0.00077000       0.00402621       0.00416738
O        4.03272064       2.52715361      13.78430060       21       0.00077000      -0.00402621      -0.00416738
O        4.80274814       3.76695600       5.18063609       22      -0.00077000       0.00402621      -0.00416738
O        1.85759188       5.67420841      12.02669294       23      -0.00077000      -0.00402621       0.00416738
O        4.07519251       3.75586486      10.89887846       24      -0.00378900      -0.00312555      -0.00307816
O        1.13003625       5.68529955       6.30845056       25      -0.00378900       0.00312555       0.00307816
O        1.81512001       0.60881005      14.91211508       26       0.00378900      -0.00312555       0.00307816
O        4.76027628       2.53824475       2.29521395       27       0.00378900       0.00312555      -0.00307816
O        1.81512001       2.53824475       6.30845056       28       0.00378900       0.00312555       0.00307816
O        4.76027628       0.60881005      10.89887846       29       0.00378900      -0.00312555      -0.00307816
O        4.07519251       5.68529955       2.29521395       30      -0.00378900       0.00312555      -0.00307816
O        1.13003625       3.75586486      14.91211508       31      -0.00378900      -0.00312555       0.00307816
O        3.71800271       4.19943668      16.49270533       32       0.00539261      -0.00027039      -0.00402100
O        0.77284645       5.24172773       0.71462370       33       0.00539261       0.00027039       0.00402100
O        2.17230982       1.05238187       9.31828821       34      -0.00539261      -0.00027039       0.00402100
O        5.11746608       2.09467293       7.88904081       35      -0.00539261       0.00027039      -0.00402100
O        2.17230982       2.09467293       0.71462370       36      -0.00539261       0.00027039       0.00402100
O        5.11746608       1.05238187      16.49270533       37      -0.00539261      -0.00027039      -0.00402100
O        3.71800271       5.24172773       7.88904081       38       0.00539261       0.00027039      -0.00402100
O        0.77284645       4.19943668       9.31828821       39       0.00539261      -0.00027039       0.00402100
