40
Lattice="5.340594315655459 2.616036355348111e-42 -2.4181166875449534e-80 -2.5272118973525873e-42 5.1592606753594135 4.687109104944814e-38 1.3150753304093049e-79 -1.3307370452529566e-37 14.647876021436021" Properties=species:S:1:pos:R:3:spacegroup_kinds:I:1:forces:R:3 spacegroup="P 1" unit_cell=conventional occupancy="_JSON {\"0\": {\"In\": 1}, \"1\": {\"In\": 1}, \"2\": {\"In\": 1}, \"3\": {\"In\": 1}, \"4\": {\"In\": 1}, \"5\": {\"In\": 1}, \"6\": {\"In\": 1}, \"7\": {\"In\": 1}, \"8\": {\"In\": 1}, \"9\": {\"In\": 1}, \"10\": {\"In\": 1}, \"11\": {\"In\": 1}, \"12\": {\"In\": 1}, \"13\": {\"In\": 1}, \"14\": {\"In\": 1}, \"15\": {\"In\": 1}, \"16\": {\"O\": 1}, \"17\": {\"O\": 1}, \"18\": {\"O\": 1}, \"19\": {\"O\": 1}, \"20\": {\"O\": 1}, \"21\": {\"O\": 1}, \"22\": {\"O\": 1}, \"23\": {\"O\": 1}, \"24\": {\"O\": 1}, \"25\": {\"O\": 1}, \"26\": {\"O\": 1}, \"27\": {\"O\": 1}, \"28\": {\"O\": 1}, \"29\": {\"O\": 1}, \"30\": {\"O\": 1}, \"31\": {\"O\": 1}, \"32\": {\"O\": 1}, \"33\": {\"O\": 1}, \"34\": {\"O\": 1}, \"35\": {\"O\": 1}, \"36\": {\"O\": 1}, \"37\": {\"O\": 1}, \"38\": {\"O\": 1}, \"39\": {\"O\": 1}}" n_minim_iter=1 energy=-45136.85429223012 stress="-0.4236076984078373 2.1918073986226728e-13 -1.524089981596765e-13 2.1918073986226728e-13 -0.4060905368184085 3.1819016982326813e-13 -1.524089981596765e-13 3.1819016982326813e-13 -0.4069165694000234" free_energy=-45136.85429223012 pbc="T T T"
In       2.73841065       3.85648803       8.26659886        0       0.04735473       0.32462584       0.23605173
In       0.06811349       3.88240298       6.38127716        1       0.04735473      -0.32462584      -0.23605172
In       2.60218367       1.27685769      13.70521517        2      -0.04735473       0.32462584      -0.23605172
In       5.27248083       1.30277264       0.94266085        3      -0.04735473      -0.32462584       0.23605172
In       2.60218367       1.30277264       6.38127716        4      -0.04735473      -0.32462584      -0.23605173
In       5.27248083       1.27685769       8.26659886        5      -0.04735473       0.32462584       0.23605172
In       2.73841065       3.88240298       0.94266085        6       0.04735473      -0.32462584       0.23605172
In       0.06811349       3.85648803      13.70521517        7       0.04735473       0.32462584      -0.23605172
In       2.72036239       3.60016927      11.95066296        8       0.02868794      -0.42025597       0.40916063
In       5.39065954       4.13872174       2.69721306        9       0.02868794       0.42025597      -0.40916063
In       2.62023193       1.02053893      10.02115107       10      -0.02868794      -0.42025597      -0.40916063
In      -0.05006523       1.55909140       4.62672495       11      -0.02868794       0.42025597       0.40916063
In       2.62023193       1.55909140       2.69721306       12      -0.02868794       0.42025597      -0.40916063
In      -0.05006523       1.02053893      11.95066296       13      -0.02868794      -0.42025597       0.40916063
In       2.72036239       4.13872174       4.62672495       14       0.02868794       0.42025597       0.40916063
In       5.39065954       3.60016927      10.02115107       15       0.02868794      -0.42025597      -0.40916063
O        4.63350165       4.24104394      11.76221318       16      -0.10679182       0.03708078      -0.12551395
O        1.96320449       3.49784708       2.88566285       17      -0.10679182      -0.03708078       0.12551395
O        0.70709267       1.66141360      10.20960086       18       0.10679182       0.03708078       0.12551395
O        3.37738983       0.91821674       4.43827516       19       0.10679182      -0.03708078      -0.12551395
O        0.70709267       0.91821674       2.88566285       20       0.10679182      -0.03708078       0.12551395
O        3.37738983       1.66141360      11.76221318       21       0.10679182       0.03708078      -0.12551395
O        4.63350165       3.49784708       4.43827516       22      -0.10679182      -0.03708078      -0.12551395
O        1.96320449       4.24104394      10.20960086       23      -0.10679182       0.03708078       0.12551395
O        3.80543937       2.46194333       9.22483384       24      -0.18050311      -0.04784500       0.08226458
O        1.13514222       5.27694768       5.42304218       25      -0.18050311       0.04784500      -0.08226458
O        1.53515494      -0.11768701      12.74698019       26       0.18050311      -0.04784500      -0.08226458
O        4.20545210       2.69731735       1.90089583       27       0.18050311       0.04784500       0.08226458
O        1.53515494       2.69731735       5.42304218       28       0.18050311       0.04784500      -0.08226458
O        4.20545210      -0.11768701       9.22483384       29       0.18050311      -0.04784500       0.08226458
O        3.80543937       5.27694768       1.90089583       30      -0.18050311       0.04784500       0.08226458
O        1.13514222       2.46194333      12.74698019       31      -0.18050311      -0.04784500      -0.08226458
O        3.51247037       3.17052867      13.86038408       32       0.07880018       0.04365854       0.00643728
O        0.84217322       4.56836234       0.78749194       33       0.07880018      -0.04365854      -0.00643728
O        1.82812394       0.59089833       8.11142995       34      -0.07880018       0.04365854      -0.00643728
O        4.49842110       1.98873201       6.53644607       35      -0.07880018      -0.04365854       0.00643728
O        1.82812394       1.98873201       0.78749194       36      -0.07880018      -0.04365854      -0.00643728
O        4.49842110       0.59089833      13.86038408       37      -0.07880018       0.04365854       0.00643728
O        3.51247037       4.56836234       6.53644607       38       0.07880018      -0.04365854       0.00643728
O        0.84217322       3.17052867       8.11142995       39       0.07880018       0.04365854      -0.00643728
40
Lattice="5.366128712626001 2.640745990244981e-42 -1.0661059236352609e-78 -2.5096077880709348e-42 5.146081882027511 -1.9029762953388656e-36 1.2148973611444655e-79 -5.682013518704121e-36 14.615508787590606" Properties=species:S:1:pos:R:3:spacegroup_kinds:I:1:forces:R:3 spacegroup="P 1" unit_cell=conventional occupancy="_JSON {\"0\": {\"In\": 1}, \"1\": {\"In\": 1}, \"2\": {\"In\": 1}, \"3\": {\"In\": 1}, \"4\": {\"In\": 1}, \"5\": {\"In\": 1}, \"6\": {\"In\": 1}, \"7\": {\"In\": 1}, \"8\": {\"In\": 1}, \"9\": {\"In\": 1}, \"10\": {\"In\": 1}, \"11\": {\"In\": 1}, \"12\": {\"In\": 1}, \"13\": {\"In\": 1}, \"14\": {\"In\": 1}, \"15\": {\"In\": 1}, \"16\": {\"O\": 1}, \"17\": {\"O\": 1}, \"18\": {\"O\": 1}, \"19\": {\"O\": 1}, \"20\": {\"O\": 1}, \"21\": {\"O\": 1}, \"22\": {\"O\": 1}, \"23\": {\"O\": 1}, \"24\": {\"O\": 1}, \"25\": {\"O\": 1}, \"26\": {\"O\": 1}, \"27\": {\"O\": 1}, \"28\": {\"O\": 1}, \"29\": {\"O\": 1}, \"30\": {\"O\": 1}, \"31\": {\"O\": 1}, \"32\": {\"O\": 1}, \"33\": {\"O\": 1}, \"34\": {\"O\": 1}, \"35\": {\"O\": 1}, \"36\": {\"O\": 1}, \"37\": {\"O\": 1}, \"38\": {\"O\": 1}, \"39\": {\"O\": 1}}" n_minim_iter=2 energy=-45136.87340067222 stress="-0.4068371949995145 8.272691342097476e-14 7.41573560860067e-14 8.272691342097476e-14 -0.4097829628228246 4.940766686867242e-13 7.41573560860067e-14 4.940766686867242e-13 -0.4078631827161008" free_energy=-45136.87340067222 pbc="T T T"
In       2.75155282       3.84697263       8.24857637        0      -0.02426798       0.24766660       0.23602121
In       0.06848847       3.87215020       6.36693242        1      -0.02426798      -0.24766660      -0.23602121
In       2.61457589       1.27393169      13.67468681        2       0.02426798       0.24766660      -0.23602121
In       5.29764025       1.29910925       0.94082197        3       0.02426798      -0.24766660       0.23602121
In       2.61457589       1.29910925       6.36693242        4       0.02426798      -0.24766660      -0.23602121
In       5.29764025       1.27393169       8.24857637        5       0.02426798       0.24766660       0.23602121
In       2.75155282       3.87215020       0.94082197        6      -0.02426798      -0.24766660       0.23602121
In       0.06848847       3.84697263      13.67468681        7      -0.02426798       0.24766660      -0.23602121
In       2.73339883       3.59053856      11.92467886        8       0.07246091      -0.36241899       0.40937789
In       5.41646319       4.12858426       2.69082993        9       0.07246091       0.36241899      -0.40937789
In       2.63272988       1.01749762       9.99858433       10      -0.07246091      -0.36241899      -0.40937789
In      -0.05033447       1.55554332       4.61692446       11      -0.07246091       0.36241899       0.40937789
In       2.63272988       1.55554332       2.69082993       12      -0.07246091       0.36241899      -0.40937789
In      -0.05033447       1.01749762      11.92467886       13      -0.07246091      -0.36241899       0.40937789
In       2.73339883       4.12858426       4.61692446       14       0.07246091       0.36241899       0.40937789
In       5.41646319       3.59053856       9.99858433       15       0.07246091      -0.36241899      -0.40937789
O        4.65554409       4.23024897      11.73609256       16      -0.18206131      -0.02689035      -0.11358861
O        1.97247973       3.48887386       2.87941623       17      -0.18206131       0.02689035       0.11358861
O        0.71058462       1.65720802      10.18717062       18       0.18206131      -0.02689035       0.11358861
O        3.39364898       0.91583292       4.42833816       19       0.18206131       0.02689035      -0.11358861
O        0.71058462       0.91583292       2.87941623       20       0.18206131       0.02689035       0.11358861
O        3.39364898       1.65720802      11.73609256       21       0.18206131      -0.02689035      -0.11358861
O        4.65554409       3.48887386       4.42833816       22      -0.18206131       0.02689035      -0.11358861
O        1.97247973       4.23024897      10.18717062       23      -0.18206131      -0.02689035       0.11358861
O        3.82344593       2.45560509       9.20453491       24      -0.16988310      -0.05379103       0.10620719
O        1.14038157       5.26351773       5.41097388       25      -0.16988310       0.05379103      -0.10620719
O        1.54268278      -0.11743585      12.71872827       26       0.16988310      -0.05379103      -0.10620719
O        4.22574714       2.69047679       1.89678052       27       0.16988310       0.05379103       0.10620719
O        1.54268278       2.69047679       5.41097388       28       0.16988310       0.05379103      -0.10620719
O        4.22574714      -0.11743585       9.20453491       29       0.16988310      -0.05379103       0.10620719
O        3.82344593       5.26351773       1.89678052       30      -0.16988310       0.05379103       0.10620719
O        1.14038157       2.45560509      12.71872827       31      -0.16988310      -0.05379103      -0.10620719
O        3.52934622       3.16247502      13.82976362       32       0.15325490       0.08753057       0.01167319
O        0.84628187       4.55664780       0.78574517       33       0.15325490      -0.08753057      -0.01167319
O        1.83678249       0.58943408       8.09349957       34      -0.15325490       0.08753057      -0.01167319
O        4.51984685       1.98360686       6.52200922       35      -0.15325490      -0.08753057       0.01167319
O        1.83678249       1.98360686       0.78574517       36      -0.15325490      -0.08753057      -0.01167319
O        4.51984685       0.58943408      13.82976362       37      -0.15325490       0.08753057       0.01167319
O        3.52934622       4.55664780       6.52200922       38       0.15325490      -0.08753057       0.01167319
O        0.84628187       3.16247502       8.09349957       39       0.15325490       0.08753057      -0.01167319
40
Lattice="5.369821330337761 2.643550098021162e-42 -1.1642682635464038e-78 -2.5212600514005958e-42 5.171723202618681 -2.0844226796595086e-36 1.1515722672406754e-79 -6.255279786885697e-36 14.533044641898451" Properties=species:S:1:pos:R:3:spacegroup_kinds:I:1:forces:R:3 spacegroup="P 1" unit_cell=conventional occupancy="_JSON {\"0\": {\"In\": 1}, \"1\": {\"In\": 1}, \"2\": {\"In\": 1}, \"3\": {\"In\": 1}, \"4\": {\"In\": 1}, \"5\": {\"In\": 1}, \"6\": {\"In\": 1}, \"7\": {\"In\": 1}, \"8\": {\"In\": 1}, \"9\": {\"In\": 1}, \"10\": {\"In\": 1}, \"11\": {\"In\": 1}, \"12\": {\"In\": 1}, \"13\": {\"In\": 1}, \"14\": {\"In\": 1}, \"15\": {\"In\": 1}, \"16\": {\"O\": 1}, \"17\": {\"O\": 1}, \"18\": {\"O\": 1}, \"19\": {\"O\": 1}, \"20\": {\"O\": 1}, \"21\": {\"O\": 1}, \"22\": {\"O\": 1}, \"23\": {\"O\": 1}, \"24\": {\"O\": 1}, \"25\": {\"O\": 1}, \"26\": {\"O\": 1}, \"27\": {\"O\": 1}, \"28\": {\"O\": 1}, \"29\": {\"O\": 1}, \"30\": {\"O\": 1}, \"31\": {\"O\": 1}, \"32\": {\"O\": 1}, \"33\": {\"O\": 1}, \"34\": {\"O\": 1}, \"35\": {\"O\": 1}, \"36\": {\"O\": 1}, \"37\": {\"O\": 1}, \"38\": {\"O\": 1}, \"39\": {\"O\": 1}}" n_minim_iter=3 energy=-45136.92762335096 stress="-0.39859895189964506 2.839543027544316e-13 2.1424305956943248e-13 2.839543027544316e-13 -0.395609451665276 -1.5296135816123692e-13 2.1424305956943248e-13 -1.5296135816123692e-13 -0.40618573719396067" free_energy=-45136.92762335096 pbc="T T T"
In       2.75317791       3.87032982       8.20585488        0      -0.05115043       0.19485743       0.21809273
In       0.06826725       3.88725498       6.32718976        1      -0.05115043      -0.19485743      -0.21809273
In       2.61664342       1.28446822      13.59371208        2       0.05115043       0.19485743      -0.21809273
In       5.30155408       1.30139338       0.93933256        3       0.05115043      -0.19485743       0.21809273
In       2.61664342       1.30139338       6.32718976        4       0.05115043      -0.19485743      -0.21809273
In       5.30155408       1.28446822       8.20585488        5       0.05115043       0.19485743       0.21809273
In       2.75317791       3.88725498       0.93933256        6      -0.05115043      -0.19485743       0.21809273
In       0.06826725       3.87032982      13.59371208        7      -0.05115043       0.19485743      -0.21809273
In       2.73639462       3.60239998      11.86402042        8      -0.00740413      -0.33391103       0.23198825
In       5.42130528       4.15518482       2.66902422        9      -0.00740413       0.33391103      -0.23198825
In       2.63342671       1.01653838       9.93554654       10       0.00740413      -0.33391103      -0.23198825
In      -0.05148395       1.56932322       4.59749810       11       0.00740413       0.33391103       0.23198825
In       2.63342671       1.56932322       2.66902422       12       0.00740413       0.33391103      -0.23198825
In      -0.05148395       1.01653838      11.86402042       13       0.00740413      -0.33391103       0.23198825
In       2.73639462       4.15518482       4.59749810       14      -0.00740413       0.33391103       0.23198825
In       5.42130528       3.60239998       9.93554654       15      -0.00740413      -0.33391103      -0.23198825
O        4.65588263       4.25100511      11.66801518       16      -0.14482599       0.01584283      -0.18170762
O        1.97097197       3.50657969       2.86502947       17      -0.14482599      -0.01584283       0.18170762
O        0.71393870       1.66514351      10.13155179       18       0.14482599       0.01584283       0.18170762
O        3.39884936       0.92071809       4.40149285       19       0.14482599      -0.01584283      -0.18170762
O        0.71393870       0.92071809       2.86502947       20       0.14482599      -0.01584283       0.18170762
O        3.39884936       1.66514351      11.66801518       21       0.14482599       0.01584283      -0.18170762
O        4.65588263       3.50657969       4.40149285       22      -0.14482599      -0.01584283      -0.18170762
O        1.97097197       4.25100511      10.13155179       23      -0.14482599       0.01584283       0.18170762
O        3.82325445       2.46697246       9.15427565       24      -0.17594109      -0.01087168       0.10287424
O        1.13834379       5.29061235       5.37876900       25      -0.17594109       0.01087168      -0.10287424
O        1.54656688      -0.11888914      12.64529132       26       0.17594109      -0.01087168      -0.10287424
O        4.23147754       2.70475074       1.88775332       27       0.17594109       0.01087168       0.10287424
O        1.54656688       2.70475074       5.37876900       28       0.17594109       0.01087168      -0.10287424
O        4.23147754      -0.11888914       9.15427565       29       0.17594109      -0.01087168       0.10287424
O        3.82325445       5.29061235       1.88775332       30      -0.17594109       0.01087168       0.10287424
O        1.13834379       2.46697246      12.64529132       31      -0.17594109      -0.01087168      -0.10287424
O        3.53416620       3.17958246      13.75191218       32       0.16873171       0.02092250       0.07472128
O        0.84925554       4.57800234       0.78113246       33       0.16873171      -0.02092250      -0.07472128
O        1.83565513       0.59372086       8.04765479       34      -0.16873171       0.02092250      -0.07472128
O        4.52056579       1.99214074       6.48538986       35      -0.16873171      -0.02092250       0.07472128
O        1.83565513       1.99214074       0.78113246       36      -0.16873171      -0.02092250      -0.07472128
O        4.52056579       0.59372086      13.75191218       37      -0.16873171       0.02092250       0.07472128
O        3.53416620       4.57800234       6.48538986       38       0.16873171      -0.02092250       0.07472128
O        0.84925554       3.17958246       8.04765479       39       0.16873171       0.02092250      -0.07472128
40
Lattice="5.366354846159958 2.6417066784471832e-42 -1.1960511535346127e-78 -2.5139230282727394e-42 5.156513617550232 -2.1527516517442118e-36 1.1755353830661002e-79 -6.409645774391288e-36 14.585326666953238" Properties=species:S:1:pos:R:3:spacegroup_kinds:I:1:forces:R:3 spacegroup="P 1" unit_cell=conventional occupancy="_JSON {\"0\": {\"In\": 1}, \"1\": {\"In\": 1}, \"2\": {\"In\": 1}, \"3\": {\"In\": 1}, \"4\": {\"In\": 1}, \"5\": {\"In\": 1}, \"6\": {\"In\": 1}, \"7\": {\"In\": 1}, \"8\": {\"In\": 1}, \"9\": {\"In\": 1}, \"10\": {\"In\": 1}, \"11\": {\"In\": 1}, \"12\": {\"In\": 1}, \"13\": {\"In\": 1}, \"14\": {\"In\": 1}, \"15\": {\"In\": 1}, \"16\": {\"O\": 1}, \"17\": {\"O\": 1}, \"18\": {\"O\": 1}, \"19\": {\"O\": 1}, \"20\": {\"O\": 1}, \"21\": {\"O\": 1}, \"22\": {\"O\": 1}, \"23\": {\"O\": 1}, \"24\": {\"O\": 1}, \"25\": {\"O\": 1}, \"26\": {\"O\": 1}, \"27\": {\"O\": 1}, \"28\": {\"O\": 1}, \"29\": {\"O\": 1}, \"30\": {\"O\": 1}, \"31\": {\"O\": 1}, \"32\": {\"O\": 1}, \"33\": {\"O\": 1}, \"34\": {\"O\": 1}, \"35\": {\"O\": 1}, \"36\": {\"O\": 1}, \"37\": {\"O\": 1}, \"38\": {\"O\": 1}, \"39\": {\"O\": 1}}" n_minim_iter=4 energy=-45136.98654593891 stress="-0.38794466635416586 -3.9298763632940935e-13 3.0701588297894847e-13 -3.9298763632940935e-13 -0.3943203016661755 -6.535563149938663e-14 3.0701588297894847e-13 -6.535563149938663e-14 -0.38551285022681014" free_energy=-45136.98654593891 pbc="T T T"
In       2.75075738       3.86617914       8.24217738        0       0.08343863       0.08363028       0.07807034
In       0.06757996       3.86859129       6.34314929        1       0.08343863      -0.08363028      -0.07807034
In       2.61559746       1.28792233      13.63581262        2      -0.08343863       0.08363028      -0.07807034
In       5.29877489       1.29033448       0.94951405        3      -0.08343863      -0.08363028       0.07807034
In       2.61559746       1.29033448       6.34314929        4      -0.08343863      -0.08363028      -0.07807034
In       5.29877489       1.28792233       8.24217738        5      -0.08343863       0.08363028       0.07807034
In       2.75075738       3.86859129       0.94951405        6       0.08343863      -0.08363028       0.07807034
In       0.06757996       3.86617914      13.63581262        7       0.08343863       0.08363028      -0.07807034
In       2.73623111       3.58113693      11.91775381        8      -0.17161184      -0.01712834      -0.22264990
In       5.41940853       4.15363350       2.66757286        9      -0.17161184       0.01712834       0.22264990
In       2.63012374       1.00288012       9.96023619       10       0.17161184      -0.01712834       0.22264990
In      -0.05305368       1.57537669       4.62509048       11       0.17161184       0.01712834      -0.22264990
In       2.63012374       1.57537669       2.66757286       12       0.17161184       0.01712834       0.22264990
In      -0.05305368       1.00288012      11.91775381       13       0.17161184      -0.01712834      -0.22264990
In       2.73623111       4.15363350       4.62509048       14      -0.17161184       0.01712834      -0.22264990
In       5.41940853       3.58113693       9.96023619       15      -0.17161184      -0.01712834       0.22264990
O        4.64789348       4.23812735      11.70629022       16      -0.03470167      -0.14285438      -0.36913896
O        1.96471605       3.49664308       2.87903644       17      -0.03470167       0.14285438       0.36913896
O        0.71846137       1.65987054      10.17169978       18       0.03470167      -0.14285438       0.36913896
O        3.40163879       0.91838627       4.41362689       19       0.03470167       0.14285438      -0.36913896
O        0.71846137       0.91838627       2.87903644       20       0.03470167       0.14285438       0.36913896
O        3.40163879       1.65987054      11.70629022       21       0.03470167      -0.14285438      -0.36913896
O        4.64789348       3.49664308       4.41362689       22      -0.03470167       0.14285438      -0.36913896
O        1.96471605       4.23812735      10.17169978       23      -0.03470167      -0.14285438       0.36913896
O        3.81567846       2.45837739       9.19022081       24      -0.14350219      -0.01640452       0.07974828
O        1.13250104       5.27639304       5.39510586       25      -0.14350219       0.01640452      -0.07974828
O        1.55067638      -0.11987942      12.68776919       26       0.14350219      -0.01640452      -0.07974828
O        4.23385381       2.69813623       1.89755748       27       0.14350219       0.01640452       0.07974828
O        1.55067638       2.69813623       5.39510586       28       0.14350219       0.01640452      -0.07974828
O        4.23385381      -0.11987942       9.19022081       29       0.14350219      -0.01640452       0.07974828
O        3.81567846       5.27639304       1.89755748       30      -0.14350219       0.01640452       0.07974828
O        1.13250104       2.45837739      12.68776919       31      -0.14350219      -0.01640452      -0.07974828
O        3.53628983       3.17232544      13.80203023       32       0.09139866      -0.00625053       0.23173298
O        0.85311241       4.56244498       0.78329644       33       0.09139866       0.00625053      -0.23173298
O        1.83006502       0.59406864       8.07595977       34      -0.09139866      -0.00625053      -0.23173298
O        4.51324244       1.98418817       6.50936690       35      -0.09139866       0.00625053       0.23173298
O        1.83006502       1.98418817       0.78329644       36      -0.09139866       0.00625053      -0.23173298
O        4.51324244       0.59406864      13.80203023       37      -0.09139866      -0.00625053       0.23173298
O        3.53628983       4.56244498       6.50936690       38       0.09139866       0.00625053       0.23173298
O        0.85311241       3.17232544       8.07595977       39       0.09139866      -0.00625053      -0.23173298
40
Lattice="5.364987059291239 2.641922732590021e-42 -1.2696952758521057e-78 -2.5244953746413495e-42 5.1797206428513975 -2.2845267243405482e-36 1.123843937873984e-79 -6.838112982549116e-36 14.523680942432692" Properties=species:S:1:pos:R:3:spacegroup_kinds:I:1:forces:R:3 spacegroup="P 1" unit_cell=conventional occupancy="_JSON {\"0\": {\"In\": 1}, \"1\": {\"In\": 1}, \"2\": {\"In\": 1}, \"3\": {\"In\": 1}, \"4\": {\"In\": 1}, \"5\": {\"In\": 1}, \"6\": {\"In\": 1}, \"7\": {\"In\": 1}, \"8\": {\"In\": 1}, \"9\": {\"In\": 1}, \"10\": {\"In\": 1}, \"11\": {\"In\": 1}, \"12\": {\"In\": 1}, \"13\": {\"In\": 1}, \"14\": {\"In\": 1}, \"15\": {\"In\": 1}, \"16\": {\"O\": 1}, \"17\": {\"O\": 1}, \"18\": {\"O\": 1}, \"19\": {\"O\": 1}, \"20\": {\"O\": 1}, \"21\": {\"O\": 1}, \"22\": {\"O\": 1}, \"23\": {\"O\": 1}, \"24\": {\"O\": 1}, \"25\": {\"O\": 1}, \"26\": {\"O\": 1}, \"27\": {\"O\": 1}, \"28\": {\"O\": 1}, \"29\": {\"O\": 1}, \"30\": {\"O\": 1}, \"31\": {\"O\": 1}, \"32\": {\"O\": 1}, \"33\": {\"O\": 1}, \"34\": {\"O\": 1}, \"35\": {\"O\": 1}, \"36\": {\"O\": 1}, \"37\": {\"O\": 1}, \"38\": {\"O\": 1}, \"39\": {\"O\": 1}}" n_minim_iter=5 energy=-45137.03202150436 stress="-0.37774439698428036 4.369805797206324e-13 -8.002810666036185e-14 4.369805797206324e-13 -0.3789400265298859 2.365432192340293e-13 -8.002810666036185e-14 2.365432192340293e-13 -0.3809956696718832" free_energy=-45137.03202150436 pbc="T T T"
In       2.75069274       3.89039779       8.21377177        0       0.05105881      -0.02624567       0.01648527
In       0.06819921       3.87918318       6.30990917        1       0.05105881       0.02624567      -0.01648527
In       2.61429432       1.30053747      13.57174964        2      -0.05105881      -0.02624567      -0.01648527
In       5.29678785       1.28932285       0.95193130        3      -0.05105881       0.02624567       0.01648527
In       2.61429432       1.28932285       6.30990917        4      -0.05105881       0.02624567      -0.01648527
In       5.29678785       1.30053747       8.21377177        5      -0.05105881      -0.02624567       0.01648527
In       2.75069274       3.87918318       0.95193130        6       0.05105881       0.02624567       0.01648527
In       0.06819921       3.89039779      13.57174964        7       0.05105881      -0.02624567      -0.01648527
In       2.73365110       3.58848588      11.87176784        8      -0.09786695      -0.01719550      -0.22939549
In       5.41614463       4.18109508       2.65191310        9      -0.09786695       0.01719550       0.22939549
In       2.63133596       0.99862556       9.91375357       10       0.09786695      -0.01719550       0.22939549
In      -0.05115757       1.59123476       4.60992737       11       0.09786695       0.01719550      -0.22939549
In       2.63133596       1.59123476       2.65191310       12       0.09786695       0.01719550       0.22939549
In      -0.05115757       0.99862556      11.87176784       13       0.09786695      -0.01719550      -0.22939549
In       2.73365110       4.18109508       4.60992737       14      -0.09786695       0.01719550      -0.22939549
In       5.41614463       3.58848588       9.91375357       15      -0.09786695      -0.01719550       0.22939549
O        4.64259055       4.25522347      11.64805377       16      -0.05201422      -0.04553152      -0.21035524
O        1.96009702       3.51435749       2.87562718       17      -0.05201422       0.04553152       0.21035524
O        0.72239651       1.66536315      10.13746765       18       0.05201422      -0.04553152       0.21035524
O        3.40489004       0.92449717       4.38621330       19       0.05201422       0.04553152      -0.21035524
O        0.72239651       0.92449717       2.87562718       20       0.05201422       0.04553152       0.21035524
O        3.40489004       1.66536315      11.64805377       21       0.05201422      -0.04553152      -0.21035524
O        4.64259055       3.51435749       4.38621330       22      -0.05201422       0.04553152      -0.21035524
O        1.96009702       4.25522347      10.13746765       23      -0.05201422      -0.04553152       0.21035524
O        3.80843316       2.46843577       9.15486787       24      -0.08193195       0.04742874       0.06105118
O        1.12593963       5.30114519       5.36881307       25      -0.08193195      -0.04742874      -0.06105118
O        1.55655390      -0.12142455      12.63065355       26       0.08193195       0.04742874      -0.06105118
O        4.23904743       2.71128487       1.89302740       27       0.08193195      -0.04742874       0.06105118
O        1.55655390       2.71128487       5.36881307       28       0.08193195      -0.04742874      -0.06105118
O        4.23904743      -0.12142455       9.15486787       29       0.08193195       0.04742874       0.06105118
O        3.80843316       5.30114519       1.89302740       30      -0.08193195      -0.04742874       0.06105118
O        1.12593963       2.46843577      12.63065355       31      -0.08193195       0.04742874      -0.06105118
O        3.54025596       3.18765362      13.74797553       32       0.05651137      -0.10778197       0.13438676
O        0.85776243       4.58192734       0.77570541       33       0.05651137       0.10778197      -0.13438676
O        1.82473110       0.59779330       8.03754588       34      -0.05651137      -0.10778197      -0.13438676
O        4.50722463       1.99206702       6.48613506       35      -0.05651137       0.10778197       0.13438676
O        1.82473110       1.99206702       0.77570541       36      -0.05651137       0.10778197      -0.13438676
O        4.50722463       0.59779330      13.74797553       37      -0.05651137      -0.10778197       0.13438676
O        3.54025596       4.58192734       6.48613506       38       0.05651137       0.10778197       0.13438676
O        0.85776243       3.18765362       8.03754588       39       0.05651137      -0.10778197      -0.13438676
40