40
Lattice="5.868631534925903 1.1234186125411583e-42 0.0 -1.4517644403342847e-42 6.305867089205744 0.0 0.0 0.0 17.238697410738215" Properties=species:S:1:pos:R:3:spacegroup_kinds:I:1:forces:R:3 spacegroup="P 1" unit_cell=conventional occupancy="_JSON {\"0\": {\"In\": 1}, \"1\": {\"In\": 1}, \"2\": {\"In\": 1}, \"3\": {\"In\": 1}, \"4\": {\"In\": 1}, \"5\": {\"In\": 1}, \"6\": {\"In\": 1}, \"7\": {\"In\": 1}, \"8\": {\"In\": 1}, \"9\": {\"In\": 1}, \"10\": {\"In\": 1}, \"11\": {\"In\": 1}, \"12\": {\"In\": 1}, \"13\": {\"In\": 1}, \"14\": {\"In\": 1}, \"15\": {\"In\": 1}, \"16\": {\"O\": 1}, \"17\": {\"O\": 1}, \"18\": {\"O\": 1}, \"19\": {\"O\": 1}, \"20\": {\"O\": 1}, \"21\": {\"O\": 1}, \"22\": {\"O\": 1}, \"23\": {\"O\": 1}, \"24\": {\"O\": 1}, \"25\": {\"O\": 1}, \"26\": {\"O\": 1}, \"27\": {\"O\": 1}, \"28\": {\"O\": 1}, \"29\": {\"O\": 1}, \"30\": {\"O\": 1}, \"31\": {\"O\": 1}, \"32\": {\"O\": 1}, \"33\": {\"O\": 1}, \"34\": {\"O\": 1}, \"35\": {\"O\": 1}, \"36\": {\"O\": 1}, \"37\": {\"O\": 1}, \"38\": {\"O\": 1}, \"39\": {\"O\": 1}}" n_minim_iter=9 energy=-45146.51166350488 stress="0.05408800428074969 2.689416157793405e-13 4.764518587340936e-13 2.689416157793405e-13 0.0537772997574382 6.121000666085929e-13 4.764518587340936e-13 6.121000666085929e-13 0.05396570630780438" free_energy=-45146.51166350488 pbc="T T T"
In       2.67906865       5.27293043       9.94710586        0       0.00662128      -0.00276360      -0.00044509
In      -0.25524712       4.18587020       7.29159155        1       0.00662128       0.00276360       0.00044509
In       3.18956289       2.11999689      15.91094026        2      -0.00662128      -0.00276360       0.00044509
In       6.12387866       1.03293666       1.32775715        3      -0.00662128       0.00276360      -0.00044509
In       3.18956289       1.03293666       7.29159155        4      -0.00662128       0.00276360       0.00044509
In       6.12387866       2.11999689       9.94710586        5      -0.00662128      -0.00276360      -0.00044509
In       2.67906865       4.18587020       1.32775715        6       0.00662128       0.00276360      -0.00044509
In      -0.25524712       5.27293043      15.91094026        7       0.00662128      -0.00276360       0.00044509
In       2.68219280       5.05559883      14.01962125        8       0.00133087      -0.00220569       0.00230725
In       5.61650856       4.40320180       3.21907616        9       0.00133087       0.00220569      -0.00230725
In       3.18643874       1.90266529      11.83842487       10      -0.00133087      -0.00220569      -0.00230725
In       0.25212297       1.25026826       5.40027255       11      -0.00133087       0.00220569       0.00230725
In       3.18643874       1.25026826       3.21907616       12      -0.00133087       0.00220569      -0.00230725
In       0.25212297       1.90266529      14.01962125       13      -0.00133087      -0.00220569       0.00230725
In       2.68219280       4.40320180       5.40027255       14       0.00133087       0.00220569       0.00230725
In       5.61650856       5.05559883      11.83842487       15       0.00133087      -0.00220569      -0.00230725
O        4.79573170       5.66254744      13.81195628       16       0.00174520       0.00150118      -0.00310084
O        1.86141593       3.79625320       3.42674113       17       0.00174520      -0.00150118       0.00310084
O        1.07289983       2.50961389      12.04608983       18      -0.00174520       0.00150118       0.00310084
O        4.00721560       0.64331965       5.19260758       19      -0.00174520      -0.00150118      -0.00310084
O        1.07289983       0.64331965       3.42674113       20      -0.00174520      -0.00150118       0.00310084
O        4.00721560       2.50961389      13.81195628       21      -0.00174520       0.00150118      -0.00310084
O        4.79573170       3.79625320       5.19260758       22       0.00174520      -0.00150118      -0.00310084
O        1.86141593       5.66254744      12.04608983       23       0.00174520       0.00150118       0.00310084
O        4.06287692       3.78298411      10.94124155       24       0.00033917      -0.00356488      -0.00468185
O        1.12856115       5.67581653       6.29745586       25       0.00033917       0.00356488       0.00468185
O        1.80575461       0.63005056      14.91680456       26      -0.00033917      -0.00356488       0.00468185
O        4.74007038       2.52288298       2.32189285       27      -0.00033917       0.00356488      -0.00468185
O        1.80575461       2.52288298       6.29745586       28      -0.00033917       0.00356488       0.00468185
O        4.74007038       0.63005056      10.94124155       29      -0.00033917      -0.00356488      -0.00468185
O        4.06287692       5.67581653       2.32189285       30       0.00033917       0.00356488      -0.00468185
O        1.12856115       3.78298411      14.91680456       31       0.00033917      -0.00356488       0.00468185
O        3.70569779       4.19979242      16.53260754       32       0.00341079       0.00059576      -0.00272142
O        0.77138203       5.25900822       0.70608987       33       0.00341079      -0.00059576       0.00272142
O        2.16293374       1.04685887       9.32543858       34      -0.00341079       0.00059576       0.00272142
O        5.09724951       2.10607467       7.91325883       35      -0.00341079      -0.00059576      -0.00272142
O        2.16293374       2.10607467       0.70608987       36      -0.00341079      -0.00059576       0.00272142
O        5.09724951       1.04685887      16.53260754       37      -0.00341079       0.00059576      -0.00272142
O        3.70569779       5.25900822       7.91325883       38       0.00341079      -0.00059576      -0.00272142
O        0.77138203       4.19979242       9.32543858       39       0.00341079       0.00059576       0.00272142
