40
Lattice="5.413993481798398 2.8523740112167285e-42 3.879901045080746e-83 -2.630264715086081e-42 5.285967551272795 7.305201675619938e-41 -1.7509840421271042e-84 2.1350905226632284e-40 15.012801444645401" Properties=species:S:1:pos:R:3:spacegroup_kinds:I:1:forces:R:3 spacegroup="P 1" unit_cell=conventional occupancy="_JSON {\"0\": {\"In\": 1}, \"1\": {\"In\": 1}, \"2\": {\"In\": 1}, \"3\": {\"In\": 1}, \"4\": {\"In\": 1}, \"5\": {\"In\": 1}, \"6\": {\"In\": 1}, \"7\": {\"In\": 1}, \"8\": {\"In\": 1}, \"9\": {\"In\": 1}, \"10\": {\"In\": 1}, \"11\": {\"In\": 1}, \"12\": {\"In\": 1}, \"13\": {\"In\": 1}, \"14\": {\"In\": 1}, \"15\": {\"In\": 1}, \"16\": {\"O\": 1}, \"17\": {\"O\": 1}, \"18\": {\"O\": 1}, \"19\": {\"O\": 1}, \"20\": {\"O\": 1}, \"21\": {\"O\": 1}, \"22\": {\"O\": 1}, \"23\": {\"O\": 1}, \"24\": {\"O\": 1}, \"25\": {\"O\": 1}, \"26\": {\"O\": 1}, \"27\": {\"O\": 1}, \"28\": {\"O\": 1}, \"29\": {\"O\": 1}, \"30\": {\"O\": 1}, \"31\": {\"O\": 1}, \"32\": {\"O\": 1}, \"33\": {\"O\": 1}, \"34\": {\"O\": 1}, \"35\": {\"O\": 1}, \"36\": {\"O\": 1}, \"37\": {\"O\": 1}, \"38\": {\"O\": 1}, \"39\": {\"O\": 1}}" n_minim_iter=27 energy=-45146.36129855454 stress="-0.11495008731573463 1.0983552094378008e-12 2.659045772499607e-13 1.0983552094378008e-12 -0.11502590560496004 -1.782735351667814e-13 2.659045772499607e-13 -1.782735351667814e-13 -0.11546783116134768" free_energy=-45146.36129855454 pbc="T T T"
In       2.77011072       3.95799886       8.46375521        0       0.00385851       0.00050409       0.00227578
In       0.06311398       3.97095247       6.54904624        1       0.00385851      -0.00050409      -0.00227578
In       2.64388276       1.31501508      14.05544696        2      -0.00385851       0.00050409      -0.00227578
In       5.35087950       1.32796870       0.95735449        3      -0.00385851      -0.00050409       0.00227578
In       2.64388276       1.32796870       6.54904624        4      -0.00385851      -0.00050409      -0.00227578
In       5.35087950       1.31501508       8.46375521        5      -0.00385851       0.00050409       0.00227578
In       2.77011072       3.97095247       0.95735449        6       0.00385851      -0.00050409       0.00227578
In       0.06311398       3.95799886      14.05544696        7       0.00385851       0.00050409      -0.00227578
In       2.75363321       3.71966575      12.23601862        8       0.00221688      -0.00147112      -0.00330695
In       5.46062995       4.20928557       2.77678282        9       0.00221688       0.00147112       0.00330695
In       2.66036028       1.07668198      10.28318355       10      -0.00221688      -0.00147112       0.00330695
In      -0.04663646       1.56630180       4.72961790       11      -0.00221688       0.00147112      -0.00330695
In       2.66036028       1.56630180       2.77678282       12      -0.00221688       0.00147112       0.00330695
In      -0.04663646       1.07668198      12.23601862       13      -0.00221688      -0.00147112      -0.00330695
In       2.75363321       4.20928557       4.72961790       14       0.00221688       0.00147112      -0.00330695
In       5.46062995       3.71966575      10.28318355       15       0.00221688      -0.00147112       0.00330695
O        4.70714353       4.36637241      12.06520768       16       0.00004162      -0.00482748      -0.00006946
O        2.00014678       3.56257891       2.94759377       17       0.00004162       0.00482748       0.00006946
O        0.70684996       1.72338864      10.45399449       18      -0.00004162      -0.00482748       0.00006946
O        3.41384670       0.91959514       4.55880695       19      -0.00004162       0.00482748      -0.00006946
O        0.70684996       0.91959514       2.94759377       20      -0.00004162       0.00482748       0.00006946
O        3.41384670       1.72338864      12.06520768       21      -0.00004162      -0.00482748      -0.00006946
O        4.70714353       3.56257891       4.55880695       22       0.00004162       0.00482748      -0.00006946
O        2.00014678       4.36637241      10.45399449       23       0.00004162      -0.00482748       0.00006946
O        3.86495467       2.53929186       9.43970064       24      -0.00130808       0.00136642       0.00918867
O        1.15795793       5.38965947       5.57310081       25      -0.00130808      -0.00136642      -0.00918867
O        1.54903881      -0.10369192      13.07950153       26       0.00130808       0.00136642      -0.00918867
O        4.25603555       2.74667569       1.93329992       27       0.00130808      -0.00136642       0.00918867
O        1.54903881       2.74667569       5.57310081       28       0.00130808      -0.00136642      -0.00918867
O        4.25603555      -0.10369192       9.43970064       29       0.00130808       0.00136642       0.00918867
O        3.86495467       5.38965947       1.93329992       30      -0.00130808      -0.00136642       0.00918867
O        1.15795793       2.53929186      13.07950153       31      -0.00130808       0.00136642      -0.00918867
O        3.54649748       3.26838535      14.19709444       32      -0.00177673       0.00617769       0.00624538
O        0.83950074       4.66056598       0.81570701       33      -0.00177673      -0.00617769      -0.00624538
O        1.86749600       0.62540157       8.32210773       34       0.00177673       0.00617769      -0.00624538
O        4.57449274       2.01758220       6.69069371       35       0.00177673      -0.00617769       0.00624538
O        1.86749600       2.01758220       0.81570701       36       0.00177673      -0.00617769      -0.00624538
O        4.57449274       0.62540157      14.19709444       37       0.00177673       0.00617769       0.00624538
O        3.54649748       4.66056598       6.69069371       38      -0.00177673      -0.00617769       0.00624538
O        0.83950074       3.26838535       8.32210773       39      -0.00177673       0.00617769      -0.00624538
