40
Lattice="5.842534554337184 1.0307092713134812e-42 0.0 -1.1772660955808397e-42 6.196209424717033 0.0 0.0 0.0 16.90287199662919" Properties=species:S:1:pos:R:3:spacegroup_kinds:I:1:forces:R:3 spacegroup="P 1" unit_cell=conventional occupancy="_JSON {\"0\": {\"In\": 1}, \"1\": {\"In\": 1}, \"2\": {\"In\": 1}, \"3\": {\"In\": 1}, \"4\": {\"In\": 1}, \"5\": {\"In\": 1}, \"6\": {\"In\": 1}, \"7\": {\"In\": 1}, \"8\": {\"In\": 1}, \"9\": {\"In\": 1}, \"10\": {\"In\": 1}, \"11\": {\"In\": 1}, \"12\": {\"In\": 1}, \"13\": {\"In\": 1}, \"14\": {\"In\": 1}, \"15\": {\"In\": 1}, \"16\": {\"O\": 1}, \"17\": {\"O\": 1}, \"18\": {\"O\": 1}, \"19\": {\"O\": 1}, \"20\": {\"O\": 1}, \"21\": {\"O\": 1}, \"22\": {\"O\": 1}, \"23\": {\"O\": 1}, \"24\": {\"O\": 1}, \"25\": {\"O\": 1}, \"26\": {\"O\": 1}, \"27\": {\"O\": 1}, \"28\": {\"O\": 1}, \"29\": {\"O\": 1}, \"30\": {\"O\": 1}, \"31\": {\"O\": 1}, \"32\": {\"O\": 1}, \"33\": {\"O\": 1}, \"34\": {\"O\": 1}, \"35\": {\"O\": 1}, \"36\": {\"O\": 1}, \"37\": {\"O\": 1}, \"38\": {\"O\": 1}, \"39\": {\"O\": 1}}" n_minim_iter=11 energy=-45147.64497748842 stress="0.035225937078502356 -4.467672241824588e-13 -9.687859251071472e-14 -4.467672241824588e-13 0.03523917501585876 -4.692002765972829e-13 -9.687859251071472e-14 -4.692002765972829e-13 0.035222911031182635" free_energy=-45147.64497748842 pbc="T T T"
In       2.64468426       5.16114663       9.75087408        0       0.00479736       0.00221586       0.00528961
In      -0.27658302       4.13316751       7.15199792        1       0.00479736      -0.00221586      -0.00528961
In       3.19785030       2.06304192      15.60343392        2      -0.00479736       0.00221586      -0.00528961
In       6.11911758       1.03506280       1.29943808        3      -0.00479736      -0.00221586       0.00528961
In       3.19785030       1.03506280       7.15199792        4      -0.00479736      -0.00221586      -0.00528961
In       6.11911758       2.06304192       9.75087408        5      -0.00479736       0.00221586       0.00528961
In       2.64468426       4.13316751       1.29943808        6       0.00479736      -0.00221586       0.00528961
In      -0.27658302       5.16114663      15.60343392        7       0.00479736       0.00221586      -0.00528961
In       2.65129289       4.95418893      13.75794275        8       0.00671192      -0.00314262       0.00055746
In       5.57256017       4.34012520       3.14492925        9       0.00671192       0.00314262      -0.00055746
In       3.19124166       1.85608422      11.59636525       10      -0.00671192      -0.00314262      -0.00055746
In       0.26997439       1.24202049       5.30650675       11      -0.00671192       0.00314262       0.00055746
In       3.19124166       1.24202049       3.14492925       12      -0.00671192       0.00314262      -0.00055746
In       0.26997439       1.85608422      13.75794275       13      -0.00671192      -0.00314262       0.00055746
In       2.65129289       4.34012520       5.30650675       14       0.00671192       0.00314262       0.00055746
In       5.57256017       4.95418893      11.59636525       15       0.00671192      -0.00314262      -0.00055746
O        4.75110374       5.61008070      13.53774645       16       0.00138818      -0.00185502      -0.00344910
O        1.82983647       3.68423344       3.36512555       17       0.00138818       0.00185502       0.00344910
O        1.09143081       2.51197599      11.81656154       18      -0.00138818      -0.00185502       0.00344910
O        4.01269809       0.58612872       5.08631045       19      -0.00138818       0.00185502      -0.00344910
O        1.09143081       0.58612872       3.36512555       20      -0.00138818       0.00185502       0.00344910
O        4.01269809       2.51197599      13.53774645       21      -0.00138818      -0.00185502      -0.00344910
O        4.75110374       3.68423344       5.08631045       22       0.00138818       0.00185502      -0.00344910
O        1.82983647       5.61008070      11.81656154       23       0.00138818      -0.00185502       0.00344910
O        4.04033271       3.67861765      10.67694596       24      -0.00138110       0.00156060      -0.00071771
O        1.11906544       5.61569649       6.22592603       25      -0.00138110      -0.00156060       0.00071771
O        1.80220184       0.58051294      14.67736203       26       0.00138110       0.00156060       0.00071771
O        4.72346912       2.51759177       2.22550997       27       0.00138110      -0.00156060      -0.00071771
O        1.80220184       2.51759177       6.22592603       28       0.00138110      -0.00156060       0.00071771
O        4.72346912       0.58051294      10.67694596       29       0.00138110       0.00156060      -0.00071771
O        4.04033271       5.61569649       2.22550997       30      -0.00138110      -0.00156060      -0.00071771
O        1.11906544       3.67861765      14.67736203       31      -0.00138110       0.00156060       0.00071771
O        3.68550031       4.14046303      16.18711299       32       0.00355268       0.00124807      -0.00389284
O        0.76423303       5.15385111       0.71575901       33       0.00355268      -0.00124807       0.00389284
O        2.15703424       1.04235831       9.16719501       34      -0.00355268       0.00124807       0.00389284
O        5.07830152       2.05574640       7.73567699       35      -0.00355268      -0.00124807      -0.00389284
O        2.15703424       2.05574640       0.71575901       36      -0.00355268      -0.00124807       0.00389284
O        5.07830152       1.04235831      16.18711299       37      -0.00355268       0.00124807      -0.00389284
O        3.68550031       5.15385111       7.73567699       38       0.00355268      -0.00124807      -0.00389284
O        0.76423303       4.14046303       9.16719501       39       0.00355268       0.00124807       0.00389284
