20
Lattice="5.430314834432488 -2.482250803319411e-59 -1.1538259130482002e-42 4.306569129998314e-59 5.540069701678567 8.349772401323462e-17 1.632436136095636e-42 -1.1579247315954826e-16 7.682824649591197" Properties=species:S:1:pos:R:3:spacegroup_kinds:I:1:forces:R:3 spacegroup="P 1" unit_cell=conventional occupancy="_JSON {\"0\": {\"In\": 1}, \"1\": {\"In\": 1}, \"2\": {\"In\": 1}, \"3\": {\"In\": 1}, \"4\": {\"In\": 1}, \"5\": {\"In\": 1}, \"6\": {\"In\": 1}, \"7\": {\"In\": 1}, \"8\": {\"O\": 1}, \"9\": {\"O\": 1}, \"10\": {\"O\": 1}, \"11\": {\"O\": 1}, \"12\": {\"O\": 1}, \"13\": {\"O\": 1}, \"14\": {\"O\": 1}, \"15\": {\"O\": 1}, \"16\": {\"O\": 1}, \"17\": {\"O\": 1}, \"18\": {\"O\": 1}, \"19\": {\"O\": 1}}" n_minim_iter=1 energy=-22575.079358780433 stress="0.017795944176303098 -1.5086957113373764e-12 -1.5299047051182638e-13 -1.5086957113373764e-12 0.01911285618895035 -1.3791647418774506e-12 -1.5299047051182638e-13 -1.3791647418774506e-12 0.018933515192542216" free_energy=-22575.079358780433 pbc="T T T"
In       1.34460135       2.93647656       0.91091338        0      -0.02672688      -0.07138127       0.15779744
In       1.37055606       0.16644171       2.93049895        1       0.02672688      -0.07138127      -0.15779744
In       1.37055606       2.60359314       4.75232570        2       0.02672688       0.07138127       0.15779744
In       1.34460135       5.37362800       6.77191127        3      -0.02672688       0.07138127      -0.15779744
In       4.08571348       2.60359314       6.77191127        4       0.02672688       0.07138127      -0.15779744
In       4.05975877       5.37362800       4.75232570        5      -0.02672688       0.07138127       0.15779744
In       4.05975877       2.93647656       2.93049895        6      -0.02672688      -0.07138127      -0.15779744
In       4.08571348       0.16644171       0.91091338        7       0.02672688      -0.07138127       0.15779744
O        2.11055197       3.35223373       6.55310895        8      -0.06334871      -0.01162335       0.05336276
O        0.60460544       0.58219888       4.97112803        9       0.06334871      -0.01162335      -0.05336276
O        0.60460544       2.18783597       2.71169662       10       0.06334871       0.01162335       0.05336276
O        2.11055197       4.95787082       1.12971570       11      -0.06334871       0.01162335      -0.05336276
O        3.31976286       2.18783597       1.12971570       12       0.06334871       0.01162335      -0.05336276
O        4.82570939       4.95787082       2.71169662       13      -0.06334871       0.01162335       0.05336276
O        4.82570939       3.35223373       4.97112803       14      -0.06334871      -0.01162335      -0.05336276
O        3.31976286       0.58219888       6.55310895       15       0.06334871      -0.01162335       0.05336276
O        5.19519198       4.15505228      -0.00000000       16       0.01633480       0.00000000      -0.00000000
O        2.95028027       1.38501743       3.84141232       17      -0.01633480      -0.00000000      -0.00000000
O        0.23512286       1.38501743      -0.00000000       18      -0.01633480       0.00000000       0.00000000
O        2.48003456       4.15505228       3.84141232       19       0.01633480       0.00000000      -0.00000000
20
Lattice="5.445004559205288 -2.5441532279188858e-59 -1.1640434484218581e-42 4.113523096254854e-59 5.530953696226327 7.756506075573437e-17 1.6248043581909783e-42 -1.2370714650009076e-16 7.67472616869049" Properties=species:S:1:pos:R:3:spacegroup_kinds:I:1:forces:R:3 spacegroup="P 1" unit_cell=conventional occupancy="_JSON {\"0\": {\"In\": 1}, \"1\": {\"In\": 1}, \"2\": {\"In\": 1}, \"3\": {\"In\": 1}, \"4\": {\"In\": 1}, \"5\": {\"In\": 1}, \"6\": {\"In\": 1}, \"7\": {\"In\": 1}, \"8\": {\"O\": 1}, \"9\": {\"O\": 1}, \"10\": {\"O\": 1}, \"11\": {\"O\": 1}, \"12\": {\"O\": 1}, \"13\": {\"O\": 1}, \"14\": {\"O\": 1}, \"15\": {\"O\": 1}, \"16\": {\"O\": 1}, \"17\": {\"O\": 1}, \"18\": {\"O\": 1}, \"19\": {\"O\": 1}}" n_minim_iter=2 energy=-22575.082955648148 stress="0.021218981305697594 5.354248104597476e-13 -6.924082768874307e-14 5.354248104597476e-13 0.019003800908038614 -1.6040408802621072e-12 -6.924082768874307e-14 -1.6040408802621072e-12 0.01856087525026198" free_energy=-22575.082955648148 pbc="T T T"
In       1.34785583       2.93062663       0.91220506        0       0.01179550      -0.07351027       0.13021235
In       1.37464645       0.16514978       2.92515803        1      -0.01179550      -0.07351027      -0.13021235
In       1.37464645       2.60032707       4.74956814        2      -0.01179550       0.07351027       0.13021235
In       1.34785583       5.36580392       6.76252111        3       0.01179550       0.07351027      -0.13021235
In       4.09714873       2.60032707       6.76252111        4      -0.01179550       0.07351027      -0.13021235
In       4.07035811       5.36580392       4.74956814        5       0.01179550       0.07351027       0.13021235
In       4.07035811       2.93062663       2.92515803        6       0.01179550      -0.07351027      -0.13021235
In       4.09714873       0.16514978       0.91220506        7      -0.01179550      -0.07351027       0.13021235
O        2.11535387       3.34655197       6.54696282        8      -0.01793007      -0.01586618       0.08169441
O        0.60714841       0.58107512       4.96512643        9       0.01793007      -0.01586618      -0.08169441
O        0.60714841       2.18440173       2.70959974       10       0.01793007       0.01586618       0.08169441
O        2.11535387       4.94987858       1.12776335       11      -0.01793007       0.01586618      -0.08169441
O        3.32965069       2.18440173       1.12776335       12       0.01793007       0.01586618      -0.08169441
O        4.83785615       4.94987858       2.70959974       13      -0.01793007       0.01586618       0.08169441
O        4.83785615       3.34655197       4.96512643       14      -0.01793007      -0.01586618      -0.08169441
O        3.32965069       0.58107512       6.54696282       15       0.01793007      -0.01586618       0.08169441
O        5.20947965       4.14821527      -0.00000000       16       0.03008673       0.00000000       0.00000000
O        2.95802719       1.38273842       3.83736308       17      -0.03008673       0.00000000      -0.00000000
O        0.23552491       1.38273842      -0.00000000       18      -0.03008673      -0.00000000       0.00000000
O        2.48697737       4.14821527       3.83736308       19       0.03008673      -0.00000000      -0.00000000
20
Lattice="5.442570322405325 -2.74091500681651e-59 -1.1432764741651908e-42 3.9741306267619667e-59 5.520097647087291 8.059174458038339e-17 1.6326407745643102e-42 -1.195158513205945e-16 7.693258936681722" Properties=species:S:1:pos:R:3:spacegroup_kinds:I:1:forces:R:3 spacegroup="P 1" unit_cell=conventional occupancy="_JSON {\"0\": {\"In\": 1}, \"1\": {\"In\": 1}, \"2\": {\"In\": 1}, \"3\": {\"In\": 1}, \"4\": {\"In\": 1}, \"5\": {\"In\": 1}, \"6\": {\"In\": 1}, \"7\": {\"In\": 1}, \"8\": {\"O\": 1}, \"9\": {\"O\": 1}, \"10\": {\"O\": 1}, \"11\": {\"O\": 1}, \"12\": {\"O\": 1}, \"13\": {\"O\": 1}, \"14\": {\"O\": 1}, \"15\": {\"O\": 1}, \"16\": {\"O\": 1}, \"17\": {\"O\": 1}, \"18\": {\"O\": 1}, \"19\": {\"O\": 1}}" n_minim_iter=3 energy=-22575.09358701265 stress="0.023750298411822694 2.4635393274106594e-12 -1.1631847168480016e-12 2.4635393274106594e-12 0.02378673044821855 2.048524784069599e-12 -1.1631847168480016e-12 2.048524784069599e-12 0.02212975054743218" free_energy=-22575.09358701265 pbc="T T T"
In       1.34631517       2.91984930       0.92479159        0       0.01709517       0.02391472      -0.02329887
In       1.37496999       0.15980047       2.92183788        1      -0.01709517       0.02391472       0.02329887
In       1.37496999       2.60024835       4.77142106        2      -0.01709517      -0.02391472      -0.02329887
In       1.34631517       5.36029717       6.76846735        3       0.01709517      -0.02391472       0.02329887
In       4.09625515       2.60024835       6.76846735        4      -0.01709517      -0.02391472       0.02329887
In       4.06760034       5.36029717       4.77142106        5       0.01709517      -0.02391472      -0.02329887
In       4.06760034       2.91984930       2.92183788        6       0.01709517       0.02391472       0.02329887
In       4.09625515       0.15980047       0.92479159        7      -0.01709517       0.02391472      -0.02329887
O        2.11106733       3.33907124       6.56719656        8      -0.00817749      -0.00246892       0.14699198
O        0.61021783       0.57902242       4.97269185        9       0.00817749      -0.00246892      -0.14699198
O        0.61021783       2.18102640       2.72056709       10       0.00817749       0.00246892       0.14699198
O        2.11106733       4.94107523       1.12606238       11      -0.00817749       0.00246892      -0.14699198
O        3.33150299       2.18102640       1.12606238       12       0.00817749       0.00246892      -0.14699198
O        4.83235249       4.94107523       2.72056709       13      -0.00817749       0.00246892       0.14699198
O        4.83235249       3.33907124       4.97269185       14      -0.00817749      -0.00246892      -0.14699198
O        3.33150299       0.57902242       6.56719656       15       0.00817749      -0.00246892       0.14699198
O        5.20863219       4.14007324      -0.00000000       16       0.04552420       0.00000000       0.00000000
O        2.95522329       1.38002441       3.84662947       17      -0.04552420       0.00000000       0.00000000
O        0.23393813       1.38002441      -0.00000000       18      -0.04552420      -0.00000000      -0.00000000
O        2.48734703       4.14007324       3.84662947       19       0.04552420       0.00000000       0.00000000
20
Lattice="5.443646692143571 -2.341206942281948e-59 -1.0688456668808024e-42 4.657416428454587e-59 5.495729034053934 9.262859745778285e-17 1.6790614889817352e-42 -1.0279705051359869e-16 7.725843687815977" Properties=species:S:1:pos:R:3:spacegroup_kinds:I:1:forces:R:3 spacegroup="P 1" unit_cell=conventional occupancy="_JSON {\"0\": {\"In\": 1}, \"1\": {\"In\": 1}, \"2\": {\"In\": 1}, \"3\": {\"In\": 1}, \"4\": {\"In\": 1}, \"5\": {\"In\": 1}, \"6\": {\"In\": 1}, \"7\": {\"In\": 1}, \"8\": {\"O\": 1}, \"9\": {\"O\": 1}, \"10\": {\"O\": 1}, \"11\": {\"O\": 1}, \"12\": {\"O\": 1}, \"13\": {\"O\": 1}, \"14\": {\"O\": 1}, \"15\": {\"O\": 1}, \"16\": {\"O\": 1}, \"17\": {\"O\": 1}, \"18\": {\"O\": 1}, \"19\": {\"O\": 1}}" n_minim_iter=4 energy=-22575.096506791877 stress="0.025637909535066904 2.1469848291275815e-13 8.253476011687454e-14 2.1469848291275815e-13 0.022984094944403215 -9.14118428355384e-13 8.253476011687454e-14 -9.14118428355384e-13 0.02717926251266726" free_energy=-22575.096506791877 pbc="T T T"
In       1.34626751       2.90502517       0.93334992        0      -0.01659535      -0.01477342      -0.03754488
In       1.37555584       0.15716065       2.92957192        1       0.01659535      -0.01477342       0.03754488
In       1.37555584       2.59070387       4.79627177        2       0.01659535       0.01477342      -0.03754488
In       1.34626751       5.33856838       6.79249376        3      -0.01659535       0.01477342       0.03754488
In       4.09737918       2.59070387       6.79249376        4       0.01659535       0.01477342       0.03754488
In       4.06809086       5.33856838       4.79627177        5      -0.01659535       0.01477342      -0.03754488
In       4.06809086       2.90502517       2.92957192        6      -0.01659535      -0.01477342       0.03754488
In       4.09737918       0.15716065       0.93334992        7       0.01659535      -0.01477342      -0.03754488
O        2.10954766       3.32387669       6.59963473        8      -0.01945031      -0.05446472       0.11182345
O        0.61227569       0.57601217       4.98913081        9       0.01945031      -0.05446472      -0.11182345
O        0.61227569       2.17185235       2.73671288       10       0.01945031       0.05446472       0.11182345
O        2.10954766       4.91971686       1.12620896       11      -0.01945031       0.05446472      -0.11182345
O        3.33409903       2.17185235       1.12620896       12       0.01945031       0.05446472      -0.11182345
O        4.83137100       4.91971686       2.73671288       13      -0.01945031       0.05446472       0.11182345
O        4.83137100       3.32387669       4.98913081       14      -0.01945031      -0.05446472      -0.11182345
O        3.33409903       0.57601217       6.59963473       15       0.01945031      -0.05446472       0.11182345
O        5.21111891       4.12179678      -0.00000000       16       0.05781980       0.00000000       0.00000000
O        2.95435113       1.37393226       3.86292184       17      -0.05781980       0.00000000      -0.00000000
O        0.23252778       1.37393226      -0.00000000       18      -0.05781980       0.00000000       0.00000000
O        2.48929556       4.12179678       3.86292184       19       0.05781980       0.00000000       0.00000000
20
Lattice="5.443062750478684 -2.3758288331168778e-59 -1.0715845761616244e-42 4.985067536852074e-59 5.500723035711783 1.1088908518300145e-16 1.6779141257827087e-42 -7.744166900944685e-17 7.719657631568173" Properties=species:S:1:pos:R:3:spacegroup_kinds:I:1:forces:R:3 spacegroup="P 1" unit_cell=conventional occupancy="_JSON {\"0\": {\"In\": 1}, \"1\": {\"In\": 1}, \"2\": {\"In\": 1}, \"3\": {\"In\": 1}, \"4\": {\"In\": 1}, \"5\": {\"In\": 1}, \"6\": {\"In\": 1}, \"7\": {\"In\": 1}, \"8\": {\"O\": 1}, \"9\": {\"O\": 1}, \"10\": {\"O\": 1}, \"11\": {\"O\": 1}, \"12\": {\"O\": 1}, \"13\": {\"O\": 1}, \"14\": {\"O\": 1}, \"15\": {\"O\": 1}, \"16\": {\"O\": 1}, \"17\": {\"O\": 1}, \"18\": {\"O\": 1}, \"19\": {\"O\": 1}}" n_minim_iter=5 energy=-22575.102007920446 stress="0.027427601526866324 -9.460394243115179e-13 -1.0272404435765476e-12 -9.460394243115179e-13 0.027440341469503006 1.413549425511514e-12 -1.0272404435765476e-12 1.413549425511514e-12 0.028051686625271795" free_energy=-22575.102007920446 pbc="T T T"
In       1.34544629       2.90499398       0.93809676        0      -0.01352588       0.04067402      -0.08428519
In       1.37608509       0.15463246       2.92173205        1       0.01352588       0.04067402       0.08428519
In       1.37608509       2.59572906       4.79792558        2       0.01352588      -0.04067402      -0.08428519
In       1.34544629       5.34609058       6.78156087        3      -0.01352588      -0.04067402       0.08428519
In       4.09761646       2.59572906       6.78156087        4       0.01352588      -0.04067402       0.08428519
In       4.06697766       5.34609058       4.79792558        5      -0.01352588      -0.04067402      -0.08428519
In       4.06697766       2.90499398       2.92173205        6      -0.01352588       0.04067402       0.08428519
In       4.09761646       0.15463246       0.93809676        7       0.01352588       0.04067402      -0.08428519
O        2.10648281       3.32559297       6.60189821        8      -0.01279933      -0.02243870       0.10611544
O        0.61504856       0.57523145       4.97758824        9       0.01279933      -0.02243870      -0.10611544
O        0.61504856       2.17513006       2.74206939       10       0.01279933       0.02243870       0.10611544
O        2.10648281       4.92549158       1.11775942       11      -0.01279933       0.02243870      -0.10611544
O        3.33657994       2.17513006       1.11775942       12       0.01279933       0.02243870      -0.10611544
O        4.82801419       4.92549158       2.74206939       13      -0.01279933       0.02243870       0.10611544
O        4.82801419       3.32559297       4.97758824       14      -0.01279933      -0.02243870      -0.10611544
O        3.33657994       0.57523145       6.60189821       15       0.01279933      -0.02243870       0.10611544
O        5.21323413       4.12554228      -0.00000000       16       0.04236069      -0.00000000      -0.00000000
O        2.95136000       1.37518076       3.85982882       17      -0.04236069       0.00000000      -0.00000000
O        0.22982863       1.37518076      -0.00000000       18      -0.04236069       0.00000000      -0.00000000
O        2.49170275       4.12554228       3.85982882       19       0.04236069       0.00000000      -0.00000000
20
Lattice="5.444301733274137 -2.207240756054123e-59 -1.0383175277428453e-42 5.0026567543729195e-59 5.504883962547408 1.0201008326375596e-16 1.690826359184906e-42 -8.968339207651594e-17 7.712067176519674" Properties=species:S:1:pos:R:3:spacegroup_kinds:I:1:forces:R:3 spacegroup="P 1" unit_cell=conventional occupancy="_JSON {\"0\": {\"In\": 1}, \"1\": {\"In\": 1}, \"2\": {\"In\": 1}, \"3\": {\"In\": 1}, \"4\": {\"In\": 1}, \"5\": {\"In\": 1}, \"6\": {\"In\": 1}, \"7\": {\"In\": 1}, \"8\": {\"O\": 1}, \"9\": {\"O\": 1}, \"10\": {\"O\": 1}, \"11\": {\"O\": 1}, \"12\": {\"O\": 1}, \"13\": {\"O\": 1}, \"14\": {\"O\": 1}, \"15\": {\"O\": 1}, \"16\": {\"O\": 1}, \"17\": {\"O\": 1}, \"18\": {\"O\": 1}, \"19\": {\"O\": 1}}" n_minim_iter=6 energy=-22575.106703548496 stress="0.02901132024736849 -4.64504696106805e-13 1.0527576717247129e-12 -4.64504696106805e-13 0.029681524791008707 1.5104897936425738e-12 1.0527576717247129e-12 1.5104897936425738e-12 0.029033268539469442" free_energy=-22575.106703548496 pbc="T T T"
In       1.34505223       2.90621349       0.93928258        0      -0.01904355       0.04215722      -0.05144107
In       1.37709863       0.15377151       2.91675101        1       0.01904355       0.04215722       0.05144107
In       1.37709863       2.59867047       4.79531617        2       0.01904355      -0.04215722      -0.05144107
In       1.34505223       5.35111245       6.77278459        3      -0.01904355      -0.04215722       0.05144107
In       4.09924950       2.59867047       6.77278459        4       0.01904355      -0.04215722       0.05144107
In       4.06720310       5.35111245       4.79531617        5      -0.01904355      -0.04215722      -0.05144107
In       4.06720310       2.90621349       2.91675101        6      -0.01904355       0.04215722       0.05144107
In       4.09924950       0.15377151       0.93928258        7       0.01904355       0.04215722      -0.05144107
O        2.10456320       3.32667605       6.60398577        8      -0.00516366      -0.01102407       0.04793224
O        0.61758767       0.57423406       4.96411499        9       0.00516366      -0.01102407      -0.04793224
O        0.61758767       2.17820792       2.74795218       10       0.00516366       0.01102407       0.04793224
O        2.10456320       4.93064990       1.10808141       11      -0.00516366       0.01102407      -0.04793224
O        3.33973854       2.17820792       1.10808141       12       0.00516366       0.01102407      -0.04793224
O        4.82671406       4.93064990       2.74795218       13      -0.00516366       0.01102407       0.04793224
O        4.82671406       3.32667605       4.96411499       14      -0.00516366      -0.01102407      -0.04793224
O        3.33973854       0.57423406       6.60398577       15       0.00516366      -0.01102407       0.04793224
O        5.21752328       4.12866297      -0.00000000       16       0.01498782      -0.00000000      -0.00000000
O        2.94892932       1.37622099       3.85603359       17      -0.01498782      -0.00000000      -0.00000000
O        0.22677845       1.37622099      -0.00000000       18      -0.01498782       0.00000000      -0.00000000
O        2.49537242       4.12866297       3.85603359       19       0.01498782       0.00000000       0.00000000
20
Lattice="5.444849403841008 -2.3466979180525427e-59 -1.0362579906173942e-42 4.983403777899517e-59 5.506828027336533 1.0934494821955649e-16 1.6767239733554287e-42 -7.947909863163358e-17 7.70856915546409" Properties=species:S:1:pos:R:3:spacegroup_kinds:I:1:forces:R:3 spacegroup="P 1" unit_cell=conventional occupancy="_JSON {\"0\": {\"In\": 1}, \"1\": {\"In\": 1}, \"2\": {\"In\": 1}, \"3\": {\"In\": 1}, \"4\": {\"In\": 1}, \"5\": {\"In\": 1}, \"6\": {\"In\": 1}, \"7\": {\"In\": 1}, \"8\": {\"O\": 1}, \"9\": {\"O\": 1}, \"10\": {\"O\": 1}, \"11\": {\"O\": 1}, \"12\": {\"O\": 1}, \"13\": {\"O\": 1}, \"14\": {\"O\": 1}, \"15\": {\"O\": 1}, \"16\": {\"O\": 1}, \"17\": {\"O\": 1}, \"18\": {\"O\": 1}, \"19\": {\"O\": 1}}" n_minim_iter=7 energy=-22575.107882533022 stress="0.029523202902944065 -2.1174136154837047e-12 6.990102682964706e-13 -2.1174136154837047e-12 0.02976268823367248 1.763202616006353e-12 6.990102682964706e-13 1.763202616006353e-12 0.02927351718353361" free_energy=-22575.107882533022 pbc="T T T"
In       1.34456668       2.90772284       0.93835335        0      -0.02223194       0.02069347      -0.00201979
In       1.37785802       0.15430883       2.91593123        1       0.02223194       0.02069347       0.00201979
In       1.37785802       2.59910518       4.79263793        2       0.02223194      -0.02069347      -0.00201979
In       1.34456668       5.35251920       6.77021580        3      -0.02223194      -0.02069347       0.00201979
In       4.10028272       2.59910518       6.77021580        4       0.02223194      -0.02069347       0.00201979
In       4.06699138       5.35251920       4.79263793        5      -0.02223194      -0.02069347      -0.00201979
In       4.06699138       2.90772284       2.91593123        6      -0.02223194       0.02069347       0.00201979
In       4.10028272       0.15430883       0.93835335        7       0.02223194       0.02069347      -0.00201979
O        2.10388319       3.32696462       6.60523102        8      -0.00300772      -0.01138827      -0.00415218
O        0.61854151       0.57355061       4.95762271        9       0.00300772      -0.01138827       0.00415218
O        0.61854151       2.17986341       2.75094644       10       0.00300772       0.01138827      -0.00415218
O        2.10388319       4.93327742       1.10333813       11      -0.00300772       0.01138827       0.00415218
O        3.34096621       2.17986341       1.10333813       12       0.00300772       0.01138827       0.00415218
O        4.82630789       4.93327742       2.75094644       13      -0.00300772       0.01138827      -0.00415218
O        4.82630789       3.32696462       4.95762271       14      -0.00300772      -0.01138827       0.00415218
O        3.34096621       0.57355061       6.60523102       15       0.00300772      -0.01138827      -0.00415218
O        5.21958842       4.13012102      -0.00000000       16      -0.00432315       0.00000000       0.00000000
O        2.94768569       1.37670701       3.85428458       17       0.00432315       0.00000000       0.00000000
O        0.22526098       1.37670701      -0.00000000       18       0.00432315      -0.00000000      -0.00000000
O        2.49716372       4.13012102       3.85428458       19      -0.00432315      -0.00000000       0.00000000
20
Lattice="5.442420147670954 -2.4243828908720253e-59 -1.0352277348012013e-42 4.768123029386198e-59 5.506062585167006 1.0256100642567728e-16 1.6741693073746183e-42 -8.896927119780355e-17 7.71308202924281" Properties=species:S:1:pos:R:3:spacegroup_kinds:I:1:forces:R:3 spacegroup="P 1" unit_cell=conventional occupancy="_JSON {\"0\": {\"In\": 1}, \"1\": {\"In\": 1}, \"2\": {\"In\": 1}, \"3\": {\"In\": 1}, \"4\": {\"In\": 1}, \"5\": {\"In\": 1}, \"6\": {\"In\": 1}, \"7\": {\"In\": 1}, \"8\": {\"O\": 1}, \"9\": {\"O\": 1}, \"10\": {\"O\": 1}, \"11\": {\"O\": 1}, \"12\": {\"O\": 1}, \"13\": {\"O\": 1}, \"14\": {\"O\": 1}, \"15\": {\"O\": 1}, \"16\": {\"O\": 1}, \"17\": {\"O\": 1}, \"18\": {\"O\": 1}, \"19\": {\"O\": 1}}" n_minim_iter=8 energy=-22575.108134698512 stress="0.029025209680775096 3.399434692971584e-12 2.137352893635033e-12 3.399434692971584e-12 0.02863139228944455 4.5606202761052e-13 2.137352893635033e-12 4.5606202761052e-13 0.029164298533148947" free_energy=-22575.108134698512 pbc="T T T"
In       1.34313573       2.90863654       0.93752168        0      -0.01550005      -0.00030089       0.01818998
In       1.37807434       0.15560525       2.91901934        1       0.01550005      -0.00030089      -0.01818998
In       1.37807434       2.59742605       4.79406269        2       0.01550005       0.00030089       0.01818998
In       1.34313573       5.35045734       6.77556035        3      -0.01550005       0.00030089      -0.01818998
In       4.09928441       2.59742605       6.77556035        4       0.01550005       0.00030089      -0.01818998
In       4.06434581       5.35045734       4.79406269        5      -0.01550005       0.00030089       0.01818998
In       4.06434581       2.90863654       2.91901934        6      -0.01550005      -0.00030089      -0.01818998
In       4.09928441       0.15560525       0.93752168        7       0.01550005      -0.00030089       0.01818998
O        2.10330682       3.32606774       6.60800340        8      -0.00790308      -0.01764727      -0.00936238
O        0.61790325       0.57303645       4.96161965        9       0.00790308      -0.01764727       0.00936238
O        0.61790325       2.17999485       2.75146238       10       0.00790308       0.01764727      -0.00936238
O        2.10330682       4.93302614       1.10507863       11      -0.00790308       0.01764727       0.00936238
O        3.33911333       2.17999485       1.10507863       12       0.00790308       0.01764727       0.00936238
O        4.82451690       4.93302614       2.75146238       13      -0.00790308       0.01764727      -0.00936238
O        4.82451690       3.32606774       4.96161965       14      -0.00790308      -0.01764727       0.00936238
O        3.33911333       0.57303645       6.60800340       15       0.00790308      -0.01764727      -0.00936238
O        5.21683274       4.12954694      -0.00000000       16      -0.00703364       0.00000000      -0.00000000
O        2.94679748       1.37651565       3.85654101       17       0.00703364      -0.00000000      -0.00000000
O        0.22558740       1.37651565      -0.00000000       18       0.00703364      -0.00000000       0.00000000
O        2.49562267       4.12954694       3.85654101       19      -0.00703364      -0.00000000       0.00000000
20
Lattice="5.436819261423724 3.195694011060129e-59 -9.863829058978288e-43 -1.5532640569852884e-59 5.504941073913157 9.334888668997232e-17 1.545238405598478e-42 -1.0190424269612634e-16 7.722600859511027" Properties=species:S:1:pos:R:3:spacegroup_kinds:I:1:forces:R:3 spacegroup="P 1" unit_cell=conventional occupancy="_JSON {\"0\": {\"In\": 1}, \"1\": {\"In\": 1}, \"2\": {\"In\": 1}, \"3\": {\"In\": 1}, \"4\": {\"In\": 1}, \"5\": {\"In\": 1}, \"6\": {\"In\": 1}, \"7\": {\"In\": 1}, \"8\": {\"O\": 1}, \"9\": {\"O\": 1}, \"10\": {\"O\": 1}, \"11\": {\"O\": 1}, \"12\": {\"O\": 1}, \"13\": {\"O\": 1}, \"14\": {\"O\": 1}, \"15\": {\"O\": 1}, \"16\": {\"O\": 1}, \"17\": {\"O\": 1}, \"18\": {\"O\": 1}, \"19\": {\"O\": 1}}" n_minim_iter=9 energy=-22575.108546159525 stress="0.029614813972457528 1.5107968215378153e-12 -1.924391080505763e-12 1.5107968215378153e-12 0.029428361982613283 -1.0308545830019655e-12 -1.924391080505763e-12 -1.0308545830019655e-12 0.029574957818827824" free_energy=-22575.108546159525 pbc="T T T"
In       1.33920016       2.90890205       0.94068091        0       0.01143297       0.00028876      -0.00162901
In       1.37920947       0.15643151       2.92061952        1      -0.01143297       0.00028876       0.00162901
In       1.37920947       2.59603902       4.80198134        2      -0.01143297      -0.00028876      -0.00162901
In       1.33920016       5.34850956       6.78191995        3       0.01143297      -0.00028876       0.00162901
In       4.09761910       2.59603902       6.78191995        4      -0.01143297      -0.00028876       0.00162901
In       4.05760979       5.34850956       4.80198134        5       0.01143297      -0.00028876      -0.00162901
In       4.05760979       2.90890205       2.92061952        6       0.01143297       0.00028876       0.00162901
In       4.09761910       0.15643151       0.94068091        7      -0.01143297       0.00028876      -0.00162901
O        2.09975705       3.32331798       6.61753789        8      -0.00179053      -0.01314943       0.00199193
O        0.61865258       0.57084744       4.96636340        9       0.00179053      -0.01314943      -0.00199193
O        0.61865258       2.18162310       2.75623746       10       0.00179053       0.01314943       0.00199193
O        2.09975705       4.93409363       1.10506297       11      -0.00179053       0.01314943      -0.00199193
O        3.33706221       2.18162310       1.10506297       12       0.00179053       0.01314943      -0.00199193
O        4.81816668       4.93409363       2.75623746       13      -0.00179053       0.01314943       0.00199193
O        4.81816668       3.32331798       4.96636340       14      -0.00179053      -0.01314943      -0.00199193
O        3.33706221       0.57084744       6.61753789       15       0.00179053      -0.01314943       0.00199193
O        5.21152676       4.12870581      -0.00000000       16      -0.01826659      -0.00000000      -0.00000000
O        2.94370214       1.37623527       3.86130043       17       0.01826659      -0.00000000      -0.00000000
O        0.22529251       1.37623527      -0.00000000       18       0.01826659      -0.00000000       0.00000000
O        2.49311712       4.12870581       3.86130043       19      -0.01826659      -0.00000000      -0.00000000
20