20
Lattice="5.48013701957567 -2.5249832538153613e-59 -1.1511697843924196e-42 9.330122708384557e-60 5.590898868457809 2.798584354022162e-17 1.6474134510187544e-42 -1.1685484876977283e-16 7.7533132167894445" Properties=species:S:1:pos:R:3:spacegroup_kinds:I:1:forces:R:3 spacegroup="P 1" unit_cell=conventional occupancy="_JSON {\"0\": {\"In\": 1}, \"1\": {\"In\": 1}, \"2\": {\"In\": 1}, \"3\": {\"In\": 1}, \"4\": {\"In\": 1}, \"5\": {\"In\": 1}, \"6\": {\"In\": 1}, \"7\": {\"In\": 1}, \"8\": {\"O\": 1}, \"9\": {\"O\": 1}, \"10\": {\"O\": 1}, \"11\": {\"O\": 1}, \"12\": {\"O\": 1}, \"13\": {\"O\": 1}, \"14\": {\"O\": 1}, \"15\": {\"O\": 1}, \"16\": {\"O\": 1}, \"17\": {\"O\": 1}, \"18\": {\"O\": 1}, \"19\": {\"O\": 1}}" n_minim_iter=7 energy=-22574.989884422655 stress="0.009924355673619734 -4.6174591094780187e-14 1.3800158829170896e-13 -4.6174591094780187e-14 0.009932657047813683 3.581833081141155e-14 1.3800158829170896e-13 3.581833081141155e-14 0.009565006363810252" free_energy=-22574.989884422655 pbc="T T T"
In       1.35693783       2.96341821       0.91927085        0      -0.00300521       0.00555872       0.00217717
In       1.38313068       0.16796878       2.95738576        1       0.00300521       0.00555872      -0.00217717
In       1.38313068       2.62748065       4.79592746        2       0.00300521      -0.00555872       0.00217717
In       1.35693783       5.42293009       6.83404237        3      -0.00300521      -0.00555872      -0.00217717
In       4.12319919       2.62748065       6.83404237        4       0.00300521      -0.00555872      -0.00217717
In       4.09700634       5.42293009       4.79592746        5      -0.00300521      -0.00555872       0.00217717
In       4.09700634       2.96341821       2.95738576        6      -0.00300521       0.00555872      -0.00217717
In       4.12319919       0.16796878       0.91927085        7       0.00300521       0.00555872       0.00217717
O        2.12991592       3.38298989       6.61323257        8       0.00460807       0.00474350      -0.00295903
O        0.61015259       0.58754045       5.01673726        9      -0.00460807       0.00474350       0.00295903
O        0.61015259       2.20790898       2.73657596       10      -0.00460807      -0.00474350      -0.00295903
O        2.12991592       5.00335841       1.14008065       11       0.00460807      -0.00474350       0.00295903
O        3.35022110       2.20790898       1.14008065       12      -0.00460807      -0.00474350       0.00295903
O        4.86998443       5.00335841       2.73657596       13       0.00460807      -0.00474350      -0.00295903
O        4.86998443       3.38298989       5.01673726       14       0.00460807       0.00474350       0.00295903
O        3.35022110       0.58754045       6.61323257       15      -0.00460807       0.00474350      -0.00295903
O        5.24285695       4.19317415      -0.00000000       16      -0.00847815       0.00000000      -0.00000000
O        2.97734858       1.39772472       3.87665661       17       0.00847815      -0.00000000       0.00000000
O        0.23728007       1.39772472      -0.00000000       18       0.00847815      -0.00000000       0.00000000
O        2.50278844       4.19317415       3.87665661       19      -0.00847815      -0.00000000       0.00000000
