20
Lattice="5.508609102577099 -1.0855861932547894e-59 -5.900798275074051e-43 2.353930514149624e-59 5.619964194615683 1.1635590984054427e-16 8.441809816965945e-43 -1.6316298764167528e-16 7.880735492416024" Properties=species:S:1:pos:R:3:spacegroup_kinds:I:1:forces:R:3 spacegroup="P 1" unit_cell=conventional occupancy="_JSON {\"0\": {\"In\": 1}, \"1\": {\"In\": 1}, \"2\": {\"In\": 1}, \"3\": {\"In\": 1}, \"4\": {\"In\": 1}, \"5\": {\"In\": 1}, \"6\": {\"In\": 1}, \"7\": {\"In\": 1}, \"8\": {\"O\": 1}, \"9\": {\"O\": 1}, \"10\": {\"O\": 1}, \"11\": {\"O\": 1}, \"12\": {\"O\": 1}, \"13\": {\"O\": 1}, \"14\": {\"O\": 1}, \"15\": {\"O\": 1}, \"16\": {\"O\": 1}, \"17\": {\"O\": 1}, \"18\": {\"O\": 1}, \"19\": {\"O\": 1}}" n_minim_iter=1 energy=-22574.948750229432 stress="-0.0016576825252239975 9.557021613207198e-13 4.823131799713762e-13 9.557021613207198e-13 -0.0008196484131815084 1.8632001734994306e-12 4.823131799713762e-13 1.8632001734994306e-12 0.005117321488856749" free_energy=-22574.948750229432 pbc="T T T"
In       1.36749957       2.97180076       0.91370791        0      -0.03087097       0.02929298       0.04138302
In       1.38680498       0.16181866       3.02665984        1       0.03087097       0.02929298      -0.04138302
In       1.38680498       2.64816344       4.85407565        2       0.03087097      -0.02929298       0.04138302
In       1.36749957       5.45814554       6.96702759        3      -0.03087097      -0.02929298      -0.04138302
In       4.14110953       2.64816344       6.96702759        4       0.03087097      -0.02929298      -0.04138302
In       4.12180412       5.45814554       4.85407565        5      -0.03087097      -0.02929298       0.04138302
In       4.12180412       2.97180076       3.02665984        6      -0.03087097       0.02929298      -0.04138302
In       4.14110953       0.16181866       0.91370791        7       0.03087097       0.02929298       0.04138302
O        2.14693526       3.40429822       6.70224545        8      -0.04727454      -0.01027943      -0.01148662
O        0.60736929       0.59431612       5.11885779        9       0.04727454      -0.01027943       0.01148662
O        0.60736929       2.21566597       2.76187771       10       0.04727454       0.01027943      -0.01148662
O        2.14693526       5.02564807       1.17849004       11      -0.04727454       0.01027943       0.01148662
O        3.36167384       2.21566597       1.17849004       12       0.04727454       0.01027943       0.01148662
O        4.90123981       5.02564807       2.76187771       13      -0.04727454       0.01027943      -0.01148662
O        4.90123981       3.40429822       5.11885779       14      -0.04727454      -0.01027943       0.01148662
O        3.36167384       0.59431612       6.70224545       15       0.04727454      -0.01027943      -0.01148662
O        5.26842092       4.21497315      -0.00000000       16       0.03422382      -0.00000000       0.00000000
O        2.99449273       1.40499105       3.94036775       17      -0.03422382      -0.00000000      -0.00000000
O        0.24018818       1.40499105      -0.00000000       18      -0.03422382      -0.00000000       0.00000000
O        2.51411637       4.21497315       3.94036775       19       0.03422382      -0.00000000       0.00000000
20
Lattice="5.52589554776383 -4.875256637841687e-61 -5.974366340440678e-43 4.091294183797514e-59 5.631769957273798 1.7265555362671005e-16 8.645627887730958e-43 -8.527607704860519e-17 7.839613949631159" Properties=species:S:1:pos:R:3:spacegroup_kinds:I:1:forces:R:3 spacegroup="P 1" unit_cell=conventional occupancy="_JSON {\"0\": {\"In\": 1}, \"1\": {\"In\": 1}, \"2\": {\"In\": 1}, \"3\": {\"In\": 1}, \"4\": {\"In\": 1}, \"5\": {\"In\": 1}, \"6\": {\"In\": 1}, \"7\": {\"In\": 1}, \"8\": {\"O\": 1}, \"9\": {\"O\": 1}, \"10\": {\"O\": 1}, \"11\": {\"O\": 1}, \"12\": {\"O\": 1}, \"13\": {\"O\": 1}, \"14\": {\"O\": 1}, \"15\": {\"O\": 1}, \"16\": {\"O\": 1}, \"17\": {\"O\": 1}, \"18\": {\"O\": 1}, \"19\": {\"O\": 1}}" n_minim_iter=2 energy=-22574.95304585932 stress="0.0015661201852976902 7.719609145200846e-13 3.751641847849331e-13 7.719609145200846e-13 0.0020763152035309677 -2.6411804386556486e-12 3.751641847849331e-13 -2.6411804386556486e-12 0.0017572780507206795" free_energy=-22574.95304585932 pbc="T T T"
In       1.37163417       2.97819212       0.90914853        0       0.02009787       0.04898546       0.02028423
In       1.39131360       0.16230714       3.01065845        1      -0.02009787       0.04898546      -0.02028423
In       1.39131360       2.65357784       4.82895550        2      -0.02009787      -0.04898546       0.02028423
In       1.37163417       5.46946282       6.93046542        3       0.02009787      -0.04898546      -0.02028423
In       4.15426137       2.65357784       6.93046542        4      -0.02009787      -0.04898546      -0.02028423
In       4.13458195       5.46946282       4.82895550        5       0.02009787      -0.04898546       0.02028423
In       4.13458195       2.97819212       3.01065845        6       0.02009787       0.04898546      -0.02028423
In       4.15426137       0.16230714       0.90914853        7      -0.02009787       0.04898546       0.02028423
O        2.15343252       3.41139744       6.66721543        8      -0.00467723      -0.00351698       0.02336444
O        0.60951525       0.59551246       5.09220550        9       0.00467723      -0.00351698      -0.02336444
O        0.60951525       2.22037252       2.74740845       10       0.00467723       0.00351698       0.02336444
O        2.15343252       5.03625749       1.17239852       11      -0.00467723       0.00351698      -0.02336444
O        3.37246303       2.22037252       1.17239852       12       0.00467723       0.00351698      -0.02336444
O        4.91638029       5.03625749       2.74740845       13      -0.00467723       0.00351698       0.02336444
O        4.91638029       3.41139744       5.09220550       14      -0.00467723      -0.00351698      -0.02336444
O        3.37246303       0.59551246       6.66721543       15       0.00467723      -0.00351698       0.02336444
O        5.28512738       4.22382747      -0.00000000       16       0.01885655      -0.00000000       0.00000000
O        3.00371595       1.40794249       3.91980697       17      -0.01885655      -0.00000000      -0.00000000
O        0.24076817       1.40794249      -0.00000000       18      -0.01885655       0.00000000       0.00000000
O        2.52217960       4.22382747       3.91980697       19       0.01885655      -0.00000000      -0.00000000
20
Lattice="5.531373025976967 1.9896735988696396e-60 -6.2136447383692696e-43 4.561927702845242e-59 5.626947157654329 1.8959511868040428e-16 8.799285068840983e-43 -6.141667464741514e-17 7.838563321000317" Properties=species:S:1:pos:R:3:spacegroup_kinds:I:1:forces:R:3 spacegroup="P 1" unit_cell=conventional occupancy="_JSON {\"0\": {\"In\": 1}, \"1\": {\"In\": 1}, \"2\": {\"In\": 1}, \"3\": {\"In\": 1}, \"4\": {\"In\": 1}, \"5\": {\"In\": 1}, \"6\": {\"In\": 1}, \"7\": {\"In\": 1}, \"8\": {\"O\": 1}, \"9\": {\"O\": 1}, \"10\": {\"O\": 1}, \"11\": {\"O\": 1}, \"12\": {\"O\": 1}, \"13\": {\"O\": 1}, \"14\": {\"O\": 1}, \"15\": {\"O\": 1}, \"16\": {\"O\": 1}, \"17\": {\"O\": 1}, \"18\": {\"O\": 1}, \"19\": {\"O\": 1}}" n_minim_iter=3 energy=-22574.95336875478 stress="0.00243031125484788 2.244860008075286e-12 -6.387500035677535e-13 2.244860008075286e-12 0.0012243320573517846 -4.2463947651124075e-13 -6.387500035677535e-13 -4.2463947651124075e-13 0.0018997036467606442" free_energy=-22574.95336875478 pbc="T T T"
In       1.37327663       2.97635711       0.90932682        0       0.02034447       0.02875620       0.02528357
In       1.39240989       0.16288353       3.00995484        1      -0.02034447       0.02875620      -0.02528357
In       1.39240989       2.65059005       4.82860848        2      -0.02034447      -0.02875620       0.02528357
In       1.37327663       5.46406363       6.92923650        3       0.02034447      -0.02875620      -0.02528357
In       4.15809640       2.65059005       6.92923650        4      -0.02034447      -0.02875620      -0.02528357
In       4.13896314       5.46406363       4.82860848        5       0.02034447      -0.02875620       0.02528357
In       4.13896314       2.97635711       3.00995484        6       0.02034447       0.02875620      -0.02528357
In       4.15809640       0.16288353       0.90932682        7      -0.02034447       0.02875620       0.02528357
O        2.15548625       3.40842246       6.66665148        8       0.00140575      -0.01200450       0.01790051
O        0.61020026       0.59494888       5.09119350        9      -0.00140575      -0.01200450      -0.01790051
O        0.61020026       2.21852470       2.74736982       10      -0.00140575       0.01200450       0.01790051
O        2.15548625       5.03199827       1.17191184       11       0.00140575       0.01200450      -0.01790051
O        3.37588677       2.21852470       1.17191184       12      -0.00140575       0.01200450      -0.01790051
O        4.92117277       5.03199827       2.74736982       13       0.00140575       0.01200450       0.01790051
O        4.92117277       3.40842246       5.09119350       14       0.00140575      -0.01200450      -0.01790051
O        3.37588677       0.59494888       6.66665148       15      -0.00140575      -0.01200450       0.01790051
O        5.29064898       4.22021037      -0.00000000       16       0.01437956      -0.00000000      -0.00000000
O        3.00641056       1.40673679       3.91928166       17      -0.01437956      -0.00000000       0.00000000
O        0.24072405       1.40673679      -0.00000000       18      -0.01437956       0.00000000       0.00000000
O        2.52496246       4.22021037       3.91928166       19       0.01437956       0.00000000      -0.00000000
20
Lattice="5.529864672494994 1.8680365838137212e-60 -6.903489486011849e-43 4.561777445742724e-59 5.631387029667441 1.910387494545034e-16 8.782257167579456e-43 -5.930079497903473e-17 7.834519677250546" Properties=species:S:1:pos:R:3:spacegroup_kinds:I:1:forces:R:3 spacegroup="P 1" unit_cell=conventional occupancy="_JSON {\"0\": {\"In\": 1}, \"1\": {\"In\": 1}, \"2\": {\"In\": 1}, \"3\": {\"In\": 1}, \"4\": {\"In\": 1}, \"5\": {\"In\": 1}, \"6\": {\"In\": 1}, \"7\": {\"In\": 1}, \"8\": {\"O\": 1}, \"9\": {\"O\": 1}, \"10\": {\"O\": 1}, \"11\": {\"O\": 1}, \"12\": {\"O\": 1}, \"13\": {\"O\": 1}, \"14\": {\"O\": 1}, \"15\": {\"O\": 1}, \"16\": {\"O\": 1}, \"17\": {\"O\": 1}, \"18\": {\"O\": 1}, \"19\": {\"O\": 1}}" n_minim_iter=4 energy=-22574.95418298458 stress="0.0023482131888173056 1.160964639788684e-12 -2.620183005860212e-13 1.160964639788684e-12 0.0017849182819350653 -1.1776770324555224e-12 -2.620183005860212e-13 -1.1776770324555224e-12 0.001972511358436335" free_energy=-22574.95418298458 pbc="T T T"
In       1.37380153       2.98061357       0.90986860        0      -0.00027197       0.00951059       0.02109704
In       1.39113080       0.16492005       3.00739123        1       0.00027197       0.00951059      -0.02109704
In       1.39113080       2.65077346       4.82712844        2       0.00027197      -0.00951059       0.02109704
In       1.37380153       5.46646698       6.92465107        3      -0.00027197      -0.00951059      -0.02109704
In       4.15606314       2.65077346       6.92465107        4       0.00027197      -0.00951059      -0.02109704
In       4.13873387       5.46646698       4.82712844        5      -0.00027197      -0.00951059       0.02109704
In       4.13873387       2.98061357       3.00739123        6      -0.00027197       0.00951059      -0.02109704
In       4.15606314       0.16492005       0.90986860        7       0.00027197       0.00951059       0.02109704
O        2.15475670       3.41080781       6.66416085        8       0.00121823      -0.01361489       0.01184686
O        0.61017563       0.59511430       5.08761867        9      -0.00121823      -0.01361489      -0.01184686
O        0.61017563       2.22057922       2.74690101       10      -0.00121823       0.01361489       0.01184686
O        2.15475670       5.03627273       1.17035883       11       0.00121823       0.01361489      -0.01184686
O        3.37510797       2.22057922       1.17035883       12      -0.00121823       0.01361489      -0.01184686
O        4.91968904       5.03627273       2.74690101       13       0.00121823       0.01361489       0.01184686
O        4.91968904       3.41080781       5.08761867       14       0.00121823      -0.01361489      -0.01184686
O        3.37510797       0.59511430       6.66416085       15      -0.00121823      -0.01361489       0.01184686
O        5.29001132       4.22354027      -0.00000000       16      -0.00995838       0.00000000      -0.00000000
O        3.00478568       1.40784676       3.91725984       17       0.00995838       0.00000000      -0.00000000
O        0.23985335       1.40784676      -0.00000000       18       0.00995838       0.00000000       0.00000000
O        2.52507899       4.22354027       3.91725984       19      -0.00995838       0.00000000      -0.00000000
20
Lattice="5.527846597551017 1.9074744429491914e-60 -6.2249644851701565e-43 4.403076621119105e-59 5.634425261633126 1.9098605485323765e-16 8.119962976639157e-43 -5.935997493307146e-17 7.8331537356659" Properties=species:S:1:pos:R:3:spacegroup_kinds:I:1:forces:R:3 spacegroup="P 1" unit_cell=conventional occupancy="_JSON {\"0\": {\"In\": 1}, \"1\": {\"In\": 1}, \"2\": {\"In\": 1}, \"3\": {\"In\": 1}, \"4\": {\"In\": 1}, \"5\": {\"In\": 1}, \"6\": {\"In\": 1}, \"7\": {\"In\": 1}, \"8\": {\"O\": 1}, \"9\": {\"O\": 1}, \"10\": {\"O\": 1}, \"11\": {\"O\": 1}, \"12\": {\"O\": 1}, \"13\": {\"O\": 1}, \"14\": {\"O\": 1}, \"15\": {\"O\": 1}, \"16\": {\"O\": 1}, \"17\": {\"O\": 1}, \"18\": {\"O\": 1}, \"19\": {\"O\": 1}}" n_minim_iter=5 energy=-22574.954471793713 stress="0.002166375663676464 1.0854934161118662e-13 1.3032802956764308e-12 1.0854934161118662e-13 0.0021745366217555636 2.537712700223629e-12 1.3032802956764308e-12 2.537712700223629e-12 0.0021409961263881205" free_energy=-22574.954471793713 pbc="T T T"
In       1.37376714       2.98363443       0.91073605        0      -0.01444665      -0.00167971       0.01593194
In       1.39015616       0.16642180       3.00584082        1       0.01444665      -0.00167971      -0.01593194
In       1.39015616       2.65079083       4.82731291        2       0.01444665       0.00167971       0.01593194
In       1.37376714       5.46800346       6.92241769        3      -0.01444665       0.00167971      -0.01593194
In       4.15407946       2.65079083       6.92241769        4       0.01444665       0.00167971      -0.01593194
In       4.13769044       5.46800346       4.82731291        5      -0.01444665       0.00167971       0.01593194
In       4.13769044       2.98363443       3.00584082        6      -0.01444665      -0.00167971      -0.01593194
In       4.15407946       0.16642180       0.91073605        7       0.01444665      -0.00167971       0.01593194
O        2.15386209       3.41221204       6.66382375        8       0.00003457      -0.01267507       0.00744781
O        0.61006121       0.59499941       5.08590685        9      -0.00003457      -0.01267507      -0.00744781
O        0.61006121       2.22221322       2.74724688       10      -0.00003457       0.01267507       0.00744781
O        2.15386209       5.03942585       1.16932999       11       0.00003457       0.01267507      -0.00744781
O        3.37398451       2.22221322       1.16932999       12      -0.00003457       0.01267507      -0.00744781
O        4.91778539       5.03942585       2.74724688       13       0.00003457       0.01267507       0.00744781
O        4.91778539       3.41221204       5.08590685       14       0.00003457      -0.01267507      -0.00744781
O        3.37398451       0.59499941       6.66382375       15      -0.00003457      -0.01267507       0.00744781
O        5.28832308       4.22581895      -0.00000000       16      -0.02463407       0.00000000       0.00000000
O        3.00344682       1.40860632       3.91657687       17       0.02463407      -0.00000000      -0.00000000
O        0.23952352       1.40860632      -0.00000000       18       0.02463407       0.00000000      -0.00000000
O        2.52439978       4.22581895       3.91657687       19      -0.02463407      -0.00000000      -0.00000000
20
Lattice="5.525374251474528 -4.8877884812338615e-59 -8.736098512590113e-43 1.2035825585400816e-59 5.637755328981203 1.860233883353263e-16 7.452861996233617e-43 -6.630466375012862e-17 7.832029805701846" Properties=species:S:1:pos:R:3:spacegroup_kinds:I:1:forces:R:3 spacegroup="P 1" unit_cell=conventional occupancy="_JSON {\"0\": {\"In\": 1}, \"1\": {\"In\": 1}, \"2\": {\"In\": 1}, \"3\": {\"In\": 1}, \"4\": {\"In\": 1}, \"5\": {\"In\": 1}, \"6\": {\"In\": 1}, \"7\": {\"In\": 1}, \"8\": {\"O\": 1}, \"9\": {\"O\": 1}, \"10\": {\"O\": 1}, \"11\": {\"O\": 1}, \"12\": {\"O\": 1}, \"13\": {\"O\": 1}, \"14\": {\"O\": 1}, \"15\": {\"O\": 1}, \"16\": {\"O\": 1}, \"17\": {\"O\": 1}, \"18\": {\"O\": 1}, \"19\": {\"O\": 1}}" n_minim_iter=6 energy=-22574.954777302515 stress="0.002101794153319691 -8.902642503639313e-13 -6.757246211181564e-13 -8.902642503639313e-13 0.0026784976550083897 5.105037017863858e-14 -6.757246211181564e-13 5.105037017863858e-14 0.0024431258681112166" free_energy=-22574.954777302515 pbc="T T T"
In       1.37314594       2.98761259       0.91306873        0      -0.02498696      -0.01055670       0.00164852
In       1.38954119       0.16873493       3.00294617        1       0.02498696      -0.01055670      -0.00164852
In       1.38954119       2.65014273       4.82908364        2       0.02498696       0.01055670       0.00164852
In       1.37314594       5.46902040       6.91896107        3      -0.02498696       0.01055670      -0.00164852
In       4.15222832       2.65014273       6.91896107        4       0.02498696       0.01055670      -0.00164852
In       4.13583306       5.46902040       4.82908364        5      -0.02498696       0.01055670       0.00164852
In       4.13583306       2.98761259       3.00294617        6      -0.02498696      -0.01055670      -0.00164852
In       4.15222832       0.16873493       0.91306873        7       0.02498696      -0.01055670       0.00164852
O        2.15272118       3.41287203       6.66458917        8       0.00071321      -0.00543098       0.00257032
O        0.60996594       0.59399436       5.08345554        9      -0.00071321      -0.00543098      -0.00257032
O        0.60996594       2.22488330       2.74857427       10      -0.00071321       0.00543098       0.00257032
O        2.15272118       5.04376097       1.16744064       11       0.00071321       0.00543098      -0.00257032
O        3.37265307       2.22488330       1.16744064       12      -0.00071321       0.00543098      -0.00257032
O        4.91540831       5.04376097       2.74857427       13       0.00071321       0.00543098       0.00257032
O        4.91540831       3.41287203       5.08345554       14       0.00071321      -0.00543098      -0.00257032
O        3.37265307       0.59399436       6.66458917       15      -0.00071321      -0.00543098       0.00257032
O        5.28505852       4.22831650      -0.00000000       16      -0.03606487       0.00000000      -0.00000000
O        3.00300286       1.40943883       3.91601490       17       0.03606487      -0.00000000      -0.00000000
O        0.24031573       1.40943883      -0.00000000       18       0.03606487       0.00000000      -0.00000000
O        2.52237139       4.22831650       3.91601490       19      -0.03606487       0.00000000      -0.00000000
20
Lattice="5.526555699327333 -5.546348022234669e-59 -9.313718275108411e-43 -1.2072785915233069e-61 5.63528141222549 1.4738060292079545e-16 7.282132811596029e-43 -1.2050985442685036e-16 7.8337930668860105" Properties=species:S:1:pos:R:3:spacegroup_kinds:I:1:forces:R:3 spacegroup="P 1" unit_cell=conventional occupancy="_JSON {\"0\": {\"In\": 1}, \"1\": {\"In\": 1}, \"2\": {\"In\": 1}, \"3\": {\"In\": 1}, \"4\": {\"In\": 1}, \"5\": {\"In\": 1}, \"6\": {\"In\": 1}, \"7\": {\"In\": 1}, \"8\": {\"O\": 1}, \"9\": {\"O\": 1}, \"10\": {\"O\": 1}, \"11\": {\"O\": 1}, \"12\": {\"O\": 1}, \"13\": {\"O\": 1}, \"14\": {\"O\": 1}, \"15\": {\"O\": 1}, \"16\": {\"O\": 1}, \"17\": {\"O\": 1}, \"18\": {\"O\": 1}, \"19\": {\"O\": 1}}" n_minim_iter=7 energy=-22574.955216872506 stress="0.0025317719614827783 2.61844642334995e-13 1.8660249628142695e-12 2.61844642334995e-13 0.0024531293207841936 -5.059076030663888e-13 1.8660249628142695e-12 -5.059076030663888e-13 0.002489589921257077" free_energy=-22574.955216872506 pbc="T T T"
In       1.37183049       2.98636740       0.91490297        0      -0.00068821       0.00729040      -0.00809339
In       1.39144736       0.16872669       3.00199357        1       0.00068821       0.00729040       0.00809339
In       1.39144736       2.64891402       4.83179950        2       0.00068821      -0.00729040      -0.00809339
In       1.37183049       5.46655472       6.91889010        3      -0.00068821      -0.00729040       0.00809339
In       4.15472520       2.64891402       6.91889010        4       0.00068821      -0.00729040       0.00809339
In       4.13510834       5.46655472       4.83179950        5      -0.00068821      -0.00729040      -0.00809339
In       4.13510834       2.98636740       3.00199357        6      -0.00068821       0.00729040       0.00809339
In       4.15472520       0.16872669       0.91490297        7       0.00068821       0.00729040      -0.00809339
O        2.15325334       3.41005197       6.66707832        8       0.00495779       0.00634570       0.00402013
O        0.61002451       0.59241126       5.08361128        9      -0.00495779       0.00634570      -0.00402013
O        0.61002451       2.22522944       2.75018179       10      -0.00495779      -0.00634570       0.00402013
O        2.15325334       5.04287015       1.16671475       11       0.00495779      -0.00634570      -0.00402013
O        3.37330236       2.22522944       1.16671475       12      -0.00495779      -0.00634570      -0.00402013
O        4.91653119       5.04287015       2.75018179       13       0.00495779      -0.00634570       0.00402013
O        4.91653119       3.41005197       5.08361128       14       0.00495779       0.00634570      -0.00402013
O        3.37330236       0.59241126       6.66707832       15      -0.00495779       0.00634570       0.00402013
O        5.28326659       4.22646106      -0.00000000       16      -0.01120044      -0.00000000      -0.00000000
O        3.00656695       1.40882035       3.91689653       17       0.01120044      -0.00000000      -0.00000000
O        0.24328910       1.40882035      -0.00000000       18       0.01120044       0.00000000      -0.00000000
O        2.51998874       4.22646106       3.91689653       19      -0.01120044      -0.00000000      -0.00000000
20
Lattice="5.525129838230359 -9.773436935594774e-60 -1.6606349316992226e-42 -4.256810544509354e-59 5.637564764718611 1.7725514788396437e-16 1.7033284941893222e-42 -7.863179752182978e-17 7.83264102304152" Properties=species:S:1:pos:R:3:spacegroup_kinds:I:1:forces:R:3 spacegroup="P 1" unit_cell=conventional occupancy="_JSON {\"0\": {\"In\": 1}, \"1\": {\"In\": 1}, \"2\": {\"In\": 1}, \"3\": {\"In\": 1}, \"4\": {\"In\": 1}, \"5\": {\"In\": 1}, \"6\": {\"In\": 1}, \"7\": {\"In\": 1}, \"8\": {\"O\": 1}, \"9\": {\"O\": 1}, \"10\": {\"O\": 1}, \"11\": {\"O\": 1}, \"12\": {\"O\": 1}, \"13\": {\"O\": 1}, \"14\": {\"O\": 1}, \"15\": {\"O\": 1}, \"16\": {\"O\": 1}, \"17\": {\"O\": 1}, \"18\": {\"O\": 1}, \"19\": {\"O\": 1}}" n_minim_iter=8 energy=-22574.955315043906 stress="0.002402931601105156 1.8063330945921056e-12 1.4056486875400945e-12 1.8063330945921056e-12 0.002473234840063601 3.7424439169466084e-13 1.4056486875400945e-12 3.7424439169466084e-13 0.002511978107534944" free_energy=-22574.955315043906 pbc="T T T"
In       1.37115227       2.98827369       0.91460556        0       0.00010113       0.00460340       0.00221429
In       1.39141265       0.16949131       3.00171495        1      -0.00010113       0.00460340      -0.00221429
In       1.39141265       2.64929107       4.83092607        2      -0.00010113      -0.00460340       0.00221429
In       1.37115227       5.46807345       6.91803546        3       0.00010113      -0.00460340      -0.00221429
In       4.15397757       2.64929107       6.91803546        4      -0.00010113      -0.00460340      -0.00221429
In       4.13371718       5.46807345       4.83092607        5       0.00010113      -0.00460340       0.00221429
In       4.13371718       2.98827369       3.00171495        6       0.00010113       0.00460340      -0.00221429
In       4.15397757       0.16949131       0.91460556        7      -0.00010113       0.00460340       0.00221429
O        2.15303703       3.41160544       6.66664810        8       0.00164691       0.00521945      -0.00564723
O        0.60952789       0.59282306       5.08231344        9      -0.00164691       0.00521945       0.00564723
O        0.60952789       2.22595933       2.75032759       10      -0.00164691      -0.00521945      -0.00564723
O        2.15303703       5.04474171       1.16599293       11       0.00164691      -0.00521945       0.00564723
O        3.37209280       2.22595933       1.16599293       12      -0.00164691      -0.00521945       0.00564723
O        4.91560195       5.04474171       2.75032759       13       0.00164691      -0.00521945      -0.00564723
O        4.91560195       3.41160544       5.08231344       14       0.00164691       0.00521945       0.00564723
O        3.37209280       0.59282306       6.66664810       15      -0.00164691       0.00521945      -0.00564723
O        5.28057660       4.22817357      -0.00000000       16      -0.00593840       0.00000000      -0.00000000
O        3.00711816       1.40939119       3.91632051       17       0.00593840      -0.00000000       0.00000000
O        0.24455324       1.40939119      -0.00000000       18       0.00593840       0.00000000       0.00000000
O        2.51801168       4.22817357       3.91632051       19      -0.00593840       0.00000000       0.00000000
