10
Lattice="5.4576734965673985 -0.1073769715922615 -0.07414229002625017 2.90497699136016 4.621562342847991 -0.07414229002625039 2.9049769913601615 1.5681158332712228 4.348028093451678" Properties=species:S:1:pos:R:3:spacegroup_kinds:I:1:forces:R:3 spacegroup="P 1" unit_cell=conventional occupancy="_JSON {\"0\": {\"In\": 1}, \"1\": {\"In\": 1}, \"2\": {\"In\": 1}, \"3\": {\"In\": 1}, \"4\": {\"O\": 1}, \"5\": {\"O\": 1}, \"6\": {\"O\": 1}, \"7\": {\"O\": 1}, \"8\": {\"O\": 1}, \"9\": {\"O\": 1}}" n_minim_iter=1 energy=-11287.528887905726 stress="0.02065114921800636 -0.0021862109229467044 -0.0015095479187888542 -0.0021862109229467044 0.02352104044910627 -0.0008148587760936854 -0.0015095479187888542 -0.0008148587760936854 0.02413851553553214" free_energy=-11287.528887905726 pbc="T T T"
In       9.71327782       5.24325831       3.62039618        0       0.45217567       0.24408586       0.16853786
In       7.18816341       3.88019351       2.67921909        1      -0.45217567      -0.24408586      -0.16853786
In       4.07946408       2.20210771       1.52052443        2       0.45217567       0.24408586       0.16853786
In       1.55434967       0.83904290       0.57934733        3      -0.45217567      -0.24408586      -0.16853786
O        5.54574362       2.09322602       0.10576560        4       0.00000000       0.00460990      -0.00667631
O        6.47460942       4.74769320       0.97579359        5      -0.00385390       0.00713945      -0.00000000
O        7.52185482       1.90725873       2.27977965        6       0.00385390      -0.00252955      -0.00667631
O        3.74577267       4.17504248       1.91996387        7      -0.00385390       0.00252955       0.00667631
O        5.72188387       3.98907519       4.09397791        8       0.00000000      -0.00460990       0.00667631
O        4.79301807       1.33460802       3.22394993        9       0.00385390      -0.00713945       0.00000000
10
Lattice="5.475758499092964 -0.08816690519116917 -0.06087800911561259 2.9309603386123713 4.626140512029549 -0.06087800911561279 2.930960338612373 1.5821417268837217 4.347609656476567" Properties=species:S:1:pos:R:3:spacegroup_kinds:I:1:forces:R:3 spacegroup="P 1" unit_cell=conventional occupancy="_JSON {\"0\": {\"In\": 1}, \"1\": {\"In\": 1}, \"2\": {\"In\": 1}, \"3\": {\"In\": 1}, \"4\": {\"O\": 1}, \"5\": {\"O\": 1}, \"6\": {\"O\": 1}, \"7\": {\"O\": 1}, \"8\": {\"O\": 1}, \"9\": {\"O\": 1}}" n_minim_iter=2 energy=-11287.538889987027 stress="0.031597534632693276 0.005746256999640853 0.0039677097147979516 0.005746256999640853 0.024054285974109364 0.002141782342270497 0.0039677097147979516 0.002141782342270497 0.022431308752902435" free_energy=-11287.538889987027 pbc="T T T"
In       9.78016582       5.27936467       3.64532711        0       0.26373050       0.14236256       0.09829935
In       7.22635295       3.90080835       2.69345335        1      -0.26373050      -0.14236256      -0.09829935
In       4.11132623       2.21930700       1.53240030        2       0.26373050       0.14236256       0.09829935
In       1.55751336       0.84075068       0.58052653        3      -0.26373050      -0.14236256      -0.09829935
O        5.57229905       2.11041227       0.12163687        4      -0.00000000       0.05659976      -0.08197091
O        6.51572179       4.76614115       0.99558540        5      -0.04731768       0.08765728       0.00000000
O        7.55983665       1.93435763       2.29544169        6       0.04731768      -0.03105752      -0.08197091
O        3.77784254       4.18575772       1.93041195        7      -0.04731768       0.03105752       0.08197091
O        5.76538014       4.00970307       4.10421678        8       0.00000000      -0.05659976       0.08197091
O        4.82195740       1.35397419       3.23026824        9       0.04731768      -0.08765728       0.00000000
10
Lattice="5.318033367624778 -0.2597898671878108 -0.17938125273322403 2.700935461470974 4.588454784263712 -0.1793812527332243 2.700935461470974 1.457973565495701 4.354355063999769" Properties=species:S:1:pos:R:3:spacegroup_kinds:I:1:forces:R:3 spacegroup="P 1" unit_cell=conventional occupancy="_JSON {\"0\": {\"In\": 1}, \"1\": {\"In\": 1}, \"2\": {\"In\": 1}, \"3\": {\"In\": 1}, \"4\": {\"O\": 1}, \"5\": {\"O\": 1}, \"6\": {\"O\": 1}, \"7\": {\"O\": 1}, \"8\": {\"O\": 1}, \"9\": {\"O\": 1}}" n_minim_iter=3 energy=-11287.741826694602 stress="0.11258485366112246 -0.0021852847619546604 -0.0015089084207574087 -0.0021852847619546604 0.11545352911795255 -0.0008145135708092684 -0.0015089084207574087 -0.0008145135708092684 0.11607074261758683" free_energy=-11287.741826694602 pbc="T T T"
In       9.36603133       5.05581355       3.49096821        0       0.14778962       0.07977731       0.05508511
In       6.71382511       3.62414418       2.50242063        1      -0.14778962      -0.07977731      -0.05508511
In       4.00607919       2.16249431       1.49317193        2       0.14778962       0.07977731       0.05508511
In       1.35387297       0.73082494       0.50462435        3      -0.14778962      -0.07977731      -0.05508511
O        5.33899276       1.96721935      -0.03281695        4      -0.00000000      -0.32438255       0.46978878
O        6.14567716       4.61836542       0.81951689        5       0.27118543      -0.50237834       0.00000000
O        7.23324383       1.68883279       2.14436058        6      -0.27118543       0.17799579       0.46978878
O        3.48666047       4.09780570       1.85123198        7       0.27118543      -0.17799579      -0.46978878
O        5.38091154       3.81941914       4.02840951        8      -0.00000000       0.32438255      -0.46978878
O        4.57422714       1.16827307       3.17607567        9      -0.27118543       0.50237834       0.00000000
10
Lattice="5.305220850046084 -0.27416635842269244 -0.18930801791285634 2.6818861348280216 4.585632150496992 -0.18930801791285667 2.6818861348280207 1.4476906782952816 4.355232651110004" Properties=species:S:1:pos:R:3:spacegroup_kinds:I:1:forces:R:3 spacegroup="P 1" unit_cell=conventional occupancy="_JSON {\"0\": {\"In\": 1}, \"1\": {\"In\": 1}, \"2\": {\"In\": 1}, \"3\": {\"In\": 1}, \"4\": {\"O\": 1}, \"5\": {\"O\": 1}, \"6\": {\"O\": 1}, \"7\": {\"O\": 1}, \"8\": {\"O\": 1}, \"9\": {\"O\": 1}}" n_minim_iter=4 energy=-11287.75255962729 stress="0.10934790777844139 -0.007173827859197898 -0.004953427334067238 -0.007173827859197898 0.11876516278034324 -0.002673875848428216 -0.004953427334067238 -0.002673875848428216 0.12079134420249507" free_energy=-11287.75255962729 pbc="T T T"
In       9.33386419       5.03844962       3.47897866        0       0.01608557       0.00868304       0.00599552
In       6.66962550       3.60028509       2.48594626        1      -0.01608557      -0.00868304      -0.00599552
In       3.99936763       2.15887139       1.49067036        2       0.01608557       0.00868304       0.00599552
In       1.33512894       0.72070686       0.49763796        3      -0.01608557      -0.00868304      -0.00599552
O        5.31985871       1.95287512      -0.04211087        4       0.00000000      -0.32883296       0.47623411
O        6.11725710       4.60245323       0.80484614        5       0.27490600      -0.50927079      -0.00000000
O        7.20434645       1.66978925       2.13550545        6      -0.27490600       0.18043783       0.47623411
O        3.46464668       4.08936723       1.84111117        7       0.27490600      -0.18043783      -0.47623411
O        5.34913442       3.80628136       4.01872749        8      -0.00000000       0.32883296      -0.47623411
O        4.55173603       1.15670325       3.17177048        9      -0.27490600       0.50927079       0.00000000
10
Lattice="5.316047053784649 -0.26201403105843013 -0.18091700663199792 2.697986115589647 4.5880146632949454 -0.18091700663199847 2.697986115589647 1.4563814991942958 4.354487621144725" Properties=species:S:1:pos:R:3:spacegroup_kinds:I:1:forces:R:3 spacegroup="P 1" unit_cell=conventional occupancy="_JSON {\"0\": {\"In\": 1}, \"1\": {\"In\": 1}, \"2\": {\"In\": 1}, \"3\": {\"In\": 1}, \"4\": {\"O\": 1}, \"5\": {\"O\": 1}, \"6\": {\"O\": 1}, \"7\": {\"O\": 1}, \"8\": {\"O\": 1}, \"9\": {\"O\": 1}}" n_minim_iter=5 energy=-11287.793193872089 stress="0.14107562426951983 0.011431109764656087 0.007893020666613583 0.011431109764656087 0.12606973373327787 0.004260677695293415 0.007893020666613583 0.004260677695293415 0.12284112234952484" free_energy=-11287.793193872089 pbc="T T T"
In       9.38471921       5.06590132       3.49793368        0      -0.12139947      -0.06553182      -0.04524880
In       6.68330973       3.60767188       2.49104674        1       0.12139947       0.06553182       0.04524880
In       4.02870956       2.17471026       1.50160687        2      -0.12139947      -0.06553182      -0.04524880
In       1.32730009       0.71648082       0.49471993        3       0.12139947       0.06553182       0.04524880
O        5.33602835       1.94485885      -0.00508750        4      -0.00000000       0.04639609      -0.06719339
O        6.15811227       4.58470928       0.81724640        5      -0.03878736       0.07185464      -0.00000000
O        7.21193055       1.69693617       2.17215631        6       0.03878736      -0.02545855      -0.06719339
O        3.50008875       4.08544597       1.82049730        7      -0.03878736       0.02545855       0.06719339
O        5.37599094       3.83752329       3.99774111        8       0.00000000      -0.04639609       0.06719339
O        4.55390702       1.19767286       3.17540721        9       0.03878736      -0.07185464       0.00000000
10
Lattice="5.301112293039494 -0.27879144918944854 -0.19250157809565493 2.675765080903919 4.5847352646985895 -0.19250157809565555 2.675765080903919 1.4443865138894236 4.3555254451598" Properties=species:S:1:pos:R:3:spacegroup_kinds:I:1:forces:R:3 spacegroup="P 1" unit_cell=conventional occupancy="_JSON {\"0\": {\"In\": 1}, \"1\": {\"In\": 1}, \"2\": {\"In\": 1}, \"3\": {\"In\": 1}, \"4\": {\"O\": 1}, \"5\": {\"O\": 1}, \"6\": {\"O\": 1}, \"7\": {\"O\": 1}, \"8\": {\"O\": 1}, \"9\": {\"O\": 1}}" n_minim_iter=6 energy=-11287.806446897892 stress="0.12797176840811905 0.0014907927316410736 0.001029371430444884 0.0014907927316410736 0.12601476921927385 0.0005556579750629439 0.001029371430444884 0.0005556579750629439 0.12559370858384125" free_energy=-11287.806446897892 pbc="T T T"
In       9.32809731       5.03533664       3.47682919        0      -0.05765305      -0.03112130      -0.02148882
In       6.65086638       3.59015886       2.47895424        1       0.05765305       0.03112130       0.02148882
In       4.00177608       2.16017148       1.49156805        2      -0.05765305      -0.03112130      -0.02148882
In       1.32454516       0.71499370       0.49369310        3       0.05765305       0.03112130       0.02148882
O        5.31371676       1.93085453      -0.01988457        4       0.00000000      -0.02740666       0.03969185
O        6.12268598       4.57038073       0.80012900        5       0.02291211      -0.04244530      -0.00000000
O        7.18051263       1.67322155       2.15787815        6      -0.02291211       0.01503864       0.03969185
O        3.47212984       4.07710879       1.81264414        7       0.02291211      -0.01503864      -0.03969185
O        5.33892570       3.81947581       3.99040687        8      -0.00000000       0.02740666      -0.03969185
O        4.52995648       1.17994961       3.17039330        9      -0.02291211       0.04244530       0.00000000
10
Lattice="5.29684679497463 -0.2836010091460169 -0.19582251166186318 2.6694036928302673 4.583808397667354 -0.19582251166186398 2.6694036928302665 1.4409526163440916 4.355835332063231" Properties=species:S:1:pos:R:3:spacegroup_kinds:I:1:forces:R:3 spacegroup="P 1" unit_cell=conventional occupancy="_JSON {\"0\": {\"In\": 1}, \"1\": {\"In\": 1}, \"2\": {\"In\": 1}, \"3\": {\"In\": 1}, \"4\": {\"O\": 1}, \"5\": {\"O\": 1}, \"6\": {\"O\": 1}, \"7\": {\"O\": 1}, \"8\": {\"O\": 1}, \"9\": {\"O\": 1}}" n_minim_iter=7 energy=-11287.808111477549 stress="0.12532058332036017 -0.00015698158708164019 -0.00010839358015827246 -0.00015698158708164019 0.12552665678553138 -5.851119955852512e-05 -0.00010839358015827246 -5.851119955852512e-05 0.1255709947853588" free_energy=-11287.808111477549 pbc="T T T"
In       9.30964536       5.02537622       3.46995166        0      -0.00129719      -0.00070023      -0.00048350
In       6.64383592       3.58636380       2.47633380        1       0.00129719       0.00070023       0.00048350
In       3.99181827       2.15479622       1.48785651        2      -0.00129719      -0.00070023      -0.00048350
In       1.32600883       0.71578379       0.49423865        3       0.00129719       0.00070023       0.00048350
O        5.30733695       1.92491852      -0.02133416        4       0.00000000      -0.01826379       0.02645064
O        6.11416099       4.56330161       0.79522507        5       0.01526862      -0.02828554       0.00000000
O        7.16991660       1.66748691       2.15658351        6      -0.01526862       0.01002174       0.02645064
O        3.46573759       4.07367310       1.80760680        7       0.01526862      -0.01002174      -0.02645064
O        5.32831724       3.81624150       3.98552447        8       0.00000000       0.01826379      -0.02645064
O        4.52149320       1.17785840       3.16896525        9      -0.01526862       0.02828554      -0.00000000
10
Lattice="5.295151442541909 -0.2855148198614461 -0.19714397106805293 2.6668734606145055 4.583441224329614 -0.19714397106805334 2.666873460614504 1.4395867889343772 4.355960178805382" Properties=species:S:1:pos:R:3:spacegroup_kinds:I:1:forces:R:3 spacegroup="P 1" unit_cell=conventional occupancy="_JSON {\"0\": {\"In\": 1}, \"1\": {\"In\": 1}, \"2\": {\"In\": 1}, \"3\": {\"In\": 1}, \"4\": {\"O\": 1}, \"5\": {\"O\": 1}, \"6\": {\"O\": 1}, \"7\": {\"O\": 1}, \"8\": {\"O\": 1}, \"9\": {\"O\": 1}}" n_minim_iter=8 energy=-11287.80839882819 stress="0.12532121765431686 -0.00022600590087442065 -0.00015605389951348382 -0.00022600590087442065 0.12561790099747566 -8.423839435984807e-05 -0.00015605389951348382 -8.423839435984807e-05 0.12568173427224594" free_energy=-11287.80839882819 pbc="T T T"
In       9.30377371       5.02220669       3.46776314        0       0.00273704       0.00147746       0.00102017
In       6.63957385       3.58406312       2.47474522        1      -0.00273704      -0.00147746      -0.00102017
In       3.98932452       2.15345009       1.48692702        2       0.00273704       0.00147746       0.00102017
In       1.32512467       0.71530652       0.49390910        3      -0.00273704      -0.00147746      -0.00102017
O        5.30480032       1.92180065      -0.02081516        4       0.00000000      -0.00590861       0.00855718
O        6.11140363       4.55931466       0.79327409        5       0.00493963      -0.00915079       0.00000000
O        7.16507047       1.66562089       2.15716493        6      -0.00493963       0.00324218       0.00855718
O        3.46382791       4.07189232       1.80450731        7       0.00493963      -0.00324218      -0.00855718
O        5.32409806       3.81571255       3.98248740        8      -0.00000000       0.00590861      -0.00855718
O        4.51749474       1.17819854       3.16839815        9      -0.00493963       0.00915079      -0.00000000
10
Lattice="5.294872475436854 -0.28582985507695774 -0.1973614984574977 2.6664570142588944 4.58338087314393 -0.19736149845749812 2.6664570142588926 1.4393619898650951 4.355980813950695" Properties=species:S:1:pos:R:3:spacegroup_kinds:I:1:forces:R:3 spacegroup="P 1" unit_cell=conventional occupancy="_JSON {\"0\": {\"In\": 1}, \"1\": {\"In\": 1}, \"2\": {\"In\": 1}, \"3\": {\"In\": 1}, \"4\": {\"O\": 1}, \"5\": {\"O\": 1}, \"6\": {\"O\": 1}, \"7\": {\"O\": 1}, \"8\": {\"O\": 1}, \"9\": {\"O\": 1}}" n_minim_iter=9 energy=-11287.808427911908 stress="0.12566688796388295 -1.3119326618239185e-05 -9.058713460936706e-06 -1.3119326618239185e-05 0.1256841100127289 -4.889920707387147e-06 -9.058713460936706e-06 -4.889920707387147e-06 0.12568781544001234" free_energy=-11287.808427911908 pbc="T T T"
In       9.30306343       5.02182328       3.46749840        0       0.00039883       0.00021529       0.00014866
In       6.63861633       3.58354625       2.47438833        1      -0.00039883      -0.00021529      -0.00014866
In       3.98917018       2.15336677       1.48686950        2       0.00039883       0.00021529       0.00014866
In       1.32472308       0.71508974       0.49375942        3      -0.00039883      -0.00021529      -0.00014866
O        5.30438287       1.92099862      -0.02031142        4      -0.00000000      -0.00032265       0.00046728
O        6.11119133       4.55821114       0.79295296        5       0.00026974      -0.00049969       0.00000000
O        7.16403142       1.66547225       2.15767899        6      -0.00026974       0.00017704       0.00046728
O        3.46375509       4.07144077       1.80357883        7       0.00026974      -0.00017704      -0.00046728
O        5.32340364       3.81591439       3.98156924        8      -0.00000000       0.00032265      -0.00046728
O        4.51659518       1.17870188       3.16830486        9      -0.00026974       0.00049969      -0.00000000
