10
Lattice="5.242444551911021 -0.28299967061965187 -0.19540729585939656 2.640054715605432 4.537997883653308 -0.195407295859401 2.640054715605427 1.425109944951702 4.312849458086469" Properties=species:S:1:pos:R:3:spacegroup_kinds:I:1:forces:R:3 spacegroup="P 1" unit_cell=conventional occupancy="_JSON {\"0\": {\"In\": 1}, \"1\": {\"In\": 1}, \"2\": {\"In\": 1}, \"3\": {\"In\": 1}, \"4\": {\"O\": 1}, \"5\": {\"O\": 1}, \"6\": {\"O\": 1}, \"7\": {\"O\": 1}, \"8\": {\"O\": 1}, \"9\": {\"O\": 1}}" n_minim_iter=1 energy=-11288.266167405325 stress="0.14996090145765498 -0.0027730731844603294 -0.0019147680709948715 -0.0027730731844603294 0.15360118078616186 -0.0010335979043118687 -0.0019147680709948715 -0.0010335979043118687 0.15438440970233566" free_energy=-11288.266167405325 pbc="T T T"
In       9.21094784       4.97209899       3.43316448        0       0.15707210       0.08478802       0.05854494
In       6.57288312       3.54806325       2.44988781        1      -0.15707210      -0.08478802      -0.05854494
In       3.94967085       2.13204491       1.47214705        2       0.15707210       0.08478802       0.05854494
In       1.31160613       0.70800917       0.48887038        3      -0.15707210      -0.08478802      -0.05854494
O        5.25186077       1.90197758      -0.02011031        4       0.00000000      -0.02021399       0.02927502
O        6.05068050       4.51307736       0.78510142        5       0.01689900      -0.03130585      -0.00000000
O        7.09309575       1.64898133       2.13631442        6      -0.01689900       0.01109186       0.02927502
O        3.42945822       4.03112682       1.78572044        7       0.01689900      -0.01109186      -0.02927502
O        5.27069320       3.77813058       3.94214517        8      -0.00000000       0.02021399      -0.02927502
O        4.47187347       1.16703079       3.13693344        9      -0.01689900       0.03130585      -0.00000000
10
Lattice="5.254712143245152 -0.2691785105888147 -0.18586397907265806 2.658340769658404 4.540669678726132 -0.1858639790726625 2.658340769658399 1.434980815176767 4.31196667543874" Properties=species:S:1:pos:R:3:spacegroup_kinds:I:1:forces:R:3 spacegroup="P 1" unit_cell=conventional occupancy="_JSON {\"0\": {\"In\": 1}, \"1\": {\"In\": 1}, \"2\": {\"In\": 1}, \"3\": {\"In\": 1}, \"4\": {\"O\": 1}, \"5\": {\"O\": 1}, \"6\": {\"O\": 1}, \"7\": {\"O\": 1}, \"8\": {\"O\": 1}, \"9\": {\"O\": 1}}" n_minim_iter=2 energy=-11288.270188096038 stress="0.15743221963436504 0.00046813039375028783 0.0003232374602292796 0.00046813039375028783 0.15681769369563348 0.00017448461190885394 0.0003232374602292796 0.00017448461190885394 0.1566854745953781" free_energy=-11288.270188096038 pbc="T T T"
In       9.25506790       4.99591514       3.44960920        0       0.08689939       0.04690857       0.03238971
In       6.60202261       3.56379284       2.46074887        1      -0.08689939      -0.04690857      -0.03238971
In       3.96937106       2.14267915       1.47948984        2       0.08689939       0.04690857       0.03238971
In       1.31632577       0.71055685       0.49062952        3      -0.08689939      -0.04690857      -0.03238971
O        5.27020449       1.91386244      -0.00844632        4       0.00000000       0.01636326      -0.02369817
O        6.07951880       4.52541101       0.79919570        5      -0.01367976       0.02534213       0.00000000
O        7.11923094       1.66830541       2.14753702        6       0.01367976      -0.00897888      -0.02369817
O        3.45216273       4.03816657       1.79270170        7      -0.01367976       0.00897888       0.02369817
O        5.30118918       3.79260954       3.94868504        8      -0.00000000      -0.01636326       0.02369817
O        4.49187487       1.18106097       3.14104302        9       0.01367976      -0.02534213       0.00000000
10
Lattice="5.2519356450055215 -0.27230082458450916 -0.18801989301201608 2.6542069743524794 4.540061794254309 -0.18801989301202046 2.6542069743524745 1.4327493793030914 4.3121620785775825" Properties=species:S:1:pos:R:3:spacegroup_kinds:I:1:forces:R:3 spacegroup="P 1" unit_cell=conventional occupancy="_JSON {\"0\": {\"In\": 1}, \"1\": {\"In\": 1}, \"2\": {\"In\": 1}, \"3\": {\"In\": 1}, \"4\": {\"O\": 1}, \"5\": {\"O\": 1}, \"6\": {\"O\": 1}, \"7\": {\"O\": 1}, \"8\": {\"O\": 1}, \"9\": {\"O\": 1}}" n_minim_iter=3 energy=-11288.271122622897 stress="0.15401409861180698 -0.0016461590063246133 -0.0011366496646592456 -0.0016461590063246133 0.15617505082185726 -0.0006135671117810414 -0.0011366496646592456 -0.0006135671117810414 0.15663999323575897" free_energy=-11288.271122622897 pbc="T T T"
In       9.24861074       4.99242954       3.44720244        0       0.02915660       0.01573883       0.01086744
In       6.59191364       3.55833598       2.45698099        1      -0.02915660      -0.01573883      -0.01086744
In       3.96843594       2.14217436       1.47914129        2       0.02915660       0.01573883       0.01086744
In       1.31173885       0.70808081       0.48891985        3      -0.02915660      -0.01573883      -0.01086744
O        5.26605521       1.91157267      -0.01165666        4      -0.00000000      -0.00590044       0.00854535
O        6.07266576       4.52323532       0.79601068        5       0.00493280      -0.00913814      -0.00000000
O        7.11365164       1.66372011       2.14442437        6      -0.00493280       0.00323770       0.00854535
O        3.44669794       4.03679023       1.79169791        7       0.00493280      -0.00323770      -0.00854535
O        5.29429437       3.78893768       3.94777895        8      -0.00000000       0.00590044      -0.00854535
O        4.48768382       1.17727503       3.14011161        9      -0.00493280       0.00913814      -0.00000000
10
Lattice="5.256527689269777 -0.2671386585839887 -0.18445548992726923 2.661042325870097 4.541068172896964 -0.1844554899272736 2.6610423258700933 1.4364391238252094 4.311840282548323" Properties=species:S:1:pos:R:3:spacegroup_kinds:I:1:forces:R:3 spacegroup="P 1" unit_cell=conventional occupancy="_JSON {\"0\": {\"In\": 1}, \"1\": {\"In\": 1}, \"2\": {\"In\": 1}, \"3\": {\"In\": 1}, \"4\": {\"O\": 1}, \"5\": {\"O\": 1}, \"6\": {\"O\": 1}, \"7\": {\"O\": 1}, \"8\": {\"O\": 1}, \"9\": {\"O\": 1}}" n_minim_iter=4 energy=-11288.27146707783 stress="0.15942716535391185 0.000729170034108665 0.0005034816643096791 0.000729170034108665 0.15846996644952582 0.0002717810075534322 0.0005034816643096791 0.0002717810075534322 0.15826401910652027" free_energy=-11288.27146707783 pbc="T T T"
In       9.26730744       5.00252208       3.45417120        0      -0.01212544      -0.00654535      -0.00451947
In       6.60061106       3.56303088       2.46022275        1       0.01212544       0.00654535       0.00451947
In       3.97800127       2.14733776       1.48270655        2      -0.01212544      -0.00654535      -0.00451947
In       1.31130488       0.70784656       0.48875810        3       0.01212544       0.00654535       0.00451947
O        5.27291692       1.91645166      -0.00793133        4      -0.00000000       0.00244108      -0.00353530
O        6.08308448       4.52852604       0.80127683        5      -0.00204075       0.00378055      -0.00000000
O        7.12379169       1.67070209       2.14798881        6       0.00204075      -0.00133947      -0.00353530
O        3.45482064       4.03966654       1.79494049        7      -0.00204075       0.00133947       0.00353530
O        5.30569540       3.79391698       3.95086063        8       0.00000000      -0.00244108       0.00353530
O        4.49552785       1.18184259       3.14165247        9       0.00204075      -0.00378055       0.00000000
10
Lattice="5.255120351165634 -0.268719744280838 -0.1855472073835716 2.6589482931826964 4.540759207487491 -0.18554720738357597 2.6589482931826924 1.4353087583103485 4.3119381622268085" Properties=species:S:1:pos:R:3:spacegroup_kinds:I:1:forces:R:3 spacegroup="P 1" unit_cell=conventional occupancy="_JSON {\"0\": {\"In\": 1}, \"1\": {\"In\": 1}, \"2\": {\"In\": 1}, \"3\": {\"In\": 1}, \"4\": {\"O\": 1}, \"5\": {\"O\": 1}, \"6\": {\"O\": 1}, \"7\": {\"O\": 1}, \"8\": {\"O\": 1}, \"9\": {\"O\": 1}}" n_minim_iter=5 energy=-11288.271548881181 stress="0.15779920571097802 2.547052312366495e-06 1.7587036286987956e-06 2.547052312366495e-06 0.15779586213969984 9.493546032533047e-07 1.7587036286987956e-06 9.493546032533047e-07 0.15779514274510584" free_energy=-11288.271548881181 pbc="T T T"
In       9.26160455       4.99944364       3.45204558        0      -0.00011186      -0.00006038      -0.00004169
In       6.59792084       3.56157869       2.45922004        1       0.00011186       0.00006038       0.00004169
In       3.97509608       2.14576953       1.48162371        2      -0.00011186      -0.00006038      -0.00004169
In       1.31141238       0.70790458       0.48879816        3       0.00011186       0.00006038       0.00004169
O        5.27081440       1.91495780      -0.00907357        4       0.00000000      -0.00025903       0.00037515
O        6.07989165       4.52690611       0.79966373        5       0.00021655      -0.00040117       0.00000000
O        7.12068545       1.66856285       2.14689551        6      -0.00021655       0.00014214       0.00037515
O        3.45233148       4.03878537       1.79394824        7       0.00021655      -0.00014214      -0.00037515
O        5.30220252       3.79239043       3.94991732        8       0.00000000       0.00025903      -0.00037515
O        4.49312527       1.18044211       3.14118002        9      -0.00021655       0.00040117       0.00000000
