10
Lattice="5.717077521897979 -0.002049331887519177 -0.0014150348711814958 3.135372078866545 4.780629824428618 -0.001415034871178909 3.1353720788665482 1.69248383539351 4.471009056965972" Properties=species:S:1:pos:R:3:spacegroup_kinds:I:1:forces:R:3 spacegroup="P 1" unit_cell=conventional occupancy="_JSON {\"0\": {\"In\": 1}, \"1\": {\"In\": 1}, \"2\": {\"In\": 1}, \"3\": {\"In\": 1}, \"4\": {\"O\": 1}, \"5\": {\"O\": 1}, \"6\": {\"O\": 1}, \"7\": {\"O\": 1}, \"8\": {\"O\": 1}, \"9\": {\"O\": 1}}" n_minim_iter=1 energy=-11287.633454670502 stress="-0.009742486079717463 0.008286870564345988 0.005721967677467894 0.008286870564345988 -0.02062085879342333 0.003088736379178592 0.005721967677467894 0.003088736379178592 -0.022961408853606348" free_energy=-11287.633454670502 pbc="T T T"
In      10.27747527       5.54781389       3.83068753        0       0.00298320       0.00161034       0.00111192
In       7.70425726       4.15878261       2.87158095        1      -0.00298320      -0.00161034      -0.00111192
In       4.28356443       2.31228173       1.59659804        2       0.00298320       0.00161034       0.00111192
In       1.71034642       0.92325045       0.63749146        3      -0.00298320      -0.00161034      -0.00111192
O        5.85549419       2.24629593       0.20458152        4       0.00000000      -0.00019267       0.00027903
O        6.89686952       4.98206115       1.11562971        5       0.00016107      -0.00029839       0.00000000
O        7.94949093       2.11753303       2.44008605        6      -0.00016107       0.00010572       0.00027903
O        4.03833076       4.35353131       2.02809294        7       0.00016107      -0.00010572      -0.00027903
O        6.13232750       4.22476841       4.26359747        8       0.00000000       0.00019267      -0.00027903
O        5.09095217       1.48900319       3.35254928        9      -0.00016107       0.00029839       0.00000000
