80
Lattice="11.755381448387537 0.008359320644011887 0.005771993439749552 6.45742304047299 9.82297055638996 0.005771993439748205 6.457423040472988 3.485737526325443 9.183703924080895" Properties=species:S:1:pos:R:3:spacegroup_kinds:I:1:forces:R:3 spacegroup="P 1" unit_cell=conventional occupancy="_JSON {\"0\": {\"In\": 1}, \"1\": {\"In\": 1}, \"2\": {\"In\": 1}, \"3\": {\"In\": 1}, \"4\": {\"O\": 1}, \"5\": {\"O\": 1}, \"6\": {\"O\": 1}, \"7\": {\"O\": 1}, \"8\": {\"O\": 1}, \"9\": {\"O\": 1}}" n_minim_iter=4 energy=-90301.44720996507 stress="5.050829943841715e-05 -5.5698281766368295e-05 -5.967680436297849e-06 -5.5698281766368295e-05 4.1038230828161526e-05 -6.270905373537116e-05 -5.967680436297849e-06 -6.270905373537116e-05 3.5871669020417376e-05" free_energy=-11287.68098606301 pbc="T T T"
In      10.56348398       5.70790780       3.94123013        0       0.12355663      -0.01088537      -0.00799083
In      16.45175824       5.71209499       3.94412133        0      -0.00358766       0.00244746       0.00192685
In      13.80277904      10.61940061       3.94412133        0       0.00139551      -0.00062653       0.00174098
In      19.68046976      10.62358027       3.94700732        0       0.00343528       0.00401136       0.00099463
In      13.80277904       7.45078409       8.53308729        0       0.00162070       0.00124766      -0.00151088
In      19.68046976       7.45496375       8.53597329        0       0.00547514       0.00293243       0.00174933
In      17.03149056      12.36226937       8.53597329        0       0.00510369       0.00125909       0.00291846
In      22.90918128      12.36644903       8.53885929        0       0.00339717       0.00241715       0.00166753
In       7.92860314       4.27988523       2.95520061        1      -0.02736355      -0.01976149      -0.01400220
In      13.80629386       4.28406489       2.95808661        1      -0.01610357       0.00349411       0.00382155
In      11.15731466       9.19137051       2.95808661        1      -0.00227167      -0.00561389      -0.00089816
In      17.03500538       9.19555017       2.96097260        1      -0.00084912      -0.00654393      -0.00148956
In      11.15731466       6.02275399       7.54705257        1      -0.00227644      -0.00290006      -0.00346136
In      17.03500538       6.02693365       7.54993857        1      -0.00083595      -0.00276873      -0.00351012
In      14.38602618      10.93423927       7.54993857        1      -0.00299848      -0.00134402      -0.00194209
In      20.26371690      10.93841893       7.55282457        1      -0.00447320      -0.00309512      -0.00137471
In       4.40651064       2.37864848       1.64242335        2       0.00441658       0.00327032       0.00181358
In      10.28420136       2.38282814       1.64530935        2       0.00484607       0.00358838       0.00279375
In       7.63522216       7.29013376       1.64530935        2      -0.00001786       0.00447791      -0.00346694
In      13.51291288       7.29431342       1.64819534        2      -0.00004191      -0.00001465       0.00758331
In       7.63522216       4.12151724       6.23427531        2      -0.00001435      -0.00008552       0.00499494
In      13.51291288       4.12569690       6.23716131        2       0.00004112       0.00675810      -0.00430736
In      10.86393368       9.03300252       6.23716131        2       0.00487611       0.00121254       0.00104699
In      16.74162440       9.03718218       6.24004731        2       0.00435867       0.00326655       0.00179023
In       1.76104626       0.95061838       0.65638863        3      -0.00187654      -0.00421027      -0.00287172
In       7.63873698       0.95479804       0.65927463        3      -0.00540781      -0.00143387      -0.00289076
In       4.98975778       5.86210366       0.65927463        3      -0.00506201      -0.00342082       0.00008195
In      10.86744850       5.86628332       0.66216062        3       0.00023488      -0.00146174       0.00084293
In       4.98975778       2.69348714       5.24824059        3      -0.00352698      -0.00212486      -0.00200868
In      10.86744850       2.69766680       5.25112659        3       0.00222350      -0.00092806      -0.00261344
In       8.21846930       7.60497242       5.25112659        3      -0.01477069       0.01016328       0.00715526
In      14.09616002       7.60915208       5.25401259        3      -0.01076436      -0.00444834      -0.00306253
O        6.02262381       2.31219048       0.21604761        4       0.00042047       0.00115949      -0.00049006
O       11.90031453       2.31637014       0.21893361        4       0.00058961       0.00049807      -0.00145859
O        9.25133533       7.22367576       0.21893361        4      -0.00056844       0.00083258      -0.00035816
O       15.12902605       7.22785542       0.22181960        4       0.00038714       0.00104439      -0.00160068
O        9.25133533       4.05505924       4.80789957        4      -0.01017171      -0.00896083       0.00559249
O       15.12902605       4.05923890       4.81078557        4       0.00334064       0.00048218       0.00082694
O       12.48004685       8.96654452       4.81078557        4       0.00196782       0.00245046       0.00042363
O       18.35773757       8.97072418       4.81367157        4       0.00099225      -0.00185715      -0.00050201
O        7.09736576       5.12211508       1.15229199        5      -0.00238696       0.00118211       0.00053493
O       12.97505648       5.12629474       1.15517799        5       0.00254015      -0.00002860      -0.00292517
O       10.32607728      10.03360036       1.15517799        5       0.00021401      -0.00092217      -0.00009464
O       16.20376800      10.03778002       1.15806398        5       0.00020442      -0.00143034       0.00012846
O       10.32607728       6.86498384       5.74414395        5      -0.00057046       0.00160729       0.00544201
O       16.20376800       6.86916350       5.74702995        5       0.00059915       0.00139337      -0.00211910
O       13.55478880      11.77646912       5.74702995        5      -0.00025008       0.00067710       0.00094776
O       19.43247952      11.78064878       5.74991595        5      -0.00012316      -0.00104326       0.00076420
O        8.17659338       2.18397568       2.51197360        6      -0.00021075      -0.00050030      -0.00107167
O       14.05428410       2.18815534       2.51485960        6       0.00070832      -0.00123345      -0.00061481
O       11.40530490       7.09546096       2.51485960        6      -0.01015350      -0.01437738       0.01469950
O       17.28299562       7.09964062       2.51774559        6       0.00369854       0.00055487      -0.00004930
O       11.40530490       3.92684444       7.10382556        6      -0.00020476      -0.00078766       0.00262963
O       17.28299562       3.93102410       7.10671156        6       0.00073117      -0.00077747      -0.00019014
O       14.63401642       8.83832972       7.10671156        6       0.00131041       0.00062233       0.00133319
O       20.51170714       8.84250938       7.10959756        6      -0.00053568      -0.00036413       0.00025356
O        4.15852040       4.47455803       2.08565036        7       0.00063963       0.00078953       0.00270967
O       10.03621112       4.47873769       2.08853636        7      -0.00574164      -0.00240836      -0.00544920
O        7.38723192       9.38604331       2.08853636        7       0.00002887      -0.00195602       0.00022295
O       13.26492264       9.39022297       2.09142235        7       0.00148886       0.00190810      -0.00017098
O        7.38723192       6.21742679       6.67750232        7      -0.00174281       0.00080368       0.00120740
O       13.26492264       6.22160645       6.68038832        7       0.00288107       0.00135339       0.00344585
O       10.61594344      11.12891207       6.68038832        7      -0.00048316       0.00225815       0.00114780
O       16.49363416      11.13309173       6.68327432        7      -0.00019354       0.00057127      -0.00020064
O        6.31248997       4.34634324       4.38157635        8      -0.00151894      -0.00067813       0.00116786
O       12.19018069       4.35052290       4.38446235        8      -0.03396470       0.02843317      -0.01038046
O        9.54120149       9.25782852       4.38446235        8      -0.00104636       0.00008005       0.00064984
O       15.41889221       9.26200818       4.38734834        8      -0.00007652       0.00061786       0.00064570
O        9.54120149       6.08921200       8.97342831        8      -0.00087921       0.00067547      -0.00077157
O       15.41889221       6.09339166       8.97631431        8       0.00015098      -0.00048829       0.00062447
O       12.76991301      11.00069728       8.97631431        8       0.00038571       0.00018355       0.00094558
O       18.64760373      11.00487694       8.97920031        8       0.00061208      -0.00032892      -0.00045728
O        5.23774801       1.53641864       3.44533197        9       0.00136561       0.00023160       0.00032489
O       11.11543873       1.54059830       3.44821797        9      -0.00148110       0.00026902       0.00067998
O        8.46645953       6.44790392       3.44821797        9      -0.02348753       0.00824740      -0.00384552
O       14.34415025       6.45208358       3.45110396        9       0.00700585       0.00076125      -0.00014661
O        8.46645953       3.27928740       8.03718393        9      -0.00069570       0.00063115      -0.00012430
O       14.34415025       3.28346706       8.04006993        9       0.00045529      -0.00101300      -0.00019524
O       11.69517105       8.19077268       8.04006993        9       0.00086540       0.00043109       0.00094713
O       17.57286177       8.19495234       8.04295593        9       0.00016437      -0.00047356      -0.00060025
