80
Lattice="11.755381448387537 0.008359320644011887 0.005771993439749552 6.45742304047299 9.82297055638996 0.005771993439748205 6.457423040472988 3.485737526325443 9.183703924080895" Properties=species:S:1:pos:R:3:spacegroup_kinds:I:1:forces:R:3 spacegroup="P 1" unit_cell=conventional occupancy="_JSON {\"0\": {\"In\": 1}, \"1\": {\"In\": 1}, \"2\": {\"In\": 1}, \"3\": {\"In\": 1}, \"4\": {\"O\": 1}, \"5\": {\"O\": 1}, \"6\": {\"O\": 1}, \"7\": {\"O\": 1}, \"8\": {\"O\": 1}, \"9\": {\"O\": 1}}" n_minim_iter=4 energy=-90301.4475440929 stress="2.822254272738731e-05 -4.668871410623146e-06 4.240397349062071e-05 -4.668871410623146e-06 4.710069600421416e-05 1.2164121017454842e-05 4.240397349062071e-05 1.2164121017454842e-05 2.0252085885664498e-05" free_energy=-11287.68098606301 pbc="T T T"
In      10.57406752       5.70791533       3.94123533        0       0.00595194       0.00337799       0.00405238
In      16.45175824       5.71209499       3.94412133        0       0.00550399       0.00126042       0.00125577
In      13.80277904      10.61940061       3.94412133        0       0.00514800       0.00054848       0.00252926
In      19.68046976      10.62358027       3.94700732        0       0.00580414       0.00246742       0.00283581
In      13.80277904       7.45078409       8.53308729        0      -0.00750562      -0.01555098       0.00704247
In      19.68046976       7.45496375       8.53597329        0       0.00695972       0.00218951       0.00198996
In      17.03149056      12.36226937       8.53597329        0       0.00787209       0.00891866       0.00321164
In      22.90918128      12.36644903       8.53885929        0       0.00381382       0.00344260       0.00203213
In       7.92860314       4.27988523       2.95520061        1      -0.00264905      -0.00048719       0.00170745
In      13.80629386       4.28406489       2.95808661        1      -0.00517510      -0.00254886      -0.00185804
In      11.15731466       9.19137051       2.95808661        1      -0.00508646      -0.00441195      -0.00158460
In      17.03500538       9.19555017       2.96097260        1      -0.00545252      -0.00263658      -0.00200126
In      11.15731466       6.02275399       7.54705257        1      -0.00857765      -0.00687794      -0.00492246
In      17.03500538       6.02693365       7.54993857        1      -0.00219432      -0.00249312      -0.00258707
In      14.38602618      10.93423927       7.54993857        1      -0.00454296      -0.00191503      -0.00095621
In      20.26371690      10.93841893       7.55282457        1      -0.00544777      -0.00214956      -0.00136243
In       4.40651064       2.37864848       1.64242335        2      -0.01417433       0.00301865       0.01653084
In      10.28420136       2.38282814       1.64530935        2       0.00465668       0.00242724       0.00151769
In       7.63522216       7.29013376       1.64530935        2       0.00508832       0.00657716       0.00043542
In      13.51291288       7.29431342       1.64819534        2       0.00389437       0.00396340       0.00104100
In       7.63522216       4.12151724       6.23427531        2       0.00540624       0.00373536       0.00275247
In      13.51291288       4.12569690       6.23716131        2       0.00475582       0.00234878       0.00366307
In      10.86393368       9.03300252       6.23716131        2       0.00464359       0.00200085       0.00092467
In      16.74162440       9.03718218       6.24004731        2       0.00591424       0.00287525      -0.00047829
In       1.76104626       0.95061838       0.65638863        3      -0.00614329      -0.00448848      -0.00143838
In       7.63873698       0.95479804       0.65927463        3       0.00065527      -0.00677106      -0.00171517
In       4.98975778       5.86210366       0.65927463        3      -0.00532934       0.00085875      -0.00047827
In      10.86744850       5.86628332       0.66216062        3      -0.00425315      -0.00216192       0.00025495
In       4.98975778       2.69348714       5.24824059        3      -0.00467375      -0.00238925      -0.00242877
In      10.86744850       2.69766680       5.25112659        3      -0.00513072      -0.00269223       0.00123752
In       8.21846930       7.60497242       5.25112659        3      -0.00440952      -0.00257320      -0.00200443
In      14.09616002       7.60915208       5.25401259        3      -0.00467749      -0.00275046      -0.00198992
O        6.01681010       2.30334672       0.21604241        4       0.04391195       0.04867080      -0.03479207
O       11.90031453       2.31637014       0.21893361        4       0.00043309      -0.00054931      -0.00026079
O        9.25133533       7.22367576       0.21893361        4       0.00040860       0.00032840       0.00050770
O       15.12902605       7.22785542       0.22181960        4      -0.00052363       0.00098391       0.00069569
O        9.25133533       4.05505924       4.80789957        4       0.00088696       0.00120403      -0.00016839
O       15.12902605       4.05923890       4.81078557        4      -0.00002658       0.00071323       0.00043819
O       12.48004685       8.96654452       4.81078557        4      -0.00035851       0.00150557      -0.00148683
O       18.35773757       8.97072418       4.81367157        4       0.00003969       0.00043494       0.00054684
O        7.09736576       5.12211508       1.15229199        5      -0.00532899      -0.00980312      -0.00352723
O       12.97505648       5.12629474       1.15517799        5      -0.00080574       0.00018402      -0.00028360
O       10.32607728      10.03360036       1.15517799        5      -0.00692978      -0.00876083       0.00326263
O       16.20376800      10.03778002       1.15806398        5      -0.00020858       0.00042570       0.00006901
O       10.32607728       6.86498384       5.74414395        5       0.00017758       0.00013557       0.00048554
O       16.20376800       6.86916350       5.74702995        5       0.00092052       0.00004730      -0.00048699
O       13.55478880      11.77646912       5.74702995        5      -0.00038588       0.00005682       0.00037401
O       19.43247952      11.78064878       5.74991595        5       0.00017801       0.00053511      -0.00100771
O        8.17659338       2.18397568       2.51197360        6      -0.00295182       0.00043814      -0.00495598
O       14.05428410       2.18815534       2.51485960        6       0.00181152      -0.00003635      -0.00103721
O       11.40530490       7.09546096       2.51485960        6      -0.00033605      -0.00099755      -0.00041359
O       17.28299562       7.09964062       2.51774559        6      -0.00017594       0.00052754       0.00108705
O       11.40530490       3.92684444       7.10382556        6      -0.00296169      -0.00401543      -0.00528356
O       17.28299562       3.93102410       7.10671156        6      -0.00029188      -0.00065257      -0.00003451
O       14.63401642       8.83832972       7.10671156        6       0.00174461       0.00248840      -0.00243565
O       20.51170714       8.84250938       7.10959756        6      -0.00019380       0.00078552       0.00004113
O        4.15852040       4.47455803       2.08565036        7       0.00064680      -0.00236077      -0.00010927
O       10.03621112       4.47873769       2.08853636        7       0.00186952      -0.00000938       0.00031482
O        7.38723192       9.38604331       2.08853636        7      -0.00093273       0.00084689      -0.00042092
O       13.26492264       9.39022297       2.09142235        7       0.00063609      -0.00414721       0.00426181
O        7.38723192       6.21742679       6.67750232        7       0.00020599       0.00067665      -0.00085800
O       13.26492264       6.22160645       6.68038832        7      -0.00389477      -0.00027875       0.00943604
O       10.61594344      11.12891207       6.68038832        7      -0.00006799       0.00007580      -0.00106445
O       16.49363416      11.13309173       6.68327432        7       0.00021621       0.00148533       0.00030236
O        6.31248997       4.34634324       4.38157635        8      -0.00146952      -0.00280787      -0.00136417
O       12.19018069       4.35052290       4.38446235        8       0.00031098       0.00117175      -0.00042932
O        9.54120149       9.25782852       4.38446235        8      -0.00022370      -0.00130302       0.00178792
O       15.41889221       9.26200818       4.38734834        8       0.00008855      -0.00102274       0.00146993
O        9.54120149       6.08921200       8.97342831        8      -0.00470412       0.00254968      -0.00156262
O       15.41889221       6.09339166       8.97631431        8      -0.00879078      -0.00240984       0.00339304
O       12.76991301      11.00069728       8.97631431        8       0.00005316       0.00217395      -0.00067400
O       18.64760373      11.00487694       8.97920031        8      -0.00111179      -0.00256983      -0.00176596
O        5.23774801       1.53641864       3.44533197        9      -0.00039708      -0.00001439       0.00326630
O       11.11543873       1.54059830       3.44821797        9      -0.00053194      -0.00000989       0.00020186
O        8.46645953       6.44790392       3.44821797        9      -0.00033615       0.00005817       0.00044730
O       14.34415025       6.45208358       3.45110396        9      -0.00086215       0.00015942      -0.00021047
O        8.46645953       3.27928740       8.03718393        9       0.00124619      -0.00108896       0.00046126
O       14.34415025       3.28346706       8.04006993        9       0.00242945      -0.00186023      -0.00264368
O       11.69517105       8.19077268       8.04006993        9       0.00515398      -0.01036709       0.00496124
O       17.57286177       8.19495234       8.04295593        9       0.00078696      -0.00071020       0.00025608
