80
Lattice="11.758812762970885 0.0 0.0 6.452317444010323 9.830426094342354 0.0 6.452317444010323 3.4829815090918417 9.192720870539437" Properties=species:S:1:pos:R:3:initial_magmoms:R:1:forces:R:3 uid=supercell-005.xyz_R3c type=Bulk energy=-90301.49383751096 stress="0.0022063328967160305 -0.0008070605976751524 -0.0006188382739852704 -0.0008070605976751524 0.0032796592205866257 -0.00030207387558034714 -0.0006188382739852704 -0.00030207387558034714 0.0035661244156658606" virial="-2.076304998654833e-06 7.594973340897207e-07 5.823676941711851e-07 7.594973340897207e-07 -3.0863759697024823e-06 2.842714708936497e-07 5.823676941711851e-07 2.842714708936497e-07 -3.3559586411882534e-06" pbc="T T T"
In      10.57093864       5.70622635       3.94006911      10.00000000       0.00208054       0.00048568      -0.00014732
In      16.45034502       5.70622635       3.94006911      10.00000000       0.00396978       0.00306450       0.00384277
In      13.79709736      10.62143940       3.94006911      10.00000000       0.00625807       0.00286292      -0.00177483
In      19.67650374      10.62143940       3.94006911      10.00000000       0.00095748       0.00121587       0.00212836
In      13.79709736       7.44771711       8.53642955      10.00000000       0.01828003       0.00407211       0.00016712
In      19.67650374       7.44771711       8.53642955      10.00000000      -0.00352575       0.00570888      -0.00082661
In      17.02325608      12.36293015       8.53642955      10.00000000       0.00270146      -0.00298634      -0.00131358
In      22.90266246      12.36293015       8.53642955      10.00000000       0.00059033       0.00348590       0.00106881
In       7.92664710       4.27882935       2.95447155      10.00000000      -0.00264489      -0.00507330      -0.00396387
In      13.80605348       4.27882935       2.95447155      10.00000000      -0.00496711      -0.00046537       0.00105621
In      11.15280582       9.19404240       2.95447155      10.00000000       0.00075719      -0.00390088       0.00121896
In      17.03221221       9.19404240       2.95447155      10.00000000      -0.00458556      -0.00083355      -0.00158509
In      11.15280582       6.02032010       7.55083198      10.00000000       0.01206465      -0.00111277       0.00060807
In      17.03221221       6.02032010       7.55083198      10.00000000      -0.00878469      -0.00151901       0.00300459
In      14.37896455      10.93553315       7.55083198      10.00000000      -0.00346636      -0.00268809      -0.00147864
In      20.25837093      10.93553315       7.55083198      10.00000000      -0.00153186       0.00145499      -0.00030416
In       4.40507673       2.37787445       1.64188889      10.00000000       0.03740904      -0.00056179      -0.02286894
In      10.28448311       2.37787445       1.64188889      10.00000000      -0.00311001       0.00186919      -0.00161594
In       7.63123545       7.29308750       1.64188889      10.00000000       0.00179643      -0.00109812       0.00088369
In      13.51064183       7.29308750       1.64188889      10.00000000       0.00301873       0.00408780       0.00123336
In       7.63123545       4.11936520       6.23824933      10.00000000       0.00135806       0.00095851      -0.00031342
In      13.51064183       4.11936520       6.23824933      10.00000000       0.00537103       0.00284955       0.00407494
In      10.85739417       9.03457825       6.23824933      10.00000000       0.00254076       0.00247983       0.00011364
In      16.73680055       9.03457825       6.23824933      10.00000000       0.00221963       0.00049648       0.00107215
In       1.76078518       0.95047746       0.65629133      10.00000000      -0.00866950      -0.00409731      -0.00005116
In       7.64019156       0.95047746       0.65629133      10.00000000       0.03368428      -0.02677856       0.00605803
In       4.98694390       5.86569050       0.65629133      10.00000000      -0.00035970       0.00231065      -0.00084821
In      10.86635028       5.86569050       0.65629133      10.00000000      -0.00375998      -0.00292437      -0.00104464
In       4.98694390       2.69196821       5.25265176      10.00000000      -0.00230011       0.00006145       0.00153701
In      10.86635028       2.69196821       5.25265176      10.00000000      -0.00361780      -0.00246080      -0.00343834
In       8.21310263       7.60718126       5.25265176      10.00000000      -0.00346045      -0.00189105      -0.00163162
In      14.09250901       7.60718126       5.25265176      10.00000000      -0.00266186      -0.00208825       0.00025840
O        6.03321769       2.30932705       0.21474656       4.00000000      -0.13780574       0.03459188       0.00287192
O       11.90204053       2.30932705       0.21474656       4.00000000       0.00622670       0.00912896      -0.01360936
O        9.24879287       7.22454010       0.21474656       4.00000000       0.00072762       0.01096421      -0.01362248
O       15.12819925       7.22454010       0.21474656       4.00000000       0.00032370       0.00763412      -0.01316302
O        9.24879287       4.05081780       4.81110699       4.00000000       0.00074511       0.00977611      -0.01189984
O       15.12819925       4.05081780       4.81110699       4.00000000       0.00031907       0.00903537      -0.01517902
O       12.47495159       8.96603085       4.81110699       4.00000000      -0.00121947       0.00988692      -0.01309489
O       18.35435798       8.96603085       4.81110699       4.00000000       0.00071811       0.00927731      -0.01352323
O        7.09636398       5.12094207       1.14909010       4.00000000      -0.00901429       0.02090898       0.00263821
O       12.97577036       5.12094207       1.14909010       4.00000000      -0.00639793       0.01317870      -0.00031985
O       10.32252270      10.03615511       1.14909010       4.00000000      -0.00343859       0.02328340      -0.00215201
O       16.20192908      10.03615511       1.14909010       4.00000000      -0.00639973       0.01270588       0.00068828
O       10.32252270       6.86243282       5.74545054       4.00000000      -0.00804858       0.01444626       0.00120636
O       16.20192908       6.86243282       5.74545054       4.00000000      -0.00744643       0.01452802      -0.00129275
O       13.54868142      11.77764587       5.74545054       4.00000000      -0.00818768       0.01454165       0.00039826
O       19.42808780      11.77764587       5.74545054       4.00000000      -0.00850650       0.01450205      -0.00052759
O        8.17506304       2.18091283       2.51292678       4.00000000       0.01216055      -0.00398212      -0.00435442
O       14.05446942       2.18091283       2.51292678       4.00000000       0.00920789      -0.00508821      -0.01534126
O       11.40122176       7.09612588       2.51292678       4.00000000       0.00739706      -0.00468326      -0.01351423
O       17.28062814       7.09612588       2.51292678       4.00000000       0.00707979      -0.00557929      -0.01323784
O       11.40122176       3.92240358       7.10928721       4.00000000       0.00660928      -0.00032113      -0.00835531
O       17.28062814       3.92240358       7.10928721       4.00000000       0.00917781      -0.00586674      -0.01455424
O       14.62738048       8.83761663       7.10928721       4.00000000       0.00750428      -0.00400758      -0.01388653
O       20.50678687       8.83761663       7.10928721       4.00000000       0.00814937      -0.00626964      -0.01294396
O        4.15666079       4.47579097       2.08343366       4.00000000      -0.00620304      -0.00146116       0.00922152
O       10.03606717       4.47579097       2.08343366       4.00000000      -0.00648047       0.00702734       0.01425471
O        7.38281951       9.39100402       2.08343366       4.00000000      -0.00627915       0.00565977       0.01305915
O       13.26222589       9.39100402       2.08343366       4.00000000      -0.01008258       0.00107112       0.01621363
O        7.38281951       6.21728172       6.67979410       4.00000000      -0.00612283       0.00548236       0.01473011
O       13.26222589       6.21728172       6.67979410       4.00000000      -0.01103646       0.00496917       0.00606240
O       10.60897823      11.13249477       6.67979410       4.00000000      -0.00720552       0.00349027       0.01246805
O       16.48838462      11.13249477       6.67979410       4.00000000      -0.00740915       0.00632491       0.01384231
O        6.30908968       4.34737676       4.38161388       4.00000000      -0.00097368      -0.00914207       0.01369601
O       12.18849606       4.34737676       4.38161388       4.00000000      -0.00003214      -0.00977559       0.01366979
O        9.53524840       9.26258981       4.38161388       4.00000000       0.00034401      -0.00892224       0.01272156
O       15.41465478       9.26258981       4.38161388       4.00000000       0.00033553      -0.00989103       0.01412487
O        9.53524840       6.08886751       8.97797431       4.00000000       0.02022456      -0.01260149       0.01671680
O       15.41465478       6.08886751       8.97797431       4.00000000       0.02055854      -0.00741840       0.00920841
O       12.76140712      11.00408056       8.97797431       4.00000000      -0.00003471      -0.00933362       0.01301467
O       18.64081350      11.00408056       8.97797431       4.00000000      -0.00097908      -0.00905183       0.01358957
O        5.23535984       1.53576173       3.44727032       4.00000000       0.00550499      -0.01331446      -0.00477197
O       11.11476623       1.53576173       3.44727032       4.00000000       0.00929917      -0.01464860       0.00067440
O        8.46151857       6.45097478       3.44727032       4.00000000       0.00816454      -0.01366670       0.00099887
O       14.34092495       6.45097478       3.44727032       4.00000000       0.00838205      -0.01595113      -0.00114388
O        8.46151857       3.27725249       8.04363076       4.00000000       0.00910505      -0.01304295       0.00152492
O       14.34092495       3.27725249       8.04363076       4.00000000       0.00936499      -0.02078840      -0.00465241
O       11.68767729       8.19246553       8.04363076       4.00000000       0.00460562      -0.02147026       0.00252380
O       17.56708367       8.19246553       8.04363076       4.00000000       0.00945652      -0.01312240      -0.00009847
