20
Lattice="5.888771510457737 5.12636170350118e-60 7.077962763760976e-44 -7.291641302984765e-61 6.173241344203849 -8.043650788690761e-17 -3.106514602664894e-43 1.569984161802744e-16 8.476264892562376" Properties=species:S:1:pos:R:3:spacegroup_kinds:I:1:forces:R:3 spacegroup="P 1" unit_cell=conventional occupancy="_JSON {\"0\": {\"In\": 1}, \"1\": {\"In\": 1}, \"2\": {\"In\": 1}, \"3\": {\"In\": 1}, \"4\": {\"In\": 1}, \"5\": {\"In\": 1}, \"6\": {\"In\": 1}, \"7\": {\"In\": 1}, \"8\": {\"O\": 1}, \"9\": {\"O\": 1}, \"10\": {\"O\": 1}, \"11\": {\"O\": 1}, \"12\": {\"O\": 1}, \"13\": {\"O\": 1}, \"14\": {\"O\": 1}, \"15\": {\"O\": 1}, \"16\": {\"O\": 1}, \"17\": {\"O\": 1}, \"18\": {\"O\": 1}, \"19\": {\"O\": 1}}" n_minim_iter=10 energy=-22572.767475393084 stress="0.08474134567154754 -2.7256024458484716e-12 4.4791104124459936e-14 -2.7256024458484716e-12 0.08478038053577952 6.481632868801769e-14 4.4791104124459936e-14 6.481632868801769e-14 0.08486841610441889" free_energy=-22572.767475393084 pbc="T T T"
In       1.41494048       3.34061873       0.93502844        0       0.00007898       0.00103846       0.00281047
In       1.52944527       0.25399806       3.30310401        1      -0.00007898       0.00103846      -0.00281047
In       1.52944527       2.83262261       5.17316088        2      -0.00007898      -0.00103846       0.00281047
In       1.41494048       5.91924328       7.54123646        3       0.00007898      -0.00103846      -0.00281047
In       4.47383103       2.83262261       7.54123646        4      -0.00007898      -0.00103846      -0.00281047
In       4.35932624       5.91924328       5.17316088        5       0.00007898      -0.00103846       0.00281047
In       4.35932624       3.34061873       3.30310401        6       0.00007898       0.00103846      -0.00281047
In       4.47383103       0.25399806       0.93502844        7      -0.00007898       0.00103846       0.00281047
O        2.24989405       3.69840875       7.19628183        8       0.00145623      -0.00151016       0.00242354
O        0.69449171       0.61178807       5.51811551        9      -0.00145623      -0.00151016      -0.00242354
O        0.69449171       2.47483260       2.95814938       10      -0.00145623       0.00151016       0.00242354
O        2.24989405       5.56145327       1.27998306       11       0.00145623       0.00151016      -0.00242354
O        3.63887747       2.47483260       1.27998306       12      -0.00145623       0.00151016      -0.00242354
O        5.19427980       5.56145327       2.95814938       13       0.00145623       0.00151016       0.00242354
O        5.19427980       3.69840875       5.51811551       14       0.00145623      -0.00151016      -0.00242354
O        3.63887747       0.61178807       7.19628183       15      -0.00145623      -0.00151016       0.00242354
O        5.59572297       4.62993101      -0.00000000       16       0.00027885      -0.00000000      -0.00000000
O        3.23743429       1.54331034       4.23813245       17      -0.00027885      -0.00000000      -0.00000000
O        0.29304854       1.54331034      -0.00000000       18      -0.00027885       0.00000000      -0.00000000
O        2.65133722       4.62993101       4.23813245       19       0.00027885      -0.00000000      -0.00000000
