20
Lattice="5.514487987309442 2.614117733029711e-58 -6.492942835425818e-43 -4.913100407703459e-58 5.860400118943649 1.2747395112339017e-15 1.4644975046188817e-42 -1.2631188416346893e-16 7.151074130326183" Properties=species:S:1:pos:R:3:spacegroup_kinds:I:1:forces:R:3 spacegroup="P 1" unit_cell=conventional occupancy="_JSON {\"0\": {\"In\": 1}, \"1\": {\"In\": 1}, \"2\": {\"In\": 1}, \"3\": {\"In\": 1}, \"4\": {\"In\": 1}, \"5\": {\"In\": 1}, \"6\": {\"In\": 1}, \"7\": {\"In\": 1}, \"8\": {\"O\": 1}, \"9\": {\"O\": 1}, \"10\": {\"O\": 1}, \"11\": {\"O\": 1}, \"12\": {\"O\": 1}, \"13\": {\"O\": 1}, \"14\": {\"O\": 1}, \"15\": {\"O\": 1}, \"16\": {\"O\": 1}, \"17\": {\"O\": 1}, \"18\": {\"O\": 1}, \"19\": {\"O\": 1}}" n_minim_iter=21 energy=-22576.395018653406 stress="0.11388261223829589 -1.0807817767066475e-12 5.420311121925684e-13 -1.0807817767066475e-12 0.11390704341574796 7.126041799533346e-13 5.420311121925684e-13 7.126041799533346e-13 0.11380270154529898" free_energy=-22576.395018653406 pbc="T T T"
In       1.39739621       3.12784785       0.95838474        0       0.00438236      -0.00083804       0.00902302
In       1.35984779       0.19764779       2.61715232        1      -0.00438236      -0.00083804      -0.00902302
In       1.35984779       2.73255227       4.53392181        2      -0.00438236       0.00083804       0.00902302
In       1.39739621       5.66275233       6.19268939        3       0.00438236       0.00083804      -0.00902302
In       4.11709178       2.73255227       6.19268939        4      -0.00438236       0.00083804      -0.00902302
In       4.15464020       5.66275233       4.53392181        5       0.00438236       0.00083804       0.00902302
In       4.15464020       3.12784785       2.61715232        6       0.00438236      -0.00083804      -0.00902302
In       4.11709178       0.19764779       0.95838474        7      -0.00438236      -0.00083804       0.00902302
O        2.21416366       3.65889486       6.16347070        8       0.00467748      -0.00378403      -0.00195636
O        0.54308033       0.72869480       4.56314049        9      -0.00467748      -0.00378403       0.00195636
O        0.54308033       2.20150526       2.58793364       10      -0.00467748       0.00378403      -0.00195636
O        2.21416366       5.13170532       0.98760343       11       0.00467748       0.00378403       0.00195636
O        3.30032432       2.20150526       0.98760343       12      -0.00467748       0.00378403       0.00195636
O        4.97140766       5.13170532       2.58793364       13       0.00467748       0.00378403      -0.00195636
O        4.97140766       3.65889486       4.56314049       14       0.00467748      -0.00378403       0.00195636
O        3.30032432       0.72869480       6.16347070       15      -0.00467748      -0.00378403      -0.00195636
O        5.06141007       4.39530009       0.00000000       16       0.00798249       0.00000000      -0.00000000
O        3.21032191       1.46510003       3.57553707       17      -0.00798249       0.00000000      -0.00000000
O        0.45307792       1.46510003       0.00000000       18      -0.00798249      -0.00000000      -0.00000000
O        2.30416608       4.39530009       3.57553707       19       0.00798249       0.00000000      -0.00000000
