20
Lattice="5.1097759279881165 3.5932270762405626e-58 8.758492722266659e-43 -3.4553217778967585e-58 5.820967570058096 -2.4974762023402574e-16 -1.004225152567655e-42 2.455715014472336e-16 6.474786637757991" Properties=species:S:1:pos:R:3:spacegroup_kinds:I:1:forces:R:3 spacegroup="P 1" unit_cell=conventional occupancy="_JSON {\"0\": {\"In\": 1}, \"1\": {\"In\": 1}, \"2\": {\"In\": 1}, \"3\": {\"In\": 1}, \"4\": {\"In\": 1}, \"5\": {\"In\": 1}, \"6\": {\"In\": 1}, \"7\": {\"In\": 1}, \"8\": {\"O\": 1}, \"9\": {\"O\": 1}, \"10\": {\"O\": 1}, \"11\": {\"O\": 1}, \"12\": {\"O\": 1}, \"13\": {\"O\": 1}, \"14\": {\"O\": 1}, \"15\": {\"O\": 1}, \"16\": {\"O\": 1}, \"17\": {\"O\": 1}, \"18\": {\"O\": 1}, \"19\": {\"O\": 1}}" n_minim_iter=7 energy=-22585.516442456454 stress="0.30007395596419423 2.0236084406304678e-13 6.969691869626426e-14 2.0236084406304678e-13 0.2992180431726247 -3.9879421411302503e-13 6.969691869626426e-14 -3.9879421411302503e-13 0.30036408974431006" free_energy=-22585.516442456454 pbc="T T T"
In       1.32177709       3.11093899       0.53778920        0       0.00017395       0.00115292       0.00396478
In       1.23311087       0.20045520       2.69960412        1      -0.00017395       0.00115292      -0.00396478
In       1.23311087       2.71002858       3.77518252        2      -0.00017395      -0.00115292       0.00396478
In       1.32177709       5.62051237       5.93699744        3       0.00017395      -0.00115292      -0.00396478
In       3.78799884       2.71002858       5.93699744        4      -0.00017395      -0.00115292      -0.00396478
In       3.87666505       5.62051237       3.77518252        5       0.00017395      -0.00115292       0.00396478
In       3.87666505       3.11093899       2.69960412        6       0.00017395       0.00115292      -0.00396478
In       3.78799884       0.20045520       0.53778920        7      -0.00017395       0.00115292       0.00396478
O        2.15753670       3.62933701       5.26322794        8      -0.00498783      -0.00104869       0.00337192
O        0.39735126       0.71885322       4.44895202        9       0.00498783      -0.00104869      -0.00337192
O        0.39735126       2.19163056       2.02583462       10       0.00498783       0.00104869       0.00337192
O        2.15753670       5.10211435       1.21155870       11      -0.00498783       0.00104869      -0.00337192
O        2.95223922       2.19163056       1.21155870       12       0.00498783       0.00104869      -0.00337192
O        4.71242467       5.10211435       2.02583462       13      -0.00498783       0.00104869       0.00337192
O        4.71242467       3.62933701       4.44895202       14      -0.00498783      -0.00104869      -0.00337192
O        2.95223922       0.71885322       5.26322794       15       0.00498783      -0.00104869       0.00337192
O        4.70438039       4.36572568      -0.00000000       16       0.00684808      -0.00000000      -0.00000000
O        2.96028350       1.45524189       3.23739332       17      -0.00684808      -0.00000000       0.00000000
O        0.40539554       1.45524189      -0.00000000       18      -0.00684808       0.00000000      -0.00000000
O        2.14949243       4.36572568       3.23739332       19       0.00684808       0.00000000      -0.00000000
