20
Lattice="6.3727510483594045 6.160581123762583e-59 4.4316111805999195e-44 -4.407514280459455e-59 6.070154212816966 -3.2564975533947927e-15 -5.2495387753165e-44 4.259245029587392e-15 8.297448576901271" Properties=species:S:1:pos:R:3:spacegroup_kinds:I:1:forces:R:3 spacegroup="P 1" unit_cell=conventional occupancy="_JSON {\"0\": {\"In\": 1}, \"1\": {\"In\": 1}, \"2\": {\"In\": 1}, \"3\": {\"In\": 1}, \"4\": {\"In\": 1}, \"5\": {\"In\": 1}, \"6\": {\"In\": 1}, \"7\": {\"In\": 1}, \"8\": {\"O\": 1}, \"9\": {\"O\": 1}, \"10\": {\"O\": 1}, \"11\": {\"O\": 1}, \"12\": {\"O\": 1}, \"13\": {\"O\": 1}, \"14\": {\"O\": 1}, \"15\": {\"O\": 1}, \"16\": {\"O\": 1}, \"17\": {\"O\": 1}, \"18\": {\"O\": 1}, \"19\": {\"O\": 1}}" n_minim_iter=7 energy=-22572.778213146128 stress="0.04994754475461282 6.545585839696806e-13 -3.879906222526534e-13 6.545585839696806e-13 0.05009517795107176 3.751406852863525e-13 -3.879906222526534e-13 3.751406852863525e-13 0.050038505290879845" free_energy=-22572.778213146128 pbc="T T T"
In       1.40673613       3.31107447       0.89483057        0       0.00147509       0.00648271       0.00667921
In       1.77963939       0.27599737       3.25389372        1      -0.00147509       0.00648271      -0.00667921
In       1.77963939       2.75907974       5.04355486        2      -0.00147509      -0.00648271       0.00667921
In       1.40673613       5.79415685       7.40261801        3       0.00147509      -0.00648271      -0.00667921
In       4.96601491       2.75907974       7.40261801        4      -0.00147509      -0.00648271      -0.00667921
In       4.59311166       5.79415685       5.04355486        5       0.00147509      -0.00648271       0.00667921
In       4.59311166       3.31107447       3.25389372        6       0.00147509       0.00648271      -0.00667921
In       4.96601491       0.27599737       0.89483057        7      -0.00147509       0.00648271       0.00667921
O        2.16878797       3.69610827       7.03619857        8       0.00373885      -0.00093916      -0.00141343
O        1.01758755       0.66103116       5.40997430        9      -0.00373885      -0.00093916       0.00141343
O        1.01758755       2.37404595       2.88747428       10      -0.00373885       0.00093916      -0.00141343
O        2.16878797       5.40912305       1.26125001       11       0.00373885       0.00093916       0.00141343
O        4.20396308       2.37404595       1.26125001       12      -0.00373885       0.00093916       0.00141343
O        5.35516350       5.40912305       2.88747428       13       0.00373885       0.00093916      -0.00141343
O        5.35516350       3.69610827       5.40997430       14       0.00373885      -0.00093916       0.00141343
O        4.20396308       0.66103116       7.03619857       15      -0.00373885      -0.00093916      -0.00141343
O        6.01564472       4.55261566      -0.00000000       16      -0.00140367       0.00000000       0.00000000
O        3.54348185       1.51753855       4.14872429       17       0.00140367       0.00000000      -0.00000000
O        0.35710633       1.51753855      -0.00000000       18       0.00140367      -0.00000000      -0.00000000
O        2.82926920       4.55261566       4.14872429       19      -0.00140367       0.00000000       0.00000000
