20
Lattice="5.6720079868072455 -2.9983249949181425e-60 3.180069818755474e-44 -1.1506920298195972e-60 6.032221971304 -1.0779980418937168e-16 2.024172820342449e-43 1.0427667151287886e-16 8.255431372381821" Properties=species:S:1:pos:R:3:spacegroup_kinds:I:1:forces:R:3 spacegroup="P 1" unit_cell=conventional occupancy="_JSON {\"0\": {\"In\": 1}, \"1\": {\"In\": 1}, \"2\": {\"In\": 1}, \"3\": {\"In\": 1}, \"4\": {\"In\": 1}, \"5\": {\"In\": 1}, \"6\": {\"In\": 1}, \"7\": {\"In\": 1}, \"8\": {\"O\": 1}, \"9\": {\"O\": 1}, \"10\": {\"O\": 1}, \"11\": {\"O\": 1}, \"12\": {\"O\": 1}, \"13\": {\"O\": 1}, \"14\": {\"O\": 1}, \"15\": {\"O\": 1}, \"16\": {\"O\": 1}, \"17\": {\"O\": 1}, \"18\": {\"O\": 1}, \"19\": {\"O\": 1}}" n_minim_iter=9 energy=-22574.56118575682 stress="0.039850304146748214 5.915314861415572e-13 -4.1497977866457883e-13 5.915314861415572e-13 0.039867601036981865 5.706678993767909e-13 -4.1497977866457883e-13 5.706678993767909e-13 0.04023249591376457" free_energy=-22574.56118575682 pbc="T T T"
In       1.37856405       3.25568348       0.95822600        0      -0.00389260       0.00347674      -0.00048309
In       1.45743995       0.23957250       3.16948969        1       0.00389260       0.00347674       0.00048309
In       1.45743995       2.77653849       5.08594168        2       0.00389260      -0.00347674      -0.00048309
In       1.37856405       5.79264947       7.29720538        3      -0.00389260      -0.00347674       0.00048309
In       4.29344394       2.77653849       7.29720538        4       0.00389260      -0.00347674       0.00048309
In       4.21456804       5.79264947       5.08594168        5      -0.00389260      -0.00347674      -0.00048309
In       4.21456804       3.25568348       3.16948969        6      -0.00389260       0.00347674       0.00048309
In       4.29344394       0.23957250       0.95822600        7       0.00389260       0.00347674      -0.00048309
O        2.23866201       3.61632727       7.02064687        8       0.00174976       0.00193095      -0.00194571
O        0.59734198       0.60021629       5.36250019        9      -0.00174976       0.00193095       0.00194571
O        0.59734198       2.41589470       2.89293118       10      -0.00174976      -0.00193095      -0.00194571
O        2.23866201       5.43200568       1.23478450       11       0.00174976      -0.00193095       0.00194571
O        3.43334598       2.41589470       1.23478450       12      -0.00174976      -0.00193095       0.00194571
O        5.07466600       5.43200568       2.89293118       13       0.00174976      -0.00193095      -0.00194571
O        5.07466600       3.61632727       5.36250019       14       0.00174976       0.00193095       0.00194571
O        3.43334598       0.60021629       7.02064687       15      -0.00174976       0.00193095      -0.00194571
O        5.37376066       4.52416648       0.00000000       16      -0.00056146      -0.00000000      -0.00000000
O        3.13425132       1.50805549       4.12771569       17       0.00056146      -0.00000000       0.00000000
O        0.29824733       1.50805549       0.00000000       18       0.00056146       0.00000000      -0.00000000
O        2.53775667       4.52416648       4.12771569       19      -0.00056146       0.00000000       0.00000000
