20
Lattice="5.637899778300262 4.834035488029709e-61 1.4300915932154848e-43 -9.253793964142078e-61 6.052046459516608 -8.336649348643005e-17 5.054361870349046e-44 1.262439846269226e-16 8.278169500847767" Properties=species:S:1:pos:R:3:spacegroup_kinds:I:1:forces:R:3 spacegroup="P 1" unit_cell=conventional occupancy="_JSON {\"0\": {\"In\": 1}, \"1\": {\"In\": 1}, \"2\": {\"In\": 1}, \"3\": {\"In\": 1}, \"4\": {\"In\": 1}, \"5\": {\"In\": 1}, \"6\": {\"In\": 1}, \"7\": {\"In\": 1}, \"8\": {\"O\": 1}, \"9\": {\"O\": 1}, \"10\": {\"O\": 1}, \"11\": {\"O\": 1}, \"12\": {\"O\": 1}, \"13\": {\"O\": 1}, \"14\": {\"O\": 1}, \"15\": {\"O\": 1}, \"16\": {\"O\": 1}, \"17\": {\"O\": 1}, \"18\": {\"O\": 1}, \"19\": {\"O\": 1}}" n_minim_iter=5 energy=-22574.773699614838 stress="0.02596716016321618 -6.69920401299397e-13 1.302461407216512e-12 -6.69920401299397e-13 0.025735278324017168 9.573500589858956e-13 1.302461407216512e-12 9.573500589858956e-13 0.025825107873611752" free_energy=-22574.773699614838 pbc="T T T"
In       1.37415755       3.26084756       0.95933279        0       0.00729960      -0.00110859      -0.00068034
In       1.44479234       0.23482433       3.17975196        1      -0.00729960      -0.00110859       0.00068034
In       1.44479234       2.79119890       5.09841754        2      -0.00729960       0.00110859      -0.00068034
In       1.37415755       5.81722213       7.31883671        3       0.00729960       0.00110859       0.00068034
In       4.26374223       2.79119890       7.31883671        4      -0.00729960       0.00110859       0.00068034
In       4.19310744       5.81722213       5.09841754        5       0.00729960       0.00110859      -0.00068034
In       4.19310744       3.26084756       3.17975196        6       0.00729960      -0.00110859       0.00068034
In       4.26374223       0.23482433       0.95933279        7      -0.00729960      -0.00110859      -0.00068034
O        2.22736772       3.64423998       7.03540994        8       0.00042249      -0.00736946      -0.00242913
O        0.59158216       0.61821675       5.38184431        9      -0.00042249      -0.00736946       0.00242913
O        0.59158216       2.40780648       2.89632519       10      -0.00042249       0.00736946      -0.00242913
O        2.22736772       5.43382971       1.24275956       11       0.00042249       0.00736946       0.00242913
O        3.41053205       2.40780648       1.24275956       12      -0.00042249       0.00736946       0.00242913
O        5.04631761       5.43382971       2.89632519       13       0.00042249       0.00736946      -0.00242913
O        5.04631761       3.64423998       5.38184431       14       0.00042249      -0.00736946       0.00242913
O        3.41053205       0.61821675       7.03540994       15      -0.00042249      -0.00736946      -0.00242913
O        5.33624613       4.53903484       0.00000000       16       0.00994090       0.00000000      -0.00000000
O        3.12060354       1.51301161       4.13908475       17      -0.00994090      -0.00000000      -0.00000000
O        0.30165365       1.51301161       0.00000000       18      -0.00994090      -0.00000000      -0.00000000
O        2.51729624       4.53903484       4.13908475       19       0.00994090      -0.00000000      -0.00000000
