20
Lattice="5.557289059600225 3.1571976222844665e-58 -5.285097461962883e-43 -2.961223927922513e-58 5.567551249746303 1.51818953154787e-16 6.135825595985904e-43 -1.5843170569820122e-16 7.054284152751763" Properties=species:S:1:pos:R:3:spacegroup_kinds:I:1:forces:R:3 spacegroup="P 1" unit_cell=conventional occupancy="_JSON {\"0\": {\"In\": 1}, \"1\": {\"In\": 1}, \"2\": {\"In\": 1}, \"3\": {\"In\": 1}, \"4\": {\"In\": 1}, \"5\": {\"In\": 1}, \"6\": {\"In\": 1}, \"7\": {\"In\": 1}, \"8\": {\"O\": 1}, \"9\": {\"O\": 1}, \"10\": {\"O\": 1}, \"11\": {\"O\": 1}, \"12\": {\"O\": 1}, \"13\": {\"O\": 1}, \"14\": {\"O\": 1}, \"15\": {\"O\": 1}, \"16\": {\"O\": 1}, \"17\": {\"O\": 1}, \"18\": {\"O\": 1}, \"19\": {\"O\": 1}}" n_minim_iter=10 energy=-22579.251677500673 stress="0.1741716592313435 7.431913626107802e-13 6.151908988345215e-14 7.431913626107802e-13 0.17416414418138995 7.863318165186133e-14 6.151908988345215e-14 7.863318165186133e-14 0.1742373021898019" free_energy=-22579.251677500673 pbc="T T T"
In       1.38655320       2.93681025       0.91956927        0       0.00054367      -0.00494762      -0.00243393
In       1.39209133       0.15303463       2.60757280        1      -0.00054367      -0.00494762       0.00243393
In       1.39209133       2.63074100       4.44671135        2      -0.00054367       0.00494762      -0.00243393
In       1.38655320       5.41451662       6.13471488        3       0.00054367       0.00494762       0.00243393
In       4.17073586       2.63074100       6.13471488        4      -0.00054367       0.00494762       0.00243393
In       4.16519773       5.41451662       4.44671135        5       0.00054367       0.00494762      -0.00243393
In       4.16519773       2.93681025       2.60757280        6       0.00054367      -0.00494762       0.00243393
In       4.17073586       0.15303463       0.91956927        7      -0.00054367      -0.00494762      -0.00243393
O        2.21982447       3.45437614       6.07506320        8       0.00166079       0.00001047       0.00076178
O        0.55882006       0.67060051       4.50636303        9      -0.00166079       0.00001047      -0.00076178
O        0.55882006       2.11317511       2.54792112       10      -0.00166079      -0.00001047       0.00076178
O        2.21982447       4.89695074       0.97922096       11       0.00166079      -0.00001047      -0.00076178
O        3.33746459       2.11317511       0.97922096       12      -0.00166079      -0.00001047      -0.00076178
O        4.99846900       4.89695074       2.54792112       13       0.00166079      -0.00001047       0.00076178
O        4.99846900       3.45437614       4.50636303       14       0.00166079       0.00001047      -0.00076178
O        3.33746459       0.67060051       6.07506320       15      -0.00166079       0.00001047       0.00076178
O        5.16110893       4.17566344      -0.00000000       16      -0.00039423       0.00000000      -0.00000000
O        3.17482466       1.39188781       3.52714208       17       0.00039423       0.00000000       0.00000000
O        0.39618013       1.39188781      -0.00000000       18       0.00039423      -0.00000000      -0.00000000
O        2.38246440       4.17566344       3.52714208       19      -0.00039423       0.00000000      -0.00000000
