20
Lattice="5.625756219903173 3.199426445569742e-58 -7.515712286128161e-43 -2.366860685471416e-58 5.6428348704632 -7.063992739762145e-17 7.530766706544981e-43 -1.7588753763090775e-16 7.077681850237416" Properties=species:S:1:pos:R:3:spacegroup_kinds:I:1:forces:R:3 spacegroup="P 1" unit_cell=conventional occupancy="_JSON {\"0\": {\"In\": 1}, \"1\": {\"In\": 1}, \"2\": {\"In\": 1}, \"3\": {\"In\": 1}, \"4\": {\"In\": 1}, \"5\": {\"In\": 1}, \"6\": {\"In\": 1}, \"7\": {\"In\": 1}, \"8\": {\"O\": 1}, \"9\": {\"O\": 1}, \"10\": {\"O\": 1}, \"11\": {\"O\": 1}, \"12\": {\"O\": 1}, \"13\": {\"O\": 1}, \"14\": {\"O\": 1}, \"15\": {\"O\": 1}, \"16\": {\"O\": 1}, \"17\": {\"O\": 1}, \"18\": {\"O\": 1}, \"19\": {\"O\": 1}}" n_minim_iter=11 energy=-22578.167968222653 stress="0.16273698991251845 -5.876782895165512e-14 1.2197354033403352e-12 -5.876782895165512e-14 0.16272438247312102 3.34930981219568e-14 1.2197354033403352e-12 3.34930981219568e-14 0.16275415518295888" free_energy=-22578.167968222653 pbc="T T T"
In       1.42575129       2.97988615       0.92197878        0      -0.00338555       0.00185658       0.00214959
In       1.38712682       0.15846871       2.61686214        1       0.00338555       0.00185658      -0.00214959
In       1.38712682       2.66294872       4.46081971        2       0.00338555      -0.00185658       0.00214959
In       1.42575129       5.48436616       6.15570307        3      -0.00338555      -0.00185658      -0.00214959
In       4.20000493       2.66294872       6.15570307        4       0.00338555      -0.00185658      -0.00214959
In       4.23862940       5.48436616       4.46081971        5      -0.00338555      -0.00185658       0.00214959
In       4.23862940       2.97988615       2.61686214        6      -0.00338555       0.00185658      -0.00214959
In       4.20000493       0.15846871       0.92197878        7       0.00338555       0.00185658       0.00214959
O        2.25398589       3.50876329       6.08879816        8      -0.00248110      -0.00360746       0.00101088
O        0.55889222       0.68734586       4.52772461        9       0.00248110      -0.00360746      -0.00101088
O        0.55889222       2.13407158       2.54995724       10       0.00248110       0.00360746       0.00101088
O        2.25398589       4.95548901       0.98888369       11      -0.00248110       0.00360746      -0.00101088
O        3.37177033       2.13407158       0.98888369       12       0.00248110       0.00360746      -0.00101088
O        5.06686400       4.95548901       2.54995724       13      -0.00248110       0.00360746       0.00101088
O        5.06686400       3.50876329       4.52772461       14      -0.00248110      -0.00360746      -0.00101088
O        3.37177033       0.68734586       6.08879816       15       0.00248110      -0.00360746       0.00101088
O        5.19186448       4.23212615       0.00000000       16      -0.00286381      -0.00000000       0.00000000
O        3.24676985       1.41070872       3.53884093       17       0.00286381       0.00000000      -0.00000000
O        0.43389174       1.41070872       0.00000000       18       0.00286381      -0.00000000      -0.00000000
O        2.37898637       4.23212615       3.53884093       19      -0.00286381      -0.00000000       0.00000000
