20
Lattice="5.747991282860488 -4.9265097591246196e-60 -1.20701105289193e-43 4.489895611278996e-60 6.140893016053989 -9.057013169947095e-17 1.3139295544608837e-43 8.784746221875377e-17 8.365876369608614" Properties=species:S:1:pos:R:3:spacegroup_kinds:I:1:forces:R:3 spacegroup="P 1" unit_cell=conventional occupancy="_JSON {\"0\": {\"In\": 1}, \"1\": {\"In\": 1}, \"2\": {\"In\": 1}, \"3\": {\"In\": 1}, \"4\": {\"In\": 1}, \"5\": {\"In\": 1}, \"6\": {\"In\": 1}, \"7\": {\"In\": 1}, \"8\": {\"O\": 1}, \"9\": {\"O\": 1}, \"10\": {\"O\": 1}, \"11\": {\"O\": 1}, \"12\": {\"O\": 1}, \"13\": {\"O\": 1}, \"14\": {\"O\": 1}, \"15\": {\"O\": 1}, \"16\": {\"O\": 1}, \"17\": {\"O\": 1}, \"18\": {\"O\": 1}, \"19\": {\"O\": 1}}" n_minim_iter=7 energy=-22574.248782702954 stress="0.05771121671108261 -5.741372102483426e-13 -5.141218535100915e-14 -5.741372102483426e-13 0.05772376856669491 5.947983929894555e-13 -5.141218535100915e-14 5.947983929894555e-13 0.057719989241042075" free_energy=-22574.248782702954 pbc="T T T"
In       1.39182350       3.31666116       0.96479201        0       0.00332740       0.00640860      -0.00157285
In       1.48217214       0.24621466       3.21814618        1      -0.00332740       0.00640860       0.00157285
In       1.48217214       2.82423185       5.14773019        2      -0.00332740      -0.00640860      -0.00157285
In       1.39182350       5.89467836       7.40108436        3       0.00332740      -0.00640860       0.00157285
In       4.35616778       2.82423185       7.40108436        4      -0.00332740      -0.00640860       0.00157285
In       4.26581914       5.89467836       5.14773019        5       0.00332740      -0.00640860      -0.00157285
In       4.26581914       3.31666116       3.21814618        6       0.00332740       0.00640860       0.00157285
In       4.35616778       0.24621466       0.96479201        7      -0.00332740       0.00640860      -0.00157285
O        2.26186347       3.67015216       7.11709700        8       0.00136380       0.00077310      -0.00401014
O        0.61213217       0.59970565       5.43171755        9      -0.00136380       0.00077310       0.00401014
O        0.61213217       2.47074086       2.93415882       10      -0.00136380      -0.00077310      -0.00401014
O        2.26186347       5.54118737       1.24877937       11       0.00136380      -0.00077310       0.00401014
O        3.48612781       2.47074086       1.24877937       12      -0.00136380      -0.00077310       0.00401014
O        5.13585911       5.54118737       2.93415882       13       0.00136380      -0.00077310      -0.00401014
O        5.13585911       3.67015216       5.43171755       14       0.00136380       0.00077310       0.00401014
O        3.48612781       0.59970565       7.11709700       15      -0.00136380       0.00077310      -0.00401014
O        5.45291823       4.60566976      -0.00000000       16       0.00692638       0.00000000      -0.00000000
O        3.16906869       1.53522325       4.18293818       17      -0.00692638      -0.00000000       0.00000000
O        0.29507305       1.53522325      -0.00000000       18      -0.00692638      -0.00000000      -0.00000000
O        2.57892259       4.60566976       4.18293818       19       0.00692638       0.00000000       0.00000000
