20
Lattice="5.796400426607561 -3.997197526039278e-60 3.2941018740467903e-45 4.3114481336607626e-60 6.184794785854731 -8.167123982657563e-17 -4.782930533196958e-45 1.1113715658931011e-16 8.416187975692031" Properties=species:S:1:pos:R:3:spacegroup_kinds:I:1:forces:R:3 spacegroup="P 1" unit_cell=conventional occupancy="_JSON {\"0\": {\"In\": 1}, \"1\": {\"In\": 1}, \"2\": {\"In\": 1}, \"3\": {\"In\": 1}, \"4\": {\"In\": 1}, \"5\": {\"In\": 1}, \"6\": {\"In\": 1}, \"7\": {\"In\": 1}, \"8\": {\"O\": 1}, \"9\": {\"O\": 1}, \"10\": {\"O\": 1}, \"11\": {\"O\": 1}, \"12\": {\"O\": 1}, \"13\": {\"O\": 1}, \"14\": {\"O\": 1}, \"15\": {\"O\": 1}, \"16\": {\"O\": 1}, \"17\": {\"O\": 1}, \"18\": {\"O\": 1}, \"19\": {\"O\": 1}}" n_minim_iter=1 energy=-22573.28924799171 stress="0.08943666845455064 -2.0175611091781813e-13 5.7093632750801455e-15 -2.0175611091781813e-13 0.09134835353770686 4.5150006321833066e-13 5.7093632750801455e-15 4.5150006321833066e-13 0.08982786037918074" free_energy=-22573.28924799171 pbc="T T T"
In       1.39880653       3.34257813       0.96221767        0      -0.08213504       0.03766677      -0.08872352
In       1.49939369       0.25018074       3.24587632        1       0.08213504       0.03766677       0.08872352
In       1.49939369       2.84221665       5.17031166        2       0.08213504      -0.03766677      -0.08872352
In       1.39880653       5.93461404       7.45397030        3      -0.08213504      -0.03766677       0.08872352
In       4.39759390       2.84221665       7.45397030        4       0.08213504      -0.03766677       0.08872352
In       4.29700674       5.93461404       5.17031166        5      -0.08213504      -0.03766677      -0.08872352
In       4.29700674       3.34257813       3.24587632        6      -0.08213504       0.03766677       0.08872352
In       4.39759390       0.25018074       0.96221767        7       0.08213504       0.03766677      -0.08872352
O        2.27228419       3.69198168       7.15867488        8      -0.11866258       0.00776860      -0.05616389
O        0.62591603       0.59958428       5.46560709        9       0.11866258       0.00776860       0.05616389
O        0.62591603       2.49281311       2.95058089       10       0.11866258      -0.00776860      -0.05616389
O        2.27228419       5.58521050       1.25751310       11      -0.11866258      -0.00776860       0.05616389
O        3.52411624       2.49281311       1.25751310       12       0.11866258      -0.00776860       0.05616389
O        5.17048440       5.58521050       2.95058089       13      -0.11866258      -0.00776860      -0.05616389
O        5.17048440       3.69198168       5.46560709       14      -0.11866258       0.00776860       0.05616389
O        3.52411624       0.59958428       7.15867488       15       0.11866258       0.00776860      -0.05616389
O        5.50720373       4.63859609       0.00000000       16       0.13324135       0.00000000       0.00000000
O        3.18739691       1.54619870       4.20809399       17      -0.13324135      -0.00000000       0.00000000
O        0.28919669       1.54619870       0.00000000       18      -0.13324135      -0.00000000       0.00000000
O        2.60900352       4.63859609       4.20809399       19       0.13324135       0.00000000       0.00000000
20
Lattice="5.815610436626935 -3.931044003196562e-60 4.298057629658932e-45 4.286457677782981e-60 6.154371607406582 -7.599605550563198e-17 -4.799356145270789e-45 1.18493654958865e-16 8.429854478930098" Properties=species:S:1:pos:R:3:spacegroup_kinds:I:1:forces:R:3 spacegroup="P 1" unit_cell=conventional occupancy="_JSON {\"0\": {\"In\": 1}, \"1\": {\"In\": 1}, \"2\": {\"In\": 1}, \"3\": {\"In\": 1}, \"4\": {\"In\": 1}, \"5\": {\"In\": 1}, \"6\": {\"In\": 1}, \"7\": {\"In\": 1}, \"8\": {\"O\": 1}, \"9\": {\"O\": 1}, \"10\": {\"O\": 1}, \"11\": {\"O\": 1}, \"12\": {\"O\": 1}, \"13\": {\"O\": 1}, \"14\": {\"O\": 1}, \"15\": {\"O\": 1}, \"16\": {\"O\": 1}, \"17\": {\"O\": 1}, \"18\": {\"O\": 1}, \"19\": {\"O\": 1}}" n_minim_iter=2 energy=-22573.293014970568 stress="0.08960149096007947 9.961545486300211e-14 1.877531356905912e-13 9.961545486300211e-14 0.08706465310537682 2.6010986473397326e-13 1.877531356905912e-13 2.6010986473397326e-13 0.08977190022541465" free_energy=-22573.293014970568 pbc="T T T"
In       1.40226510       3.32667135       0.96251062        0      -0.04808097       0.02028286      -0.06783274
In       1.50554011       0.24948555       3.25241662        1       0.04808097       0.02028286       0.06783274
In       1.50554011       2.82770026       5.17743786        2       0.04808097      -0.02028286      -0.06783274
In       1.40226510       5.90488606       7.46734386        3      -0.04808097      -0.02028286       0.06783274
In       4.41334533       2.82770026       7.46734386        4       0.04808097      -0.02028286       0.06783274
In       4.31007032       5.90488606       5.17743786        5      -0.04808097      -0.02028286      -0.06783274
In       4.31007032       3.32667135       3.25241662        6      -0.04808097       0.02028286       0.06783274
In       4.41334533       0.24948555       0.96251062        7       0.04808097       0.02028286      -0.06783274
O        2.27811403       3.67393115       7.16949574        8      -0.12076636       0.00480385      -0.02232302
O        0.62969119       0.59674535       5.47528598        9       0.12076636       0.00480385       0.02232302
O        0.62969119       2.48044046       2.95456850       10       0.12076636      -0.00480385      -0.02232302
O        2.27811403       5.55762626       1.26035874       11      -0.12076636      -0.00480385       0.02232302
O        3.53749641       2.48044046       1.26035874       12       0.12076636      -0.00480385       0.02232302
O        5.18591925       5.55762626       2.95456850       13      -0.12076636      -0.00480385      -0.02232302
O        5.18591925       3.67393115       5.47528598       14      -0.12076636       0.00480385       0.02232302
O        3.53749641       0.59674535       7.16949574       15       0.12076636       0.00480385      -0.02232302
O        5.52736506       4.61577871       0.00000000       16       0.11662039       0.00000000       0.00000000
O        3.19605059       1.53859290       4.21492724       17      -0.11662039      -0.00000000       0.00000000
O        0.28824537       1.53859290       0.00000000       18      -0.11662039      -0.00000000      -0.00000000
O        2.61955984       4.61577871       4.21492724       19       0.11662039       0.00000000      -0.00000000
20
Lattice="5.824098258432551 -3.927235138600393e-60 4.3192987126414954e-45 4.3035806449145875e-60 6.17006613281354 -7.06361617726191e-17 -4.743020348410992e-45 1.2570404769418816e-16 8.396157726230102" Properties=species:S:1:pos:R:3:spacegroup_kinds:I:1:forces:R:3 spacegroup="P 1" unit_cell=conventional occupancy="_JSON {\"0\": {\"In\": 1}, \"1\": {\"In\": 1}, \"2\": {\"In\": 1}, \"3\": {\"In\": 1}, \"4\": {\"In\": 1}, \"5\": {\"In\": 1}, \"6\": {\"In\": 1}, \"7\": {\"In\": 1}, \"8\": {\"O\": 1}, \"9\": {\"O\": 1}, \"10\": {\"O\": 1}, \"11\": {\"O\": 1}, \"12\": {\"O\": 1}, \"13\": {\"O\": 1}, \"14\": {\"O\": 1}, \"15\": {\"O\": 1}, \"16\": {\"O\": 1}, \"17\": {\"O\": 1}, \"18\": {\"O\": 1}, \"19\": {\"O\": 1}}" n_minim_iter=3 energy=-22573.301989223324 stress="0.08775612174539327 -1.0184418200959875e-12 -2.898272422982886e-13 -1.0184418200959875e-12 0.08612819162607924 1.3202430198567224e-13 -2.898272422982886e-13 1.3202430198567224e-13 0.08382322408442026" free_energy=-22573.301989223324 pbc="T T T"
In       1.40014914       3.33699727       0.95376700        0       0.00131846       0.01130961      -0.04255873
In       1.51189999       0.25196420       3.24431186        1      -0.00131846       0.01130961       0.04255873
In       1.51189999       2.83306886       5.15184587        2      -0.00131846      -0.01130961      -0.04255873
In       1.40014914       5.91810193       7.44239072        3       0.00131846      -0.01130961       0.04255873
In       4.42394912       2.83306886       7.44239072        4      -0.00131846      -0.01130961       0.04255873
In       4.31219827       5.91810193       5.15184587        5       0.00131846      -0.01130961      -0.04255873
In       4.31219827       3.33699727       3.24431186        6       0.00131846       0.01130961       0.04255873
In       4.42394912       0.25196420       0.95376700        7      -0.00131846       0.01130961      -0.04255873
O        2.27401152       3.68369703       7.13830075        8      -0.04433774      -0.00993031       0.02146649
O        0.63803761       0.59866396       5.45593584        9       0.04433774      -0.00993031      -0.02146649
O        0.63803761       2.48636910       2.94022189       10       0.04433774       0.00993031       0.02146649
O        2.27401152       5.57140217       1.25785697       11      -0.04433774       0.00993031      -0.02146649
O        3.55008674       2.48636910       1.25785697       12       0.04433774       0.00993031      -0.02146649
O        5.18606065       5.57140217       2.94022189       13      -0.04433774       0.00993031       0.02146649
O        5.18606065       3.68369703       5.45593584       14      -0.04433774      -0.00993031      -0.02146649
O        3.55008674       0.59866396       7.13830075       15       0.04433774      -0.00993031       0.02146649
O        5.54324902       4.62754960       0.00000000       16      -0.01425038       0.00000000       0.00000000
O        3.19289836       1.54251653       4.19807886       17       0.01425038      -0.00000000      -0.00000000
O        0.28084923       1.54251653       0.00000000       18       0.01425038      -0.00000000       0.00000000
O        2.63119990       4.62754960       4.19807886       19      -0.01425038       0.00000000      -0.00000000
20
Lattice="5.807013619043782 -3.702041697079063e-60 1.5078436511379506e-45 4.602899886407007e-60 6.172209518558698 -6.873776102089112e-17 1.4446886309744736e-44 1.2857771072033976e-16 8.417935547414936" Properties=species:S:1:pos:R:3:spacegroup_kinds:I:1:forces:R:3 spacegroup="P 1" unit_cell=conventional occupancy="_JSON {\"0\": {\"In\": 1}, \"1\": {\"In\": 1}, \"2\": {\"In\": 1}, \"3\": {\"In\": 1}, \"4\": {\"In\": 1}, \"5\": {\"In\": 1}, \"6\": {\"In\": 1}, \"7\": {\"In\": 1}, \"8\": {\"O\": 1}, \"9\": {\"O\": 1}, \"10\": {\"O\": 1}, \"11\": {\"O\": 1}, \"12\": {\"O\": 1}, \"13\": {\"O\": 1}, \"14\": {\"O\": 1}, \"15\": {\"O\": 1}, \"16\": {\"O\": 1}, \"17\": {\"O\": 1}, \"18\": {\"O\": 1}, \"19\": {\"O\": 1}}" n_minim_iter=4 energy=-22573.304133827824 stress="0.0849362261635059 3.715472771808891e-13 -2.2415402268473873e-14 3.715472771808891e-13 0.08512016328659415 3.491863071504261e-13 -2.2415402268473873e-14 3.491863071504261e-13 0.0850503177499918" free_energy=-22573.304133827824 pbc="T T T"
In       1.39504259       3.33866834       0.95480205        0       0.01778857      -0.00394393      -0.03186096
In       1.50846422       0.25256358       3.25416572        1      -0.01778857      -0.00394393       0.03186096
In       1.50846422       2.83354118       5.16376983        2      -0.01778857       0.00394393      -0.03186096
In       1.39504259       5.91964594       7.46313350        3       0.01778857       0.00394393       0.03186096
In       4.41197103       2.83354118       7.46313350        4      -0.01778857       0.00394393       0.03186096
In       4.29854940       5.91964594       5.16376983        5       0.01778857       0.00394393      -0.03186096
In       4.29854940       3.33866834       3.25416572        6       0.01778857      -0.00394393       0.03186096
In       4.41197103       0.25256358       0.95480205        7      -0.01778857      -0.00394393      -0.03186096
O        2.26527777       3.68501596       7.15632446        8      -0.02034469      -0.01419873      -0.01022294
O        0.63822904       0.59891120       5.47057886        9       0.02034469      -0.01419873       0.01022294
O        0.63822904       2.48719356       2.94735669       10       0.02034469       0.01419873      -0.01022294
O        2.26527777       5.57329832       1.26161108       11      -0.02034469       0.01419873       0.01022294
O        3.54173584       2.48719356       1.26161108       12       0.02034469       0.01419873       0.01022294
O        5.16878458       5.57329832       2.94735669       13      -0.02034469       0.01419873      -0.01022294
O        5.16878458       3.68501596       5.47057886       14      -0.02034469      -0.01419873       0.01022294
O        3.54173584       0.59891120       7.15632446       15       0.02034469      -0.01419873      -0.01022294
O        5.52880289       4.62915714       0.00000000       16      -0.06561316      -0.00000000       0.00000000
O        3.18171754       1.54305238       4.20896777       17       0.06561316       0.00000000      -0.00000000
O        0.27821073       1.54305238       0.00000000       18       0.06561316       0.00000000       0.00000000
O        2.62529608       4.62915714       4.20896777       19      -0.06561316       0.00000000      -0.00000000
20
Lattice="5.807870683124559 -3.7087998178292654e-60 1.3880123726949987e-45 4.5605018473641706e-60 6.1637763089712525 -7.560368962879973e-17 1.4907068742452788e-44 1.1916794255190685e-16 8.428208942948839" Properties=species:S:1:pos:R:3:spacegroup_kinds:I:1:forces:R:3 spacegroup="P 1" unit_cell=conventional occupancy="_JSON {\"0\": {\"In\": 1}, \"1\": {\"In\": 1}, \"2\": {\"In\": 1}, \"3\": {\"In\": 1}, \"4\": {\"In\": 1}, \"5\": {\"In\": 1}, \"6\": {\"In\": 1}, \"7\": {\"In\": 1}, \"8\": {\"O\": 1}, \"9\": {\"O\": 1}, \"10\": {\"O\": 1}, \"11\": {\"O\": 1}, \"12\": {\"O\": 1}, \"13\": {\"O\": 1}, \"14\": {\"O\": 1}, \"15\": {\"O\": 1}, \"16\": {\"O\": 1}, \"17\": {\"O\": 1}, \"18\": {\"O\": 1}, \"19\": {\"O\": 1}}" n_minim_iter=5 energy=-22573.307127257587 stress="0.0836864878222997 8.812525798571078e-13 4.245650700025921e-14 8.812525798571078e-13 0.08255676918387207 -4.777715716816455e-13 4.245650700025921e-14 -4.777715716816455e-13 0.08331100008924273" free_energy=-22573.307127257587 pbc="T T T"
In       1.39695142       3.33413287       0.94830207        0       0.03606074      -0.01699633      -0.00310908
In       1.50698392       0.25224472       3.26580240        1      -0.03606074      -0.01699633       0.00310908
In       1.50698392       2.82964344       5.16240654        2      -0.03606074       0.01699633      -0.00310908
In       1.39695142       5.91153159       7.47990688        3       0.03606074       0.01699633       0.00310908
In       4.41091926       2.82964344       7.47990688        4      -0.03606074       0.01699633       0.00310908
In       4.30088676       5.91153159       5.16240654        5       0.03606074       0.01699633      -0.00310908
In       4.30088676       3.33413287       3.26580240        6       0.03606074      -0.01699633       0.00310908
In       4.41091926       0.25224472       0.94830207        7      -0.03606074      -0.01699633      -0.00310908
O        2.25894856       3.67757170       7.16258664        8      -0.01390062       0.00773378       0.00251764
O        0.64498678       0.59568354       5.47972677        9       0.01390062       0.00773378      -0.00251764
O        0.64498678       2.48620461       2.94848217       10       0.01390062      -0.00773378       0.00251764
O        2.25894856       5.56809277       1.26562230       11      -0.01390062      -0.00773378      -0.00251764
O        3.54892212       2.48620461       1.26562230       12       0.01390062      -0.00773378      -0.00251764
O        5.16288390       5.56809277       2.94848217       13      -0.01390062      -0.00773378       0.00251764
O        5.16288390       3.67757170       5.47972677       14      -0.01390062       0.00773378      -0.00251764
O        3.54892212       0.59568354       7.16258664       15       0.01390062       0.00773378       0.00251764
O        5.52081568       4.62283223       0.00000000       16       0.02504448      -0.00000000      -0.00000000
O        3.19099035       1.54094408       4.21410447       17      -0.02504448       0.00000000      -0.00000000
O        0.28705500       1.54094408       0.00000000       18      -0.02504448       0.00000000      -0.00000000
O        2.61688034       4.62283223       4.21410447       19       0.02504448       0.00000000      -0.00000000
20
Lattice="5.802407050733398 -3.704022665063179e-60 1.3978335565323895e-45 4.538773691357731e-60 6.169485420791794 -7.56048512436004e-17 1.7808327633496163e-44 1.1927832019628412e-16 8.428338438378221" Properties=species:S:1:pos:R:3:spacegroup_kinds:I:1:forces:R:3 spacegroup="P 1" unit_cell=conventional occupancy="_JSON {\"0\": {\"In\": 1}, \"1\": {\"In\": 1}, \"2\": {\"In\": 1}, \"3\": {\"In\": 1}, \"4\": {\"In\": 1}, \"5\": {\"In\": 1}, \"6\": {\"In\": 1}, \"7\": {\"In\": 1}, \"8\": {\"O\": 1}, \"9\": {\"O\": 1}, \"10\": {\"O\": 1}, \"11\": {\"O\": 1}, \"12\": {\"O\": 1}, \"13\": {\"O\": 1}, \"14\": {\"O\": 1}, \"15\": {\"O\": 1}, \"16\": {\"O\": 1}, \"17\": {\"O\": 1}, \"18\": {\"O\": 1}, \"19\": {\"O\": 1}}" n_minim_iter=6 energy=-22573.307534903655 stress="0.08310713282786805 1.1263946701830459e-12 -2.094638951641242e-13 1.1263946701830459e-12 0.08301015336631484 2.885384069612509e-13 -2.094638951641242e-13 2.885384069612509e-13 0.08304595379703252" free_energy=-22573.307534903655 pbc="T T T"
In       1.39624563       3.33702051       0.94741076        0       0.03284712      -0.01576989      -0.00307728
In       1.50495790       0.25227780       3.26675846        1      -0.03284712      -0.01576989       0.00307728
In       1.50495790       2.83246491       5.16157998        2      -0.03284712       0.01576989      -0.00307728
In       1.39624563       5.91720762       7.48092768        3       0.03284712       0.01576989       0.00307728
In       4.40616142       2.83246491       7.48092768        4      -0.03284712       0.01576989       0.00307728
In       4.29744916       5.91720762       5.16157998        5       0.03284712       0.01576989      -0.00307728
In       4.29744916       3.33702051       3.26675846        6       0.03284712      -0.01576989       0.00307728
In       4.40616142       0.25227780       0.94741076        7      -0.03284712      -0.01576989      -0.00307728
O        2.25590194       3.68084482       7.16237872        8      -0.00553892       0.00902876      -0.00528274
O        0.64530159       0.59610211       5.48012893        9       0.00553892       0.00902876       0.00528274
O        0.64530159       2.48864060       2.94820951       10       0.00553892      -0.00902876      -0.00528274
O        2.25590194       5.57338331       1.26595971       11      -0.00553892      -0.00902876       0.00528274
O        3.54650511       2.48864060       1.26595971       12       0.00553892      -0.00902876       0.00528274
O        5.15710546       5.57338331       2.94820951       13      -0.00553892      -0.00902876      -0.00528274
O        5.15710546       3.68084482       5.48012893       14      -0.00553892       0.00902876       0.00528274
O        3.54650511       0.59610211       7.16237872       15       0.00553892       0.00902876      -0.00528274
O        5.51513001       4.62711407       0.00000000       16       0.02305308      -0.00000000      -0.00000000
O        3.18848056       1.54237136       4.21416922       17      -0.02305308       0.00000000      -0.00000000
O        0.28727704       1.54237136       0.00000000       18      -0.02305308       0.00000000      -0.00000000
O        2.61392649       4.62711407       4.21416922       19       0.02305308      -0.00000000       0.00000000
20
Lattice="5.792879535255323 -3.6958561462461245e-60 -4.119599209666214e-44 3.433948450035678e-60 6.176781332854589 -7.56397480276369e-17 1.4159982596536936e-43 1.1941937639073063e-16 8.43222869014689" Properties=species:S:1:pos:R:3:spacegroup_kinds:I:1:forces:R:3 spacegroup="P 1" unit_cell=conventional occupancy="_JSON {\"0\": {\"In\": 1}, \"1\": {\"In\": 1}, \"2\": {\"In\": 1}, \"3\": {\"In\": 1}, \"4\": {\"In\": 1}, \"5\": {\"In\": 1}, \"6\": {\"In\": 1}, \"7\": {\"In\": 1}, \"8\": {\"O\": 1}, \"9\": {\"O\": 1}, \"10\": {\"O\": 1}, \"11\": {\"O\": 1}, \"12\": {\"O\": 1}, \"13\": {\"O\": 1}, \"14\": {\"O\": 1}, \"15\": {\"O\": 1}, \"16\": {\"O\": 1}, \"17\": {\"O\": 1}, \"18\": {\"O\": 1}, \"19\": {\"O\": 1}}" n_minim_iter=7 energy=-22573.308125548036 stress="0.08184388559658945 1.0775539178712246e-12 6.52499465459506e-13 1.0775539178712246e-12 0.08346389646003713 -1.7588914008436997e-14 6.52499465459506e-13 -1.7588914008436997e-14 0.08217870988133556" free_energy=-22573.308125548036 pbc="T T T"
In       1.39718703       3.33969878       0.94504561        0       0.01612836      -0.01320248      -0.00753633
In       1.49925274       0.25130812       3.27106873        1      -0.01612836      -0.01320248       0.00753633
In       1.49925274       2.83708255       5.16115996        2      -0.01612836       0.01320248      -0.00753633
In       1.39718703       5.92547322       7.48718308        3       0.01612836       0.01320248       0.00753633
In       4.39569251       2.83708255       7.48718308        4      -0.01612836       0.01320248       0.00753633
In       4.29362680       5.92547322       5.16115996        5       0.01612836       0.01320248      -0.00753633
In       4.29362680       3.33969878       3.27106873        6       0.01612836      -0.01320248       0.00753633
In       4.39569251       0.25130812       0.94504561        7      -0.01612836      -0.01320248      -0.00753633
O        2.24947244       3.68511988       7.16445438        8       0.01045531       0.01310699      -0.01976092
O        0.64696733       0.59672921       5.48388865        9      -0.01045531       0.01310699       0.01976092
O        0.64696733       2.49166145       2.94834004       10      -0.01045531      -0.01310699      -0.01976092
O        2.24947244       5.58005212       1.26777431       11       0.01045531      -0.01310699       0.01976092
O        3.54340709       2.49166145       1.26777431       12      -0.01045531      -0.01310699       0.01976092
O        5.14591221       5.58005212       2.94834004       13       0.01045531      -0.01310699      -0.01976092
O        5.14591221       3.68511988       5.48388865       14       0.01045531       0.01310699       0.01976092
O        3.54340709       0.59672921       7.16445438       15      -0.01045531       0.01310699      -0.01976092
O        5.50508011       4.63258600       0.00000000       16       0.01747674      -0.00000000       0.00000000
O        3.18423919       1.54419533       4.21611435       17      -0.01747674       0.00000000       0.00000000
O        0.28779942       1.54419533       0.00000000       18      -0.01747674       0.00000000       0.00000000
O        2.60864034       4.63258600       4.21611435       19       0.01747674       0.00000000       0.00000000
20
Lattice="5.794656743202973 -3.8076291480149894e-60 2.290450535572035e-44 4.7466601548081803e-60 6.166261326173228 -7.783158593504906e-17 -1.2614256392303587e-44 1.1637734429448187e-16 8.444024013891012" Properties=species:S:1:pos:R:3:spacegroup_kinds:I:1:forces:R:3 spacegroup="P 1" unit_cell=conventional occupancy="_JSON {\"0\": {\"In\": 1}, \"1\": {\"In\": 1}, \"2\": {\"In\": 1}, \"3\": {\"In\": 1}, \"4\": {\"In\": 1}, \"5\": {\"In\": 1}, \"6\": {\"In\": 1}, \"7\": {\"In\": 1}, \"8\": {\"O\": 1}, \"9\": {\"O\": 1}, \"10\": {\"O\": 1}, \"11\": {\"O\": 1}, \"12\": {\"O\": 1}, \"13\": {\"O\": 1}, \"14\": {\"O\": 1}, \"15\": {\"O\": 1}, \"16\": {\"O\": 1}, \"17\": {\"O\": 1}, \"18\": {\"O\": 1}, \"19\": {\"O\": 1}}" n_minim_iter=8 energy=-22573.30953947831 stress="0.08111215062315937 1.2584937791476105e-13 4.514469783397033e-13 1.2584937791476105e-13 0.08176481317508671 3.414854537535944e-13 4.514469783397033e-13 3.414854537535944e-13 0.0814864728847434" free_energy=-22573.30953947831 pbc="T T T"
In       1.40204244       3.33197938       0.94289192        0      -0.00183334      -0.01538076      -0.01016319
In       1.49528593       0.24884872       3.27912009        1       0.00183334      -0.01538076       0.01016319
In       1.49528593       2.83428195       5.16490393        2       0.00183334       0.01538076      -0.01016319
In       1.40204244       5.91741261       7.50113209        3      -0.00183334       0.01538076       0.01016319
In       4.39261430       2.83428195       7.50113209        4       0.00183334       0.01538076       0.01016319
In       4.29937081       5.91741261       5.16490393        5      -0.00183334       0.01538076      -0.01016319
In       4.29937081       3.33197938       3.27912009        6      -0.00183334      -0.01538076       0.01016319
In       4.39261430       0.24884872       0.94289192        7       0.00183334      -0.01538076      -0.01016319
O        2.24707314       3.67929852       7.17257443        8       0.01520677       0.01632970      -0.01381239
O        0.65025523       0.59616786       5.49346159        9      -0.01520677       0.01632970       0.01381239
O        0.65025523       2.48696281       2.95056242       10      -0.01520677      -0.01632970      -0.01381239
O        2.24707314       5.57009347       1.27144958       11       0.01520677      -0.01632970       0.01381239
O        3.54758360       2.48696281       1.27144958       12      -0.01520677      -0.01632970       0.01381239
O        5.14440152       5.57009347       2.95056242       13       0.01520677      -0.01632970      -0.01381239
O        5.14440152       3.67929852       5.49346159       14       0.01520677       0.01632970       0.01381239
O        3.54758360       0.59616786       7.17257443       15      -0.01520677       0.01632970      -0.01381239
O        5.50677546       4.62469599       0.00000000       16       0.00813362       0.00000000      -0.00000000
O        3.18520966       1.54156533       4.22201201       17      -0.00813362      -0.00000000      -0.00000000
O        0.28788128       1.54156533       0.00000000       18      -0.00813362      -0.00000000      -0.00000000
O        2.60944709       4.62469599       4.22201201       19       0.00813362       0.00000000       0.00000000
20
Lattice="5.798388423971911 -2.1365106216983116e-60 -1.971226777527714e-44 3.200368571104644e-60 6.1604349683817885 -7.635204788000746e-17 -4.3566157195541384e-44 1.1831871520052416e-16 8.44657064533857" Properties=species:S:1:pos:R:3:spacegroup_kinds:I:1:forces:R:3 spacegroup="P 1" unit_cell=conventional occupancy="_JSON {\"0\": {\"In\": 1}, \"1\": {\"In\": 1}, \"2\": {\"In\": 1}, \"3\": {\"In\": 1}, \"4\": {\"In\": 1}, \"5\": {\"In\": 1}, \"6\": {\"In\": 1}, \"7\": {\"In\": 1}, \"8\": {\"O\": 1}, \"9\": {\"O\": 1}, \"10\": {\"O\": 1}, \"11\": {\"O\": 1}, \"12\": {\"O\": 1}, \"13\": {\"O\": 1}, \"14\": {\"O\": 1}, \"15\": {\"O\": 1}, \"16\": {\"O\": 1}, \"17\": {\"O\": 1}, \"18\": {\"O\": 1}, \"19\": {\"O\": 1}}" n_minim_iter=9 energy=-22573.309780575666 stress="0.08137290543582329 9.962694385777097e-13 4.521623314035322e-13 9.962694385777097e-13 0.08115686088548763 -4.2679389450798796e-13 4.521623314035322e-13 -4.2679389450798796e-13 0.08181469473309673" free_energy=-22573.309780575666 pbc="T T T"
In       1.40455758       3.32768776       0.94245865        0      -0.01178480      -0.01369018      -0.00942466
In       1.49463663       0.24747027       3.28082667        1       0.01178480      -0.01369018       0.00942466
In       1.49463663       2.83274721       5.16574398        2       0.01178480       0.01369018      -0.00942466
In       1.40455758       5.91296470       7.50411199        3      -0.01178480       0.01369018       0.00942466
In       4.39383084       2.83274721       7.50411199        4       0.01178480       0.01369018       0.00942466
In       4.30375179       5.91296470       5.16574398        5      -0.01178480       0.01369018      -0.00942466
In       4.30375179       3.32768776       3.28082667        6      -0.01178480      -0.01369018       0.00942466
In       4.39383084       0.24747027       0.94245865        7       0.01178480      -0.01369018      -0.00942466
O        2.24829363       3.67659257       7.17407398        8       0.01433744       0.01383410      -0.00119737
O        0.65090059       0.59637509       5.49578198        9      -0.01433744       0.01383410       0.00119737
O        0.65090059       2.48384240       2.95078866       10      -0.01433744      -0.01383410      -0.00119737
O        2.24829363       5.56405988       1.27249666       11       0.01433744      -0.01383410       0.00119737
O        3.55009480       2.48384240       1.27249666       12      -0.01433744      -0.01383410       0.00119737
O        5.14748784       5.56405988       2.95078866       13       0.01433744      -0.01383410      -0.00119737
O        5.14748784       3.67659257       5.49578198       14       0.01433744       0.01383410       0.00119737
O        3.55009480       0.59637509       7.17407398       15      -0.01433744       0.01383410      -0.00119737
O        5.51147365       4.62032623       0.00000000       16      -0.00418128       0.00000000      -0.00000000
O        3.18610898       1.54010874       4.22328532       17       0.00418128       0.00000000      -0.00000000
O        0.28691477       1.54010874       0.00000000       18       0.00418128       0.00000000      -0.00000000
O        2.61227944       4.62032623       4.22328532       19      -0.00418128       0.00000000       0.00000000
20