20
Lattice="5.432255994315033 2.352958863656378e-59 2.0015417627623085e-43 -4.980849433136134e-59 5.640081162178054 6.88787537893775e-16 -2.8564183464283717e-43 -9.467543575898454e-16 7.752421644823625" Properties=species:S:1:pos:R:3:spacegroup_kinds:I:1:forces:R:3 spacegroup="P 1" unit_cell=conventional occupancy="_JSON {\"0\": {\"In\": 1}, \"1\": {\"In\": 1}, \"2\": {\"In\": 1}, \"3\": {\"In\": 1}, \"4\": {\"In\": 1}, \"5\": {\"In\": 1}, \"6\": {\"In\": 1}, \"7\": {\"In\": 1}, \"8\": {\"O\": 1}, \"9\": {\"O\": 1}, \"10\": {\"O\": 1}, \"11\": {\"O\": 1}, \"12\": {\"O\": 1}, \"13\": {\"O\": 1}, \"14\": {\"O\": 1}, \"15\": {\"O\": 1}, \"16\": {\"O\": 1}, \"17\": {\"O\": 1}, \"18\": {\"O\": 1}, \"19\": {\"O\": 1}}" n_minim_iter=1 energy=-22575.738238390277 stress="0.07888859610398347 -4.304394561100675e-13 6.083091017308265e-13 -4.304394561100675e-13 0.07177872071076172 1.3156675551695727e-12 6.083091017308265e-13 1.3156675551695727e-12 0.09318152990525909" free_energy=-22575.738238390277 pbc="T T T"
In       1.34070212       2.92966295       0.92794115        0      -0.06000310      -0.14187505       0.08846486
In       1.37542587       0.10962237       2.94826967        1       0.06000310      -0.14187505      -0.08846486
In       1.37542587       2.71041821       4.80415198        2       0.06000310       0.14187505       0.08846486
In       1.34070212       5.53045879       6.82448049        3      -0.06000310       0.14187505      -0.08846486
In       4.09155387       2.71041821       6.82448049        4       0.06000310       0.14187505      -0.08846486
In       4.05683012       5.53045879       4.80415198        5      -0.06000310       0.14187504       0.08846486
In       4.05683012       2.92966295       2.94826967        6      -0.06000310      -0.14187505      -0.08846486
In       4.09155387       0.10962237       0.92794115        7       0.06000310      -0.14187505       0.08846486
O        2.08017812       3.48580921       6.66665985        8      -0.04779570       0.05927557       0.13206346
O        0.63594988       0.66576863       4.96197262        9       0.04779570       0.05927557      -0.13206346
O        0.63594988       2.15427196       2.79044903       10       0.04779570      -0.05927557       0.13206346
O        2.08017812       4.97431254       1.08576180       11      -0.04779570      -0.05927557      -0.13206346
O        3.35207788       2.15427196       1.08576180       12       0.04779570      -0.05927557      -0.13206346
O        4.79630611       4.97431254       2.79044903       13      -0.04779570      -0.05927557       0.13206346
O        4.79630611       3.48580921       4.96197262       14      -0.04779570       0.05927557      -0.13206346
O        3.35207788       0.66576863       6.66665985       15       0.04779570       0.05927557       0.13206346
O        5.25721653       4.23006087       0.00000000       16      -0.01427005       0.00000000      -0.00000000
O        2.89116746       1.41002029       3.87621082       17       0.01427005       0.00000000       0.00000000
O        0.17503946       1.41002029       0.00000000       18       0.01427005       0.00000000      -0.00000000
O        2.54108853       4.23006087       3.87621082       19      -0.01427005      -0.00000000       0.00000000
20
Lattice="5.442015106604308 2.119449827313247e-59 2.144758302644501e-43 -5.2883343828800165e-59 5.680408761832233 8.365892989191643e-16 -3.214049017445472e-43 -7.500493150928771e-16 7.683580315236156" Properties=species:S:1:pos:R:3:spacegroup_kinds:I:1:forces:R:3 spacegroup="P 1" unit_cell=conventional occupancy="_JSON {\"0\": {\"In\": 1}, \"1\": {\"In\": 1}, \"2\": {\"In\": 1}, \"3\": {\"In\": 1}, \"4\": {\"In\": 1}, \"5\": {\"In\": 1}, \"6\": {\"In\": 1}, \"7\": {\"In\": 1}, \"8\": {\"O\": 1}, \"9\": {\"O\": 1}, \"10\": {\"O\": 1}, \"11\": {\"O\": 1}, \"12\": {\"O\": 1}, \"13\": {\"O\": 1}, \"14\": {\"O\": 1}, \"15\": {\"O\": 1}, \"16\": {\"O\": 1}, \"17\": {\"O\": 1}, \"18\": {\"O\": 1}, \"19\": {\"O\": 1}}" n_minim_iter=2 energy=-22575.756435049636 stress="0.08814634531541128 5.448340013853005e-13 2.2384554327229934e-14 5.448340013853005e-13 0.09116764125413009 4.0793143014893723e-14 2.2384554327229934e-14 4.0793143014893723e-14 0.08727391659972925" free_energy=-22575.756435049636 pbc="T T T"
In       1.34292099       2.95015960       0.91997778        0       0.00131756      -0.04212890       0.12824206
In       1.37808656       0.10995522       2.92181238        1      -0.00131756      -0.04212890      -0.12824206
In       1.37808656       2.73024916       4.76176794        2      -0.00131756       0.04212890       0.12824206
In       1.34292099       5.57045355       6.76360253        3       0.00131756       0.04212890      -0.12824206
In       4.09909411       2.73024916       6.76360253        4      -0.00131756       0.04212890      -0.12824206
In       4.06392855       5.57045355       4.76176794        5       0.00131756       0.04212890       0.12824206
In       4.06392855       2.95015960       2.92181238        6       0.00131756      -0.04212890      -0.12824206
In       4.09909411       0.10995522       0.91997778        7      -0.00131756      -0.04212890       0.12824206
O        2.08376406       3.51092179       6.60787316        8       0.00477444       0.17678020       0.13005834
O        0.63724349       0.67071741       4.91749731        9      -0.00477444       0.17678020      -0.13005834
O        0.63724349       2.16948697       2.76608300       10      -0.00477444      -0.17678020       0.13005834
O        2.08376406       5.00969135       1.07570715       11       0.00477444      -0.17678020      -0.13005834
O        3.35825104       2.16948697       1.07570715       12      -0.00477444      -0.17678020      -0.13005834
O        4.80477162       5.00969135       2.76608300       13       0.00477444      -0.17678020       0.13005834
O        4.80477162       3.51092179       4.91749731       14       0.00477444       0.17678020      -0.13005834
O        3.35825104       0.67071741       6.60787316       15      -0.00477444       0.17678020       0.13005834
O        5.26661607       4.26030657       0.00000000       16      -0.07871488       0.00000000       0.00000000
O        2.89640659       1.42010219       3.84179016       17       0.07871488      -0.00000000       0.00000000
O        0.17539904       1.42010219       0.00000000       18       0.07871488       0.00000000      -0.00000000
O        2.54560851       4.26030657       3.84179016       19      -0.07871488       0.00000000      -0.00000000
20
Lattice="5.459706087120128 1.6215431720519278e-59 2.202033686941774e-43 -6.000591506826698e-59 5.666044055604682 9.061740666923574e-16 -3.202736874873355e-43 -6.517079481441236e-16 7.678099856485536" Properties=species:S:1:pos:R:3:spacegroup_kinds:I:1:forces:R:3 spacegroup="P 1" unit_cell=conventional occupancy="_JSON {\"0\": {\"In\": 1}, \"1\": {\"In\": 1}, \"2\": {\"In\": 1}, \"3\": {\"In\": 1}, \"4\": {\"In\": 1}, \"5\": {\"In\": 1}, \"6\": {\"In\": 1}, \"7\": {\"In\": 1}, \"8\": {\"O\": 1}, \"9\": {\"O\": 1}, \"10\": {\"O\": 1}, \"11\": {\"O\": 1}, \"12\": {\"O\": 1}, \"13\": {\"O\": 1}, \"14\": {\"O\": 1}, \"15\": {\"O\": 1}, \"16\": {\"O\": 1}, \"17\": {\"O\": 1}, \"18\": {\"O\": 1}, \"19\": {\"O\": 1}}" n_minim_iter=3 energy=-22575.762445413642 stress="0.09260562569782917 -6.766318697459248e-13 -1.6379920554979302e-13 -6.766318697459248e-13 0.08800368630941922 -7.149924622885055e-13 -1.6379920554979302e-13 -7.149924622885055e-13 0.08980284791921081" free_energy=-22575.762445413642 pbc="T T T"
In       1.34718657       2.94188597       0.92107809        0       0.01870402      -0.04701933       0.12339209
In       1.38266647       0.10886394       2.91797183        1      -0.01870402      -0.04701933      -0.12339209
In       1.38266647       2.72415809       4.76012802        2      -0.01870402       0.04701933       0.12339209
In       1.34718657       5.55718012       6.75702176        3       0.01870402       0.04701933      -0.12339209
In       4.11251951       2.72415809       6.75702176        4      -0.01870402       0.04701933      -0.12339209
In       4.07703962       5.55718012       4.76012802        5       0.01870402       0.04701933       0.12339209
In       4.07703962       2.94188597       2.91797183        6       0.01870402      -0.04701933      -0.12339209
In       4.11251951       0.10886394       0.92107809        7      -0.01870402      -0.04701933       0.12339209
O        2.09050561       3.50441335       6.60502253        8       0.03451782       0.12695580       0.11394832
O        0.63934743       0.67139132       4.91212725        9      -0.03451782       0.12695580      -0.11394832
O        0.63934743       2.16163071       2.76597261       10      -0.03451782      -0.12695580       0.11394832
O        2.09050561       4.99465274       1.07307732       11       0.03451782      -0.12695580      -0.11394832
O        3.36920048       2.16163071       1.07307732       12      -0.03451782      -0.12695580      -0.11394832
O        4.82035865       4.99465274       2.76597261       13       0.03451782      -0.12695580       0.11394832
O        4.82035865       3.50441335       4.91212725       14       0.03451782       0.12695580      -0.11394832
O        3.36920048       0.67139132       6.60502253       15      -0.03451782       0.12695580       0.11394832
O        5.28271001       4.24953304       0.00000000       16      -0.04568217       0.00000000       0.00000000
O        2.90684913       1.41651101       3.83904993       17       0.04568217      -0.00000000       0.00000000
O        0.17699608       1.41651101       0.00000000       18       0.04568217       0.00000000      -0.00000000
O        2.55285696       4.24953304       3.83904993       19      -0.04568217       0.00000000      -0.00000000
20
Lattice="5.445388948835605 1.180818722022364e-59 2.2393731716198706e-43 -6.62762460733704e-59 5.67205890274831 9.663457334335577e-16 -3.2281929022975242e-43 -5.716513850015879e-16 7.6901237584726" Properties=species:S:1:pos:R:3:spacegroup_kinds:I:1:forces:R:3 spacegroup="P 1" unit_cell=conventional occupancy="_JSON {\"0\": {\"In\": 1}, \"1\": {\"In\": 1}, \"2\": {\"In\": 1}, \"3\": {\"In\": 1}, \"4\": {\"In\": 1}, \"5\": {\"In\": 1}, \"6\": {\"In\": 1}, \"7\": {\"In\": 1}, \"8\": {\"O\": 1}, \"9\": {\"O\": 1}, \"10\": {\"O\": 1}, \"11\": {\"O\": 1}, \"12\": {\"O\": 1}, \"13\": {\"O\": 1}, \"14\": {\"O\": 1}, \"15\": {\"O\": 1}, \"16\": {\"O\": 1}, \"17\": {\"O\": 1}, \"18\": {\"O\": 1}, \"19\": {\"O\": 1}}" n_minim_iter=4 energy=-22575.781176665896 stress="0.092766320000948 1.6428856477091287e-14 -3.4893329172037106e-14 1.6428856477091287e-14 0.0893790302187696 -8.543121258747482e-13 -3.4893329172037106e-14 -8.543121258747482e-13 0.09679846938025448" free_energy=-22575.781176665896 pbc="T T T"
In       1.34378423       2.94153587       0.93058665        0      -0.03774200      -0.06885635       0.10959968
In       1.37891024       0.10550642       2.91447523        1       0.03774200      -0.06885635      -0.10959968
In       1.37891024       2.73052304       4.77564853        2       0.03774200       0.06885635       0.10959968
In       1.34378423       5.56655249       6.75953711        3      -0.03774200       0.06885635      -0.10959968
In       4.10160471       2.73052304       6.75953711        4       0.03774200       0.06885635      -0.10959968
In       4.06647871       5.56655249       4.77564853        5      -0.03774200       0.06885635       0.10959968
In       4.06647871       2.94153587       2.91447523        6      -0.03774200      -0.06885635      -0.10959968
In       4.10160471       0.10550642       0.93058665        7       0.03774200      -0.06885635       0.10959968
O        2.08569624       3.51830781       6.62353808        8       0.05021004       0.00514955      -0.06202612
O        0.63699823       0.68227836       4.91164756        9      -0.05021004       0.00514955       0.06202612
O        0.63699823       2.15375109       2.77847620       10      -0.05021004      -0.00514955      -0.06202612
O        2.08569624       4.98978054       1.06658568       11       0.05021004      -0.00514955       0.06202612
O        3.35969270       2.15375109       1.06658568       12      -0.05021004      -0.00514955       0.06202612
O        4.80839072       4.98978054       2.77847620       13       0.05021004      -0.00514955      -0.06202612
O        4.80839072       3.51830781       4.91164756       14       0.05021004       0.00514955       0.06202612
O        3.35969270       0.68227836       6.62353808       15      -0.05021004       0.00514955      -0.06202612
O        5.26465486       4.25404418       0.00000000       16      -0.11111223       0.00000000       0.00000000
O        2.90342856       1.41801473       3.84506188       17       0.11111223      -0.00000000      -0.00000000
O        0.18073409       1.41801473       0.00000000       18       0.11111223      -0.00000000       0.00000000
O        2.54196039       4.25404418       3.84506188       19      -0.11111223       0.00000000      -0.00000000
20
Lattice="5.456496764305227 1.218510739951732e-59 1.8079296346360317e-43 -6.7231526350898965e-59 5.696172344913284 9.395168665561207e-16 -3.2535603790610685e-43 -6.02701570787727e-16 7.641980830195787" Properties=species:S:1:pos:R:3:spacegroup_kinds:I:1:forces:R:3 spacegroup="P 1" unit_cell=conventional occupancy="_JSON {\"0\": {\"In\": 1}, \"1\": {\"In\": 1}, \"2\": {\"In\": 1}, \"3\": {\"In\": 1}, \"4\": {\"In\": 1}, \"5\": {\"In\": 1}, \"6\": {\"In\": 1}, \"7\": {\"In\": 1}, \"8\": {\"O\": 1}, \"9\": {\"O\": 1}, \"10\": {\"O\": 1}, \"11\": {\"O\": 1}, \"12\": {\"O\": 1}, \"13\": {\"O\": 1}, \"14\": {\"O\": 1}, \"15\": {\"O\": 1}, \"16\": {\"O\": 1}, \"17\": {\"O\": 1}, \"18\": {\"O\": 1}, \"19\": {\"O\": 1}}" n_minim_iter=5 energy=-22575.794517842747 stress="0.10640601659387197 3.463859630588409e-13 -8.768527316407326e-13 3.463859630588409e-13 0.10249336252461468 8.70942869968877e-13 -8.768527316407326e-13 8.70942869968877e-13 0.10633941485680677" free_energy=-22575.794517842747 pbc="T T T"
In       1.34557564       2.94777282       0.93923250        0      -0.00073895       0.02035354       0.06347632
In       1.38267274       0.09968664       2.88175791        1       0.00073895       0.02035354      -0.06347632
In       1.38267274       2.74839953       4.76022292        2       0.00073895      -0.02035354       0.06347632
In       1.34557564       5.59648570       6.70274833        3      -0.00073895      -0.02035354      -0.06347632
In       4.11092112       2.74839953       6.70274833        4       0.00073895      -0.02035354      -0.06347632
In       4.07382402       5.59648570       4.76022292        5      -0.00073895      -0.02035354       0.06347632
In       4.07382402       2.94777282       2.88175791        6      -0.00073895       0.02035354      -0.06347632
In       4.11092112       0.09968664       0.93923250        7       0.00073895       0.02035354       0.06347632
O        2.09280604       3.54772805       6.59025764        8       0.10589180      -0.09704278      -0.17118497
O        0.63544235       0.69964188       4.87271360        9      -0.10589180      -0.09704278       0.17118497
O        0.63544235       2.14844429       2.76926723       10      -0.10589180       0.09704278      -0.17118497
O        2.09280604       4.99653046       1.05172319       11       0.10589180       0.09704278       0.17118497
O        3.36369073       2.14844429       1.05172319       12      -0.10589180       0.09704278       0.17118497
O        4.82105442       4.99653046       2.76926723       13       0.10589180       0.09704278      -0.17118497
O        4.82105442       3.54772805       4.87271360       14       0.10589180      -0.09704278       0.17118497
O        3.36369073       0.69964188       6.59025764       15      -0.10589180      -0.09704278      -0.17118497
O        5.26515710       4.27212926       0.00000000       16      -0.13669761       0.00000000       0.00000000
O        2.91958804       1.42404309       3.82099042       17       0.13669761       0.00000000      -0.00000000
O        0.19133966       1.42404309       0.00000000       18       0.13669761      -0.00000000       0.00000000
O        2.53690872       4.27212926       3.82099042       19      -0.13669761      -0.00000000      -0.00000000
20
Lattice="5.450501608602849 2.956166001835218e-59 2.049990754048252e-43 -6.222019087185694e-59 5.706425183109957 7.882332563710806e-16 -3.563066897329096e-43 -8.109413486819625e-16 7.636640864931063" Properties=species:S:1:pos:R:3:spacegroup_kinds:I:1:forces:R:3 spacegroup="P 1" unit_cell=conventional occupancy="_JSON {\"0\": {\"In\": 1}, \"1\": {\"In\": 1}, \"2\": {\"In\": 1}, \"3\": {\"In\": 1}, \"4\": {\"In\": 1}, \"5\": {\"In\": 1}, \"6\": {\"In\": 1}, \"7\": {\"In\": 1}, \"8\": {\"O\": 1}, \"9\": {\"O\": 1}, \"10\": {\"O\": 1}, \"11\": {\"O\": 1}, \"12\": {\"O\": 1}, \"13\": {\"O\": 1}, \"14\": {\"O\": 1}, \"15\": {\"O\": 1}, \"16\": {\"O\": 1}, \"17\": {\"O\": 1}, \"18\": {\"O\": 1}, \"19\": {\"O\": 1}}" n_minim_iter=6 energy=-22575.80133742765 stress="0.1062465087991668 8.689885145467023e-13 9.914498824557598e-13 8.689885145467023e-13 0.10508463538879528 2.388555775821414e-13 9.914498824557598e-13 2.388555775821414e-13 0.10599877754120261" free_energy=-22575.80133742765 pbc="T T T"
In       1.34398386       2.95356364       0.93911498        0       0.00926040       0.05560188       0.04119156
In       1.38126694       0.10035105       2.87920545        1      -0.00926040       0.05560188      -0.04119156
In       1.38126694       2.75286154       4.75743541        2      -0.00926040      -0.05560188       0.04119156
In       1.34398386       5.60607413       6.69752588        3       0.00926040      -0.05560188      -0.04119156
In       4.10651774       2.75286154       6.69752588        4      -0.00926040      -0.05560188      -0.04119156
In       4.06923467       5.60607413       4.75743541        5       0.00926040      -0.05560188       0.04119156
In       4.06923467       2.95356364       2.87920545        6       0.00926040       0.05560188      -0.04119156
In       4.10651774       0.10035105       0.93911498        7      -0.00926040       0.05560188       0.04119156
O        2.09188513       3.55248680       6.58284166        8       0.07364112      -0.02516887      -0.06929058
O        0.63336567       0.69927421       4.87211963        9      -0.07364112      -0.02516887       0.06929058
O        0.63336567       2.15393838       2.76452123       10      -0.07364112       0.02516887      -0.06929058
O        2.09188513       5.00715097       1.05379920       11       0.07364112       0.02516887       0.06929058
O        3.35861648       2.15393838       1.05379920       12      -0.07364112       0.02516887       0.06929058
O        4.81713594       5.00715097       2.76452123       13       0.07364112       0.02516887      -0.06929058
O        4.81713594       3.55248680       4.87211963       14       0.07364112      -0.02516887       0.06929058
O        3.35861648       0.69927421       6.58284166       15      -0.07364112      -0.02516887      -0.06929058
O        5.25742898       4.27981889       0.00000000       16      -0.09822867      -0.00000000       0.00000000
O        2.91832343       1.42660630       3.81832043       17       0.09822867      -0.00000000      -0.00000000
O        0.19307263       1.42660630       0.00000000       18       0.09822867       0.00000000      -0.00000000
O        2.53217818       4.27981889       3.81832043       19      -0.09822867       0.00000000      -0.00000000
20
Lattice="5.445584557292875 5.137543551942185e-59 3.4535588580422725e-43 -7.923947780940894e-59 5.721396385754484 7.038924242559885e-16 -3.5330074536800193e-43 -9.273537453790588e-16 7.623535440232971" Properties=species:S:1:pos:R:3:spacegroup_kinds:I:1:forces:R:3 spacegroup="P 1" unit_cell=conventional occupancy="_JSON {\"0\": {\"In\": 1}, \"1\": {\"In\": 1}, \"2\": {\"In\": 1}, \"3\": {\"In\": 1}, \"4\": {\"In\": 1}, \"5\": {\"In\": 1}, \"6\": {\"In\": 1}, \"7\": {\"In\": 1}, \"8\": {\"O\": 1}, \"9\": {\"O\": 1}, \"10\": {\"O\": 1}, \"11\": {\"O\": 1}, \"12\": {\"O\": 1}, \"13\": {\"O\": 1}, \"14\": {\"O\": 1}, \"15\": {\"O\": 1}, \"16\": {\"O\": 1}, \"17\": {\"O\": 1}, \"18\": {\"O\": 1}, \"19\": {\"O\": 1}}" n_minim_iter=7 energy=-22575.805658282436 stress="0.10813336416957696 4.198147283138953e-13 -2.918359998390659e-14 4.198147283138953e-13 0.10893776588103406 -2.560144186007789e-13 -2.918359998390659e-14 -2.560144186007789e-13 0.10743748765278563" free_energy=-22575.805658282436 pbc="T T T"
In       1.34273466       2.96187547       0.94143082        0       0.02067726       0.09426378       0.00555098
In       1.38005762       0.10117727       2.87033690        1      -0.02067726       0.09426378      -0.00555098
In       1.38005762       2.75952092       4.75319854        2      -0.02067726      -0.09426378       0.00555098
In       1.34273466       5.62021911       6.68210462        3       0.02067726      -0.09426378      -0.00555098
In       4.10284990       2.75952092       6.68210462        4      -0.02067726      -0.09426378      -0.00555098
In       4.06552693       5.62021911       4.75319854        5       0.02067726      -0.09426378       0.00555098
In       4.06552693       2.96187547       2.87033690        6       0.02067726       0.09426378      -0.00555098
In       4.10284990       0.10117727       0.94143082        7      -0.02067726       0.09426378       0.00555098
O        2.09296652       3.56323535       6.57009579        8       0.04334296       0.02023478       0.01707928
O        0.62982576       0.70253716       4.86520738        9      -0.04334296       0.02023478      -0.01707928
O        0.62982576       2.15816103       2.75832807       10      -0.04334296      -0.02023478       0.01707928
O        2.09296652       5.01885923       1.05343966       11       0.04334296      -0.02023478      -0.01707928
O        3.35261804       2.15816103       1.05343966       12      -0.04334296      -0.02023478      -0.01707928
O        4.81575880       5.01885923       2.75832807       13       0.04334296      -0.02023478       0.01707928
O        4.81575880       3.56323535       4.86520738       14       0.04334296       0.02023478      -0.01707928
O        3.35261804       0.70253716       6.57009579       15      -0.04334296       0.02023478       0.01707928
O        5.24730725       4.29104729       0.00000000       16      -0.06045192      -0.00000000       0.00000000
O        2.92106959       1.43034910       3.81176772       17       0.06045192       0.00000000       0.00000000
O        0.19827731       1.43034910       0.00000000       18       0.06045192      -0.00000000       0.00000000
O        2.52451497       4.29104729       3.81176772       19      -0.06045192       0.00000000       0.00000000
20
Lattice="5.434949539357906 3.9270574750673767e-59 4.28757658558841e-43 -7.442716609180246e-59 5.755549092683842 6.717292831258062e-16 -1.822105648087744e-43 -9.731536766670648e-16 7.593127423292525" Properties=species:S:1:pos:R:3:spacegroup_kinds:I:1:forces:R:3 spacegroup="P 1" unit_cell=conventional occupancy="_JSON {\"0\": {\"In\": 1}, \"1\": {\"In\": 1}, \"2\": {\"In\": 1}, \"3\": {\"In\": 1}, \"4\": {\"In\": 1}, \"5\": {\"In\": 1}, \"6\": {\"In\": 1}, \"7\": {\"In\": 1}, \"8\": {\"O\": 1}, \"9\": {\"O\": 1}, \"10\": {\"O\": 1}, \"11\": {\"O\": 1}, \"12\": {\"O\": 1}, \"13\": {\"O\": 1}, \"14\": {\"O\": 1}, \"15\": {\"O\": 1}, \"16\": {\"O\": 1}, \"17\": {\"O\": 1}, \"18\": {\"O\": 1}, \"19\": {\"O\": 1}}" n_minim_iter=8 energy=-22575.810936884765 stress="0.1120022719175627 -4.462621159250119e-13 3.503621734701748e-13 -4.462621159250119e-13 0.11371718047008036 -3.0456994662484325e-13 3.503621734701748e-13 -3.0456994662484325e-13 0.11264546660996651" free_energy=-22575.810936884765 pbc="T T T"
In       1.34113941       2.98622343       0.94938806        0       0.01504515       0.11207105      -0.05947853
In       1.37633535       0.10844889       2.84717565        1      -0.01504515       0.11207105       0.05947853
In       1.37633535       2.76932566       4.74595177        2      -0.01504515      -0.11207105      -0.05947853
In       1.34113941       5.64710020       6.64373937        3       0.01504515      -0.11207105       0.05947853
In       4.09381012       2.76932566       6.64373937        4      -0.01504515      -0.11207105       0.05947853
In       4.05861418       5.64710020       4.74595177        5       0.01504515      -0.11207105      -0.05947853
In       4.05861418       2.98622343       2.84717565        6       0.01504515       0.11207105       0.05947853
In       4.09381012       0.10844889       0.94938806        7      -0.01504515       0.11207105      -0.05947853
O        2.09921014       3.59098882       6.54278647        8      -0.02327102       0.06348191       0.14751018
O        0.61826463       0.71321427       4.84690466        9       0.02327102       0.06348191      -0.14751018
O        0.61826463       2.16456027       2.74622276       10       0.02327102      -0.06348191       0.14751018
O        2.09921014       5.04233482       1.05034095       11      -0.02327102      -0.06348191      -0.14751018
O        3.33573940       2.16456027       1.05034095       12       0.02327102      -0.06348191      -0.14751018
O        4.81668491       5.04233482       2.74622276       13      -0.02327102      -0.06348191       0.14751018
O        4.81668491       3.59098882       4.84690466       14      -0.02327102       0.06348191      -0.14751018
O        3.33573940       0.71321427       6.54278647       15       0.02327102       0.06348191       0.14751018
O        5.21879244       4.31666182       0.00000000       16      -0.01342430       0.00000000       0.00000000
O        2.93363187       1.43888727       3.79656371       17       0.01342430      -0.00000000       0.00000000
O        0.21615710       1.43888727       0.00000000       18       0.01342430      -0.00000000       0.00000000
O        2.50131767       4.31666182       3.79656371       19      -0.01342430       0.00000000      -0.00000000
20
Lattice="5.442028117306868 2.742249734916388e-59 5.224955230946522e-43 -9.89713496281421e-59 5.777149639346962 6.801877520672783e-16 5.338349820686384e-44 -9.609866415935946e-16 7.554897366665524" Properties=species:S:1:pos:R:3:spacegroup_kinds:I:1:forces:R:3 spacegroup="P 1" unit_cell=conventional occupancy="_JSON {\"0\": {\"In\": 1}, \"1\": {\"In\": 1}, \"2\": {\"In\": 1}, \"3\": {\"In\": 1}, \"4\": {\"In\": 1}, \"5\": {\"In\": 1}, \"6\": {\"In\": 1}, \"7\": {\"In\": 1}, \"8\": {\"O\": 1}, \"9\": {\"O\": 1}, \"10\": {\"O\": 1}, \"11\": {\"O\": 1}, \"12\": {\"O\": 1}, \"13\": {\"O\": 1}, \"14\": {\"O\": 1}, \"15\": {\"O\": 1}, \"16\": {\"O\": 1}, \"17\": {\"O\": 1}, \"18\": {\"O\": 1}, \"19\": {\"O\": 1}}" n_minim_iter=9 energy=-22575.818500643327 stress="0.1173529203314172 9.378602213616125e-13 1.9132032409448446e-13 9.378602213616125e-13 0.11481810849440506 -5.90743119655068e-13 1.9132032409448446e-13 -5.90743119655068e-13 0.11479962489343794" free_energy=-22575.818500643327 pbc="T T T"
In       1.34432675       3.00653881       0.95291174        0      -0.00348162       0.03108377      -0.01972822
In       1.37668731       0.11796399       2.82453695        1       0.00348162       0.03108377       0.01972822
In       1.37668731       2.77061083       4.73036042        2       0.00348162      -0.03108377      -0.01972822
In       1.34432675       5.65918565       6.60198563        3      -0.00348162      -0.03108377       0.01972822
In       4.09770137       2.77061083       6.60198563        4       0.00348162      -0.03108377       0.01972822
In       4.06534081       5.65918565       4.73036042        5      -0.00348162      -0.03108377      -0.01972822
In       4.06534081       3.00653881       2.82453695        6      -0.00348162       0.03108377       0.01972822
In       4.09770137       0.11796399       0.95291174        7       0.00348162       0.03108377      -0.01972822
O        2.10929340       3.61386159       6.51626142        8       0.00651004      -0.06140864      -0.04644208
O        0.61172066       0.72528677       4.81608463        9      -0.00651004      -0.06140864       0.04644208
O        0.61172066       2.16328805       2.73881273       10      -0.00651004       0.06140864      -0.04644208
O        2.10929340       5.05186287       1.03863595       11       0.00651004       0.06140864       0.04644208
O        3.33273472       2.16328805       1.03863595       12      -0.00651004       0.06140864       0.04644208
O        4.83030746       5.05186287       2.73881273       13       0.00651004       0.06140864      -0.04644208
O        4.83030746       3.61386159       4.81608463       14       0.00651004      -0.06140864       0.04644208
O        3.33273472       0.72528677       6.51626142       15      -0.00651004      -0.06140864      -0.04644208
O        5.20980664       4.33286223       0.00000000       16      -0.09479172       0.00000000      -0.00000000
O        2.95323554       1.44428741       3.77744868       17       0.09479172      -0.00000000      -0.00000000
O        0.23222148       1.44428741       0.00000000       18       0.09479172      -0.00000000      -0.00000000
O        2.48879258       4.33286223       3.77744868       19      -0.09479172       0.00000000      -0.00000000
20