20
Lattice="5.795454038601329 -2.1766583405269343e-60 -9.507293286465081e-44 6.588509495462007e-60 6.165764887936794 -6.544231584788359e-17 -4.584191596585738e-43 1.3324246036992525e-16 8.443542127321273" Properties=species:S:1:pos:R:3:spacegroup_kinds:I:1:forces:R:3 spacegroup="P 1" unit_cell=conventional occupancy="_JSON {\"0\": {\"In\": 1}, \"1\": {\"In\": 1}, \"2\": {\"In\": 1}, \"3\": {\"In\": 1}, \"4\": {\"In\": 1}, \"5\": {\"In\": 1}, \"6\": {\"In\": 1}, \"7\": {\"In\": 1}, \"8\": {\"O\": 1}, \"9\": {\"O\": 1}, \"10\": {\"O\": 1}, \"11\": {\"O\": 1}, \"12\": {\"O\": 1}, \"13\": {\"O\": 1}, \"14\": {\"O\": 1}, \"15\": {\"O\": 1}, \"16\": {\"O\": 1}, \"17\": {\"O\": 1}, \"18\": {\"O\": 1}, \"19\": {\"O\": 1}}" n_minim_iter=12 energy=-22573.310422886505 stress="0.08165485960652819 9.56879804778878e-13 1.3164719844146828e-13 9.56879804778878e-13 0.08174539475802557 3.7684726622662404e-13 1.3164719844146828e-13 3.7684726622662404e-13 0.08154281298455807" free_energy=-22573.310422886505 pbc="T T T"
In       1.40340813       3.32761814       0.93987270        0      -0.00119143       0.00342088      -0.00186708
In       1.49431889       0.24473569       3.28189836        1       0.00119143       0.00342088       0.00186708
In       1.49431889       2.83814675       5.16164377        2       0.00119143      -0.00342088      -0.00186708
In       1.40340813       5.92102919       7.50366943        3      -0.00119143      -0.00342088       0.00186708
In       4.39204591       2.83814675       7.50366943        4       0.00119143      -0.00342088       0.00186708
In       4.30113515       5.92102919       5.16164377        5      -0.00119143      -0.00342087      -0.00186708
In       4.30113515       3.32761814       3.28189836        6      -0.00119143       0.00342088       0.00186708
In       4.39204591       0.24473569       0.93987270        7       0.00119143       0.00342087      -0.00186708
O        2.24960503       3.68270747       7.17072152        8       0.00075470       0.00459669       0.00047511
O        0.64812199       0.59982502       5.49459167        9      -0.00075470       0.00459669      -0.00047511
O        0.64812199       2.48305742       2.94895046       10      -0.00075470      -0.00459669       0.00047511
O        2.24960503       5.56593987       1.27282060       11       0.00075470      -0.00459669      -0.00047511
O        3.54584901       2.48305742       1.27282060       12      -0.00075470      -0.00459669      -0.00047511
O        5.14733205       5.56593987       2.94895046       13       0.00075470      -0.00459669       0.00047511
O        5.14733205       3.68270747       5.49459167       14       0.00075470       0.00459669      -0.00047511
O        3.54584901       0.59982502       7.17072152       15      -0.00075470       0.00459669       0.00047511
O        5.50893095       4.62432367       0.00000000       16       0.00040272      -0.00000000       0.00000000
O        3.18425011       1.54144122       4.22177106       17      -0.00040272      -0.00000000       0.00000000
O        0.28652309       1.54144122       0.00000000       18      -0.00040272       0.00000000      -0.00000000
O        2.61120393       4.62432367       4.22177106       19       0.00040272      -0.00000000       0.00000000
