20
Lattice="5.796400426607561 -4.9300797243543515e-60 -6.735114568442496e-44 6.304779203974152e-60 6.184794785854731 -4.816649360059704e-17 -4.7829305331969585e-45 1.111371565893101e-16 8.416187975692031" Properties=species:S:1:pos:R:3:spacegroup_kinds:I:1:forces:R:3 spacegroup="P 1" unit_cell=conventional occupancy="_JSON {\"0\": {\"In\": 1}, \"1\": {\"In\": 1}, \"2\": {\"In\": 1}, \"3\": {\"In\": 1}, \"4\": {\"In\": 1}, \"5\": {\"In\": 1}, \"6\": {\"In\": 1}, \"7\": {\"In\": 1}, \"8\": {\"O\": 1}, \"9\": {\"O\": 1}, \"10\": {\"O\": 1}, \"11\": {\"O\": 1}, \"12\": {\"O\": 1}, \"13\": {\"O\": 1}, \"14\": {\"O\": 1}, \"15\": {\"O\": 1}, \"16\": {\"O\": 1}, \"17\": {\"O\": 1}, \"18\": {\"O\": 1}, \"19\": {\"O\": 1}}" n_minim_iter=8 energy=-22573.82123741487 stress="0.07461737686049047 -7.609972560764163e-13 3.533898875073878e-13 -7.609972560764163e-13 0.0747027795435836 -4.673540837984679e-13 3.533898875073878e-13 -4.673540837984679e-13 0.07461374646251054" free_energy=-22573.82123741487 pbc="T T T"
In       1.39880653       3.34257813       0.96221767        0       0.00262392      -0.00155260      -0.00130521
In       1.49939369       0.25018074       3.24587632        1      -0.00262392      -0.00155260       0.00130521
In       1.49939369       2.84221665       5.17031166        2      -0.00262392       0.00155260      -0.00130521
In       1.39880653       5.93461404       7.45397030        3       0.00262392       0.00155260       0.00130521
In       4.39759390       2.84221665       7.45397030        4      -0.00262392       0.00155260       0.00130521
In       4.29700674       5.93461404       5.17031166        5       0.00262392       0.00155260      -0.00130521
In       4.29700674       3.34257813       3.24587632        6       0.00262392      -0.00155260       0.00130521
In       4.39759390       0.25018074       0.96221767        7      -0.00262392      -0.00155260      -0.00130521
O        2.27228419       3.69198168       7.15867488        8       0.00010335       0.00020446      -0.00048855
O        0.62591603       0.59958428       5.46560709        9      -0.00010335       0.00020446       0.00048855
O        0.62591603       2.49281311       2.95058089       10      -0.00010335      -0.00020446      -0.00048855
O        2.27228419       5.58521050       1.25751310       11       0.00010335      -0.00020446       0.00048855
O        3.52411624       2.49281311       1.25751310       12      -0.00010335      -0.00020446       0.00048855
O        5.17048440       5.58521050       2.95058089       13       0.00010335      -0.00020446      -0.00048855
O        5.17048440       3.69198168       5.46560709       14       0.00010335       0.00020446       0.00048855
O        3.52411624       0.59958428       7.15867488       15      -0.00010335       0.00020446      -0.00048855
O        5.50720373       4.63859609       0.00000000       16       0.00280373      -0.00000000       0.00000000
O        3.18739691       1.54619870       4.20809399       17      -0.00280373      -0.00000000       0.00000000
O        0.28919669       1.54619870       0.00000000       18      -0.00280373       0.00000000      -0.00000000
O        2.60900352       4.63859609       4.20809399       19       0.00280373      -0.00000000       0.00000000
