20
Lattice="5.404352084858854 4.21523488491568e-59 1.2981593566912414e-43 -2.9529420087166124e-59 5.335088132010991 -1.5394078498316102e-16 -2.90673369548763e-43 1.1321462412810734e-16 7.57409698916878" Properties=species:S:1:pos:R:3:spacegroup_kinds:I:1:forces:R:3 spacegroup="P 1" unit_cell=conventional occupancy="_JSON {\"0\": {\"In\": 1}, \"1\": {\"In\": 1}, \"2\": {\"In\": 1}, \"3\": {\"In\": 1}, \"4\": {\"In\": 1}, \"5\": {\"In\": 1}, \"6\": {\"In\": 1}, \"7\": {\"In\": 1}, \"8\": {\"O\": 1}, \"9\": {\"O\": 1}, \"10\": {\"O\": 1}, \"11\": {\"O\": 1}, \"12\": {\"O\": 1}, \"13\": {\"O\": 1}, \"14\": {\"O\": 1}, \"15\": {\"O\": 1}, \"16\": {\"O\": 1}, \"17\": {\"O\": 1}, \"18\": {\"O\": 1}, \"19\": {\"O\": 1}}" n_minim_iter=12 energy=-22573.68753861837 stress="-0.09006411931235628 4.046272088695219e-13 -8.260864283361657e-14 4.046272088695219e-13 -0.09013675833895364 1.2898600654373514e-12 -8.260864283361657e-14 1.2898600654373514e-12 -0.09015065526916531" free_energy=-22573.68753861837 pbc="T T T"
In       1.34700538       2.82805393       0.92229422        0      -0.00203489      -0.00393641       0.00270780
In       1.35517066       0.16050986       2.86475428        1       0.00203489      -0.00393641      -0.00270780
In       1.35517066       2.50703420       4.70934271        2       0.00203489       0.00393641       0.00270780
In       1.34700538       5.17457827       6.65180277        3      -0.00203489       0.00393641      -0.00270780
In       4.05734670       2.50703420       6.65180277        4       0.00203489       0.00393641      -0.00270780
In       4.04918142       5.17457827       4.70934271        5      -0.00203489       0.00393641       0.00270780
In       4.04918142       2.82805393       2.86475428        6      -0.00203489      -0.00393641      -0.00270780
In       4.05734670       0.16050986       0.92229422        7       0.00203489      -0.00393641       0.00270780
O        2.09502731       3.19556645       6.49609869        8      -0.00387331       0.00136778      -0.00250394
O        0.60714873       0.52802238       4.86504679        9       0.00387331       0.00136778       0.00250394
O        0.60714873       2.13952168       2.70905019       10       0.00387331      -0.00136778      -0.00250394
O        2.09502731       4.80706575       1.07799830       11      -0.00387331      -0.00136778       0.00250394
O        3.30932477       2.13952168       1.07799830       12       0.00387331      -0.00136778       0.00250394
O        4.79720336       4.80706575       2.70905019       13      -0.00387331      -0.00136778      -0.00250394
O        4.79720336       3.19556645       4.86504679       14      -0.00387331       0.00136778       0.00250394
O        3.30932477       0.52802238       6.49609869       15       0.00387331       0.00136778      -0.00250394
O        5.19106130       4.00131610       0.00000000       16      -0.00240461      -0.00000000      -0.00000000
O        2.91546682       1.33377203       3.78704849       17       0.00240461      -0.00000000      -0.00000000
O        0.21329078       1.33377203       0.00000000       18       0.00240461      -0.00000000      -0.00000000
O        2.48888526       4.00131610       3.78704849       19      -0.00240461       0.00000000      -0.00000000
