20
Lattice="5.829410752390908 5.724009521336034e-62 1.5373892726553666e-44 -7.675993832839138e-62 5.867802796228332 7.258514227975301e-18 -2.2284798578126402e-44 -1.0452537806673191e-17 8.44986021151435" Properties=species:S:1:pos:R:3:spacegroup_kinds:I:1:forces:R:3 spacegroup="P 1" unit_cell=conventional occupancy="_JSON {\"0\": {\"In\": 1}, \"1\": {\"In\": 1}, \"2\": {\"In\": 1}, \"3\": {\"In\": 1}, \"4\": {\"In\": 1}, \"5\": {\"In\": 1}, \"6\": {\"In\": 1}, \"7\": {\"In\": 1}, \"8\": {\"O\": 1}, \"9\": {\"O\": 1}, \"10\": {\"O\": 1}, \"11\": {\"O\": 1}, \"12\": {\"O\": 1}, \"13\": {\"O\": 1}, \"14\": {\"O\": 1}, \"15\": {\"O\": 1}, \"16\": {\"O\": 1}, \"17\": {\"O\": 1}, \"18\": {\"O\": 1}, \"19\": {\"O\": 1}}" n_minim_iter=1 energy=-22573.837839150798 stress="0.0668589964916353 4.062789533729665e-13 -2.0253917063992487e-13 4.062789533729665e-13 0.06725152409475814 3.460025288873216e-14 -2.0253917063992487e-13 3.460025288873216e-14 0.06477467317863358" free_energy=-22573.837839150798 pbc="T T T"
In       1.44192594       3.07306096       0.98622752        0      -0.00750836       0.01201019       0.01057623
In       1.47277944       0.13915956       3.23870259        1       0.00750836       0.01201019      -0.01057623
In       1.47277944       2.79474184       5.21115763        2       0.00750836      -0.01201019       0.01057623
In       1.44192594       5.72864324       7.46363269        3      -0.00750836      -0.01201019      -0.01057623
In       4.38748481       2.79474184       7.46363269        4       0.00750836      -0.01201019      -0.01057623
In       4.35663131       5.72864324       5.21115763        5      -0.00750836      -0.01201019       0.01057623
In       4.35663131       3.07306096       3.23870259        6      -0.00750836       0.01201019      -0.01057623
In       4.38748481       0.13915956       0.98622752        7       0.00750836       0.01201019       0.01057623
O        2.28065730       3.53337675       7.16933692        8       0.01859940      -0.04684300      -0.06116181
O        0.63404808       0.59947536       5.50545340        9      -0.01859940      -0.04684300       0.06116181
O        0.63404808       2.33442604       2.94440681       10      -0.01859940       0.04684300      -0.06116181
O        2.28065730       5.26832744       1.28052329       11       0.01859940       0.04684300       0.06116181
O        3.54875345       2.33442604       1.28052329       12      -0.01859940       0.04684300       0.06116181
O        5.19536267       5.26832744       2.94440681       13       0.01859940       0.04684300      -0.06116181
O        5.19536267       3.53337675       5.50545340       14       0.01859940      -0.04684300       0.06116181
O        3.54875345       0.59947536       7.16933692       15      -0.01859940      -0.04684300      -0.06116181
O        5.56919140       4.40085210      -0.00000000       16      -0.07549430       0.00000000       0.00000000
O        3.17492472       1.46695070       4.22493011       17       0.07549431       0.00000000       0.00000000
O        0.26021935       1.46695070      -0.00000000       18       0.07549431       0.00000000      -0.00000000
O        2.65448603       4.40085210       4.22493011       19      -0.07549430       0.00000000      -0.00000000
20
Lattice="5.823326543453361 5.2114497184406974e-62 7.455852139141443e-45 -8.882038892692947e-62 5.857419455705454 4.97341365526868e-18 -3.766645057964398e-44 -1.3754142889618899e-17 8.47368318451848" Properties=species:S:1:pos:R:3:spacegroup_kinds:I:1:forces:R:3 spacegroup="P 1" unit_cell=conventional occupancy="_JSON {\"0\": {\"In\": 1}, \"1\": {\"In\": 1}, \"2\": {\"In\": 1}, \"3\": {\"In\": 1}, \"4\": {\"In\": 1}, \"5\": {\"In\": 1}, \"6\": {\"In\": 1}, \"7\": {\"In\": 1}, \"8\": {\"O\": 1}, \"9\": {\"O\": 1}, \"10\": {\"O\": 1}, \"11\": {\"O\": 1}, \"12\": {\"O\": 1}, \"13\": {\"O\": 1}, \"14\": {\"O\": 1}, \"15\": {\"O\": 1}, \"16\": {\"O\": 1}, \"17\": {\"O\": 1}, \"18\": {\"O\": 1}, \"19\": {\"O\": 1}}" n_minim_iter=2 energy=-22573.839107954722 stress="0.06563405724079677 4.393755785115027e-13 2.9014504283205767e-13 4.393755785115027e-13 0.06571032258869496 -7.88970885604208e-14 2.9014504283205767e-13 -7.88970885604208e-14 0.06628861156499753" free_energy=-22573.839107954722 pbc="T T T"
In       1.44037293       3.06769985       0.98907597        0      -0.01124958       0.00507377       0.02423982
In       1.47129034       0.13899012       3.24776562        1       0.01124958       0.00507377      -0.02423982
In       1.47129034       2.78971961       5.22591757        2       0.01124958      -0.00507377       0.02423982
In       1.44037293       5.71842934       7.48460721        3      -0.01124958      -0.00507377      -0.02423982
In       4.38295361       2.78971961       7.48460721        4       0.01124958      -0.00507377      -0.02423982
In       4.35203621       5.71842934       5.22591757        5      -0.01124958      -0.00507377       0.02423982
In       4.35203621       3.06769985       3.24776562        6      -0.01124958       0.00507377      -0.02423982
In       4.38295361       0.13899012       0.98907597        7       0.01124958       0.00507377       0.02423982
O        2.27839599       3.52682471       7.18915672        8       0.00662592      -0.04385653      -0.07780032
O        0.63326728       0.59811498       5.52136805        9      -0.00662592      -0.04385653       0.07780032
O        0.63326728       2.33059474       2.95231513       10      -0.00662592       0.04385653      -0.07780032
O        2.27839599       5.25930447       1.28452646       11       0.00662592       0.04385653       0.07780032
O        3.54493055       2.33059474       1.28452646       12      -0.00662592       0.04385653       0.07780032
O        5.19005926       5.25930447       2.95231513       13       0.00662592       0.04385653      -0.07780032
O        5.19005926       3.52682471       5.52136805       14       0.00662592      -0.04385653       0.07780032
O        3.54493055       0.59811498       7.18915672       15      -0.00662592      -0.04385653      -0.07780032
O        5.56289563       4.39306459      -0.00000000       16      -0.07224504      -0.00000000       0.00000000
O        3.17209419       1.46435486       4.23684159       17       0.07224504       0.00000000       0.00000000
O        0.26043091       1.46435486      -0.00000000       18       0.07224504       0.00000000      -0.00000000
O        2.65123236       4.39306459       4.23684159       19      -0.07224504      -0.00000000       0.00000000
20
Lattice="5.8313580969975325 4.692084840903681e-62 1.8093292856459002e-44 -1.3747956137639235e-61 5.844371791827129 4.977651693971886e-18 -1.2997774763108816e-43 -1.3723504921019365e-17 8.480903938669229" Properties=species:S:1:pos:R:3:spacegroup_kinds:I:1:forces:R:3 spacegroup="P 1" unit_cell=conventional occupancy="_JSON {\"0\": {\"In\": 1}, \"1\": {\"In\": 1}, \"2\": {\"In\": 1}, \"3\": {\"In\": 1}, \"4\": {\"In\": 1}, \"5\": {\"In\": 1}, \"6\": {\"In\": 1}, \"7\": {\"In\": 1}, \"8\": {\"O\": 1}, \"9\": {\"O\": 1}, \"10\": {\"O\": 1}, \"11\": {\"O\": 1}, \"12\": {\"O\": 1}, \"13\": {\"O\": 1}, \"14\": {\"O\": 1}, \"15\": {\"O\": 1}, \"16\": {\"O\": 1}, \"17\": {\"O\": 1}, \"18\": {\"O\": 1}, \"19\": {\"O\": 1}}" n_minim_iter=3 energy=-22573.84275428431 stress="0.06735296656707007 -2.1652951128737875e-13 -6.312068436067696e-13 -2.1652951128737875e-13 0.06321100747264581 -6.785787246025839e-13 -6.312068436067696e-13 -6.785787246025839e-13 0.06518649665028262" free_energy=-22573.84275428431 pbc="T T T"
In       1.44149178       3.06142173       0.99169220        0       0.00780979       0.00479925       0.01590238
In       1.47418727       0.13923584       3.24875976        1      -0.00780979       0.00479925      -0.01590238
In       1.47418727       2.78295006       5.23214417        2      -0.00780979      -0.00479925       0.01590238
In       1.44149178       5.70513596       7.48921173        3       0.00780979      -0.00479925      -0.01590238
In       4.38986632       2.78295006       7.48921173        4      -0.00780979      -0.00479925      -0.01590238
In       4.35717082       5.70513596       5.23214417        5       0.00780979      -0.00479925       0.01590238
In       4.35717082       3.06142173       3.24875976        6       0.00780979       0.00479925      -0.01590238
In       4.38986632       0.13923584       0.99169220        7      -0.00780979       0.00479925       0.01590238
O        2.28232335       3.51526437       7.18906338        8       0.00005329      -0.01959952      -0.02373587
O        0.63335570       0.59307847       5.53229253        9      -0.00005329      -0.01959952       0.02373587
O        0.63335570       2.32910742       2.94861141       10      -0.00005329       0.01959952      -0.02373587
O        2.28232335       5.25129332       1.29184056       11       0.00005329       0.01959952       0.02373587
O        3.54903475       2.32910742       1.29184056       12      -0.00005329       0.01959952       0.02373587
O        5.19800240       5.25129332       2.94861141       13       0.00005329       0.01959952      -0.02373587
O        5.19800240       3.51526437       5.53229253       14       0.00005329      -0.01959952       0.02373587
O        3.54903475       0.59307847       7.18906338       15      -0.00005329      -0.01959952      -0.02373587
O        5.56446847       4.38327884      -0.00000000       16      -0.00758405       0.00000000      -0.00000000
O        3.18256868       1.46109295       4.24045197       17       0.00758405      -0.00000000      -0.00000000
O        0.26688963       1.46109295      -0.00000000       18       0.00758405       0.00000000       0.00000000
O        2.64878942       4.38327884       4.24045197       19      -0.00758405      -0.00000000      -0.00000000
20
Lattice="5.813333181151162 3.895101376994533e-62 1.778128680263295e-44 -1.3805972479733282e-61 5.85741769677397 2.676009351448915e-18 -1.3006559402201915e-43 -1.7074802500419936e-17 8.488252348428128" Properties=species:S:1:pos:R:3:spacegroup_kinds:I:1:forces:R:3 spacegroup="P 1" unit_cell=conventional occupancy="_JSON {\"0\": {\"In\": 1}, \"1\": {\"In\": 1}, \"2\": {\"In\": 1}, \"3\": {\"In\": 1}, \"4\": {\"In\": 1}, \"5\": {\"In\": 1}, \"6\": {\"In\": 1}, \"7\": {\"In\": 1}, \"8\": {\"O\": 1}, \"9\": {\"O\": 1}, \"10\": {\"O\": 1}, \"11\": {\"O\": 1}, \"12\": {\"O\": 1}, \"13\": {\"O\": 1}, \"14\": {\"O\": 1}, \"15\": {\"O\": 1}, \"16\": {\"O\": 1}, \"17\": {\"O\": 1}, \"18\": {\"O\": 1}, \"19\": {\"O\": 1}}" n_minim_iter=4 energy=-22573.845051960943 stress="0.06423267640373839 1.7102239963354923e-14 -2.0181714425741664e-14 1.7102239963354923e-14 0.06426597065953639 -1.5424726516481983e-13 -2.0181714425741664e-14 -1.5424726516481983e-13 0.06443016009464408" free_energy=-22573.845051960943 pbc="T T T"
In       1.43654172       3.06863949       0.99376769        0      -0.00181048       0.02321991       0.01110206
In       1.47012487       0.13993065       3.25035848        1       0.00181048       0.02321991      -0.01110206
In       1.47012487       2.78877820       5.23789386        2       0.00181048      -0.02321991       0.01110206
In       1.43654172       5.71748705       7.49448466        3      -0.00181048      -0.02321991      -0.01110206
In       4.37679146       2.78877820       7.49448466        4       0.00181048      -0.02321991      -0.01110206
In       4.34320831       5.71748705       5.23789386        5      -0.00181048      -0.02321991       0.01110206
In       4.34320831       3.06863949       3.25035848        6      -0.00181048       0.02321991      -0.01110206
In       4.37679146       0.13993065       0.99376769        7       0.00181048       0.02321991       0.01110206
O        2.27576693       3.52064486       7.19122112        8      -0.00353625      -0.00575143      -0.00402993
O        0.63089966       0.59193602       5.54115740        9       0.00353625      -0.00575143       0.00402993
O        0.63089966       2.33677283       2.94709495       10       0.00353625       0.00575143      -0.00402993
O        2.27576693       5.26548168       1.29703123       11      -0.00353625       0.00575143       0.00402993
O        3.53756625       2.33677283       1.29703123       12       0.00353625       0.00575143       0.00402993
O        5.18243352       5.26548168       2.94709495       13      -0.00353625       0.00575143      -0.00402993
O        5.18243352       3.52064486       5.54115740       14      -0.00353625      -0.00575143       0.00402993
O        3.53756625       0.59193602       7.19122112       15       0.00353625      -0.00575143      -0.00402993
O        5.54338483       4.39306327      -0.00000000       16       0.02229909       0.00000000       0.00000000
O        3.17661494       1.46435442       4.24412617       17      -0.02229909      -0.00000000      -0.00000000
O        0.26994835       1.46435442      -0.00000000       18      -0.02229909      -0.00000000       0.00000000
O        2.63671824       4.39306327       4.24412617       19       0.02229909       0.00000000       0.00000000
20
Lattice="5.814372879232088 4.396940591349222e-62 1.7696621243701495e-44 -1.3804892545111055e-61 5.860399038763303 4.32446823824034e-18 -1.2929096192842072e-43 -1.4707000422536267e-17 8.482417090925114" Properties=species:S:1:pos:R:3:spacegroup_kinds:I:1:forces:R:3 spacegroup="P 1" unit_cell=conventional occupancy="_JSON {\"0\": {\"In\": 1}, \"1\": {\"In\": 1}, \"2\": {\"In\": 1}, \"3\": {\"In\": 1}, \"4\": {\"In\": 1}, \"5\": {\"In\": 1}, \"6\": {\"In\": 1}, \"7\": {\"In\": 1}, \"8\": {\"O\": 1}, \"9\": {\"O\": 1}, \"10\": {\"O\": 1}, \"11\": {\"O\": 1}, \"12\": {\"O\": 1}, \"13\": {\"O\": 1}, \"14\": {\"O\": 1}, \"15\": {\"O\": 1}, \"16\": {\"O\": 1}, \"17\": {\"O\": 1}, \"18\": {\"O\": 1}, \"19\": {\"O\": 1}}" n_minim_iter=5 energy=-22573.84539915906 stress="0.06457694288255504 -1.586962220678881e-13 3.439788711078734e-13 -1.586962220678881e-13 0.06450419391418805 -1.5188265719413862e-13 3.439788711078734e-13 -1.5188265719413862e-13 0.0636547626948232" free_energy=-22573.84539915906 pbc="T T T"
In       1.43661518       3.07193181       0.99402101        0      -0.00320964       0.01784989      -0.00149361
In       1.47057126       0.14173229       3.24718753        1       0.00320964       0.01784989       0.00149361
In       1.47057126       2.78846723       5.23522956        2       0.00320964      -0.01784989      -0.00149361
In       1.43661518       5.71866675       7.48839608        3      -0.00320964      -0.01784989       0.00149361
In       4.37775770       2.78846723       7.48839608        4       0.00320964      -0.01784989       0.00149361
In       4.34380162       5.71866675       5.23522956        5      -0.00320964      -0.01784989      -0.00149361
In       4.34380162       3.07193181       3.24718753        6      -0.00320964       0.01784989       0.00149361
In       4.37775770       0.14173229       0.99402101        7       0.00320964       0.01784989      -0.00149361
O        2.27602857       3.52166240       7.18545516        8       0.00382350      -0.00567341       0.00822187
O        0.63115787       0.59146288       5.53817047        9      -0.00382350      -0.00567341      -0.00822187
O        0.63115787       2.33873663       2.94424662       10      -0.00382350       0.00567341       0.00822187
O        2.27602857       5.26893615       1.29696193       11       0.00382350       0.00567341      -0.00822187
O        3.53834431       2.33873663       1.29696193       12      -0.00382350       0.00567341      -0.00822187
O        5.18321501       5.26893615       2.94424662       13       0.00382350       0.00567341       0.00822187
O        5.18321501       3.52166240       5.53817047       14       0.00382350      -0.00567341      -0.00822187
O        3.53834431       0.59146288       7.18545516       15      -0.00382350      -0.00567341       0.00822187
O        5.54540112       4.39529928      -0.00000000       16       0.01248748       0.00000000      -0.00000000
O        3.17615820       1.46509976       4.24120855       17      -0.01248748       0.00000000       0.00000000
O        0.26897176       1.46509976      -0.00000000       18      -0.01248748       0.00000000      -0.00000000
O        2.63821468       4.39529928       4.24120855       19       0.01248748      -0.00000000       0.00000000
20
Lattice="5.810272105134711 4.456556160294589e-62 -3.673286914954646e-45 -1.8816298847235095e-61 5.859432795895774 2.577089044215505e-18 -2.5247324607300254e-43 -1.7224975621136988e-17 8.48980358186407" Properties=species:S:1:pos:R:3:spacegroup_kinds:I:1:forces:R:3 spacegroup="P 1" unit_cell=conventional occupancy="_JSON {\"0\": {\"In\": 1}, \"1\": {\"In\": 1}, \"2\": {\"In\": 1}, \"3\": {\"In\": 1}, \"4\": {\"In\": 1}, \"5\": {\"In\": 1}, \"6\": {\"In\": 1}, \"7\": {\"In\": 1}, \"8\": {\"O\": 1}, \"9\": {\"O\": 1}, \"10\": {\"O\": 1}, \"11\": {\"O\": 1}, \"12\": {\"O\": 1}, \"13\": {\"O\": 1}, \"14\": {\"O\": 1}, \"15\": {\"O\": 1}, \"16\": {\"O\": 1}, \"17\": {\"O\": 1}, \"18\": {\"O\": 1}, \"19\": {\"O\": 1}}" n_minim_iter=6 energy=-22573.845783259578 stress="0.06405966533418363 5.974634408492483e-13 8.303270353083396e-14 5.974634408492483e-13 0.06399470062265425 -6.594490614843484e-13 8.303270353083396e-14 -6.594490614843484e-13 0.06385401756824452" free_energy=-22573.845783259578 pbc="T T T"
In       1.43518650       3.07462925       0.99633014        0      -0.01149918       0.00345313      -0.00705467
In       1.46994955       0.14491285       3.24857165        1       0.01149918       0.00345313       0.00705467
In       1.46994955       2.78480355       5.24123194        2       0.01149918      -0.00345313      -0.00705467
In       1.43518650       5.71451994       7.49347344        3      -0.01149918      -0.00345313       0.00705467
In       4.37508560       2.78480355       7.49347344        4       0.01149918      -0.00345313       0.00705467
In       4.34032256       5.71451994       5.24123194        5      -0.01149918      -0.00345313      -0.00705467
In       4.34032256       3.07462925       3.24857165        6      -0.01149918       0.00345313       0.00705467
In       4.37508560       0.14491285       0.99633014        7       0.01149918       0.00345313      -0.00705467
O        2.27423837       3.51978662       7.19071518        8       0.00803507      -0.00659505       0.00986702
O        0.63089768       0.59007022       5.54399019        9      -0.00803507      -0.00659505      -0.00986702
O        0.63089768       2.33964617       2.94581339       10      -0.00803507       0.00659505       0.00986702
O        2.27423837       5.26936257       1.29908840       11       0.00803507       0.00659505      -0.00986702
O        3.53603374       2.33964617       1.29908840       12      -0.00803507       0.00659505      -0.00986702
O        5.17937442       5.26936257       2.94581339       13       0.00803507       0.00659505       0.00986702
O        5.17937442       3.51978662       5.54399019       14       0.00803507      -0.00659505      -0.00986702
O        3.53603374       0.59007022       7.19071518       15      -0.00803507      -0.00659505       0.00986702
O        5.54358866       4.39457460      -0.00000000       16      -0.00856591       0.00000000       0.00000000
O        3.17181949       1.46485820       4.24490179       17       0.00856591      -0.00000000       0.00000000
O        0.26668344       1.46485820      -0.00000000       18       0.00856591      -0.00000000       0.00000000
O        2.63845261       4.39457460       4.24490179       19      -0.00856591       0.00000000      -0.00000000
20
Lattice="5.807959776347293 4.451114509549188e-62 6.897936079025883e-45 -1.8582153346878964e-61 5.8588385526462385 2.5783765531956245e-18 -2.447401141882022e-43 -1.7223228724151768e-17 8.494045072229195" Properties=species:S:1:pos:R:3:spacegroup_kinds:I:1:forces:R:3 spacegroup="P 1" unit_cell=conventional occupancy="_JSON {\"0\": {\"In\": 1}, \"1\": {\"In\": 1}, \"2\": {\"In\": 1}, \"3\": {\"In\": 1}, \"4\": {\"In\": 1}, \"5\": {\"In\": 1}, \"6\": {\"In\": 1}, \"7\": {\"In\": 1}, \"8\": {\"O\": 1}, \"9\": {\"O\": 1}, \"10\": {\"O\": 1}, \"11\": {\"O\": 1}, \"12\": {\"O\": 1}, \"13\": {\"O\": 1}, \"14\": {\"O\": 1}, \"15\": {\"O\": 1}, \"16\": {\"O\": 1}, \"17\": {\"O\": 1}, \"18\": {\"O\": 1}, \"19\": {\"O\": 1}}" n_minim_iter=7 energy=-22573.84588487906 stress="0.06363544076813431 -8.311334650756423e-13 4.216318238758777e-13 -8.311334650756423e-13 0.06376869004354863 -8.33297682195606e-14 4.216318238758777e-13 -8.33297682195606e-14 0.06425430575662924" free_energy=-22573.84588487906 pbc="T T T"
In       1.43398825       3.07449089       0.99651542        0      -0.00799457       0.00364495       0.00132519
In       1.46999164       0.14507162       3.25050711        1       0.00799457       0.00364495      -0.00132519
In       1.46999164       2.78434766       5.24353796        2       0.00799457      -0.00364495       0.00132519
In       1.43398825       5.71376693       7.49752965        3      -0.00799457      -0.00364495      -0.00132519
In       4.37397152       2.78434766       7.49752965        4       0.00799457      -0.00364495      -0.00132519
In       4.33796814       5.71376693       5.24353796        5      -0.00799457      -0.00364495       0.00132519
In       4.33796814       3.07449089       3.25050711        6      -0.00799457       0.00364495      -0.00132519
In       4.37397152       0.14507162       0.99651542        7       0.00799457       0.00364495       0.00132519
O        2.27373909       3.51902693       7.19467105        8       0.00324623      -0.00603925       0.00305362
O        0.63024080       0.58960765       5.54639655        9      -0.00324623      -0.00603925      -0.00305362
O        0.63024080       2.33981163       2.94764852       10      -0.00324623       0.00603925       0.00305362
O        2.27373909       5.26923090       1.29937402       11       0.00324623       0.00603925      -0.00305362
O        3.53422069       2.33981163       1.29937402       12      -0.00324623       0.00603925      -0.00305362
O        5.17771897       5.26923090       2.94764852       13       0.00324623       0.00603925       0.00305362
O        5.17771897       3.51902693       5.54639655       14       0.00324623      -0.00603925      -0.00305362
O        3.53422069       0.58960765       7.19467105       15      -0.00324623      -0.00603925       0.00305362
O        5.54082182       4.39412891      -0.00000000       16      -0.00217413       0.00000000      -0.00000000
O        3.17111785       1.46470964       4.24702254       17       0.00217413      -0.00000000       0.00000000
O        0.26713796       1.46470964      -0.00000000       18       0.00217413      -0.00000000      -0.00000000
O        2.63684193       4.39412891       4.24702254       19      -0.00217413       0.00000000       0.00000000
