20
Lattice="5.337784705660886 5.75721151221935e-59 5.0312773334896805e-43 1.3934556815399305e-60 5.195152584712234 -2.560245002491849e-16 -7.217753018340322e-43 1.104708223608411e-16 7.180249101655095" Properties=species:S:1:pos:R:3:spacegroup_kinds:I:1:forces:R:3 spacegroup="P 1" unit_cell=conventional occupancy="_JSON {\"0\": {\"In\": 1}, \"1\": {\"In\": 1}, \"2\": {\"In\": 1}, \"3\": {\"In\": 1}, \"4\": {\"In\": 1}, \"5\": {\"In\": 1}, \"6\": {\"In\": 1}, \"7\": {\"In\": 1}, \"8\": {\"O\": 1}, \"9\": {\"O\": 1}, \"10\": {\"O\": 1}, \"11\": {\"O\": 1}, \"12\": {\"O\": 1}, \"13\": {\"O\": 1}, \"14\": {\"O\": 1}, \"15\": {\"O\": 1}, \"16\": {\"O\": 1}, \"17\": {\"O\": 1}, \"18\": {\"O\": 1}, \"19\": {\"O\": 1}}" n_minim_iter=13 energy=-22568.00717161296 stress="-0.3814947286929181 4.942668922925557e-14 -3.90635951996574e-13 4.942668922925557e-14 -0.38145894877859254 -1.3874808985182685e-12 -3.90635951996574e-13 -1.3874808985182685e-12 -0.3814927709388127" free_energy=-22568.00717161296 pbc="T T T"
In       1.31747774       2.78233568       0.83889915        0       0.00194267      -0.00133706       0.00064251
In       1.35141461       0.18475938       2.75122540        1      -0.00194267      -0.00133706      -0.00064251
In       1.35141461       2.41281691       4.42902370        2      -0.00194267       0.00133706       0.00064251
In       1.31747774       5.01039320       6.34134995        3       0.00194267       0.00133706      -0.00064251
In       4.02030697       2.41281691       6.34134995        4      -0.00194267       0.00133706      -0.00064251
In       3.98637009       5.01039320       4.42902370        5       0.00194267       0.00133706       0.00064251
In       3.98637009       2.78233568       2.75122540        6       0.00194267      -0.00133706      -0.00064251
In       4.02030697       0.18475938       0.83889915        7      -0.00194267      -0.00133706       0.00064251
O        2.13602643       3.15323162       6.12958942        8      -0.00281702       0.00334837      -0.00235144
O        0.53286593       0.55565533       4.64078424        9       0.00281702       0.00334837       0.00235144
O        0.53286593       2.04192096       2.53946487       10       0.00281702      -0.00334837      -0.00235144
O        2.13602643       4.63949725       1.05065968       11      -0.00281702      -0.00334837       0.00235144
O        3.20175828       2.04192096       1.05065968       12       0.00281702      -0.00334837       0.00235144
O        4.80491878       4.63949725       2.53946487       13      -0.00281702      -0.00334837      -0.00235144
O        4.80491878       3.15323162       4.64078424       14      -0.00281702       0.00334837       0.00235144
O        3.20175828       0.55565533       6.12958942       15       0.00281702       0.00334837      -0.00235144
O        5.11317708       3.89636444      -0.00000000       16      -0.00949761       0.00000000       0.00000000
O        2.89349998       1.29878815       3.59012455       17       0.00949761      -0.00000000       0.00000000
O        0.22460763       1.29878815      -0.00000000       18       0.00949761       0.00000000      -0.00000000
O        2.44428472       3.89636444       3.59012455       19      -0.00949761      -0.00000000       0.00000000
