20
Lattice="5.694478662873127 8.76767199191383e-62 2.364958402710664e-43 -1.4646937892721362e-62 5.750425093977775 2.62401665790323e-18 1.1909774760108647e-43 -1.267854940179949e-17 8.238204108823124" Properties=species:S:1:pos:R:3:spacegroup_kinds:I:1:forces:R:3 spacegroup="P 1" unit_cell=conventional occupancy="_JSON {\"0\": {\"In\": 1}, \"1\": {\"In\": 1}, \"2\": {\"In\": 1}, \"3\": {\"In\": 1}, \"4\": {\"In\": 1}, \"5\": {\"In\": 1}, \"6\": {\"In\": 1}, \"7\": {\"In\": 1}, \"8\": {\"O\": 1}, \"9\": {\"O\": 1}, \"10\": {\"O\": 1}, \"11\": {\"O\": 1}, \"12\": {\"O\": 1}, \"13\": {\"O\": 1}, \"14\": {\"O\": 1}, \"15\": {\"O\": 1}, \"16\": {\"O\": 1}, \"17\": {\"O\": 1}, \"18\": {\"O\": 1}, \"19\": {\"O\": 1}}" n_minim_iter=6 energy=-22574.76895874339 stress="0.02936593644555125 -3.048348059690595e-13 1.1087762031270645e-13 -3.048348059690595e-13 0.02937541035463129 -1.8425471758176843e-13 1.1087762031270645e-13 -1.8425471758176843e-13 0.029379029389957238" free_energy=-22574.76895874339 pbc="T T T"
In       1.41018713       3.02134901       0.95264745        0      -0.00308672      -0.00192092      -0.00300817
In       1.43705220       0.14613647       3.16645460        1       0.00308672      -0.00192092       0.00300817
In       1.43705220       2.72907608       5.07174951        2       0.00308672       0.00192092      -0.00300817
In       1.41018713       5.60428863       7.28555666        3      -0.00308672       0.00192092       0.00300817
In       4.28429153       2.72907608       7.28555666        4       0.00308672       0.00192092       0.00300817
In       4.25742646       5.60428863       5.07174951        5      -0.00308672       0.00192092      -0.00300817
In       4.25742646       3.02134901       3.16645460        6      -0.00308672      -0.00192092       0.00300817
In       4.28429153       0.14613647       0.95264745        7       0.00308672      -0.00192092      -0.00300817
O        2.22444534       3.47095412       6.99609122        8       0.00011124       0.00369379      -0.00209729
O        0.62279399       0.59574157       5.36121494        9      -0.00011124       0.00369379       0.00209729
O        0.62279399       2.27947098       2.87698916       10      -0.00011124      -0.00369379      -0.00209729
O        2.22444534       5.15468353       1.24211289       11       0.00011124      -0.00369379       0.00209729
O        3.47003332       2.27947098       1.24211289       12      -0.00011124      -0.00369379       0.00209729
O        5.07168467       5.15468353       2.87698916       13       0.00011124      -0.00369379      -0.00209729
O        5.07168467       3.47095412       5.36121494       14       0.00011124       0.00369379       0.00209729
O        3.47003332       0.59574157       6.99609122       15      -0.00011124       0.00369379      -0.00209729
O        5.45477422       4.31281882      -0.00000000       16       0.00013759      -0.00000000       0.00000000
O        3.08694377       1.43760627       4.11910205       17      -0.00013759       0.00000000      -0.00000000
O        0.23970444       1.43760627      -0.00000000       18      -0.00013759      -0.00000000      -0.00000000
O        2.60753489       4.31281882       4.11910205       19       0.00013759       0.00000000       0.00000000
