20
Lattice="5.850666896675698 4.483844468136191e-62 6.948658018827242e-45 -1.8718791734454905e-61 5.901919795059718 2.597335885207134e-18 -2.4653973848112326e-43 -1.734987466005537e-17 8.556503529061471" Properties=species:S:1:pos:R:3:spacegroup_kinds:I:1:forces:R:3 spacegroup="P 1" unit_cell=conventional occupancy="_JSON {\"0\": {\"In\": 1}, \"1\": {\"In\": 1}, \"2\": {\"In\": 1}, \"3\": {\"In\": 1}, \"4\": {\"In\": 1}, \"5\": {\"In\": 1}, \"6\": {\"In\": 1}, \"7\": {\"In\": 1}, \"8\": {\"O\": 1}, \"9\": {\"O\": 1}, \"10\": {\"O\": 1}, \"11\": {\"O\": 1}, \"12\": {\"O\": 1}, \"13\": {\"O\": 1}, \"14\": {\"O\": 1}, \"15\": {\"O\": 1}, \"16\": {\"O\": 1}, \"17\": {\"O\": 1}, \"18\": {\"O\": 1}, \"19\": {\"O\": 1}}" n_minim_iter=7 energy=-22573.84588487906 stress="0.06363544076813431 -8.311334650756423e-13 4.216318238758777e-13 -8.311334650756423e-13 0.06376869004354863 -8.33297682195606e-14 4.216318238758777e-13 -8.33297682195606e-14 0.06425430575662924" free_energy=-22573.84588487906 pbc="T T T"
In       1.44453266       3.09709826       1.00384300        0      -0.00799457       0.00364495       0.00132519
In       1.48080079       0.14613836       3.27440876        1       0.00799457       0.00364495      -0.00132519
In       1.48080079       2.80482154       5.28209477        2       0.00799457      -0.00364495       0.00132519
In       1.44453266       5.75578144       7.55266052        3      -0.00799457      -0.00364495      -0.00132519
In       4.40613423       2.80482154       7.55266052        4       0.00799457      -0.00364495      -0.00132519
In       4.36986611       5.75578144       5.28209477        5      -0.00799457      -0.00364495       0.00132519
In       4.36986611       3.09709826       3.27440876        6      -0.00799457       0.00364495      -0.00132519
In       4.40613423       0.14613836       1.00384300        7       0.00799457       0.00364495       0.00132519
O        2.29045836       3.54490305       7.24757495        8       0.00324623      -0.00603925       0.00305362
O        0.63487509       0.59394315       5.58718035        9      -0.00324623      -0.00603925      -0.00305362
O        0.63487509       2.35701674       2.96932318       10      -0.00324623       0.00603925       0.00305362
O        2.29045836       5.30797664       1.30892858       11       0.00324623       0.00603925      -0.00305362
O        3.56020854       2.35701674       1.30892858       12      -0.00324623       0.00603925      -0.00305362
O        5.21579180       5.30797664       2.96932318       13       0.00324623       0.00603925       0.00305362
O        5.21579180       3.54490305       5.58718035       14       0.00324623      -0.00603925      -0.00305362
O        3.56020854       0.59394315       7.24757495       15      -0.00324623      -0.00603925       0.00305362
O        5.58156462       4.42643985      -0.00000000       16      -0.00217413       0.00000000      -0.00000000
O        3.19443573       1.47547995       4.27825176       17       0.00217413      -0.00000000       0.00000000
O        0.26910228       1.47547995      -0.00000000       18       0.00217413      -0.00000000      -0.00000000
O        2.65623117       4.42643985       4.27825176       19      -0.00217413       0.00000000       0.00000000
