20
Lattice="5.744294113559771 -2.0129344106282706e-58 1.8787322710794093e-43 2.5934993196891043e-58 6.013433796364168 -1.4867339555891952e-15 -3.0407184368963044e-43 2.2985751463800665e-15 9.297110230624144" Properties=species:S:1:pos:R:3:spacegroup_kinds:I:1:forces:R:3 spacegroup="P 1" unit_cell=conventional occupancy="_JSON {\"0\": {\"In\": 1}, \"1\": {\"In\": 1}, \"2\": {\"In\": 1}, \"3\": {\"In\": 1}, \"4\": {\"In\": 1}, \"5\": {\"In\": 1}, \"6\": {\"In\": 1}, \"7\": {\"In\": 1}, \"8\": {\"O\": 1}, \"9\": {\"O\": 1}, \"10\": {\"O\": 1}, \"11\": {\"O\": 1}, \"12\": {\"O\": 1}, \"13\": {\"O\": 1}, \"14\": {\"O\": 1}, \"15\": {\"O\": 1}, \"16\": {\"O\": 1}, \"17\": {\"O\": 1}, \"18\": {\"O\": 1}, \"19\": {\"O\": 1}}" n_minim_iter=1 energy=-22571.343129854715 stress="0.1161756327150864 5.007364000914535e-14 8.31293962116239e-14 5.007364000914535e-14 0.11837597750971499 -9.363788794401834e-13 8.31293962116239e-14 -9.363788794401834e-13 0.11651388664659884" free_energy=-22571.343129854715 pbc="T T T"
In       1.34424350       3.24460691       1.17203237        0      -0.02474254       0.01772868       0.01389488
In       1.52790356       0.23789002       3.47652275        1       0.02474254       0.01772868      -0.01389488
In       1.52790356       2.76882688       5.82058748        2       0.02474254      -0.01772868       0.01389488
In       1.34424350       5.77554378       8.12507786        3      -0.02474254      -0.01772868      -0.01389488
In       4.40005062       2.76882688       8.12507786        4       0.02474254      -0.01772868      -0.01389488
In       4.21639055       5.77554378       5.82058748        5      -0.02474254      -0.01772868       0.01389488
In       4.21639055       3.24460691       3.47652275        6      -0.02474254       0.01772868      -0.01389488
In       4.40005062       0.23789002       1.17203237        7       0.02474254       0.01772868       0.01389488
O        2.32426775       3.61493475       7.74470720        8       0.04009068      -0.00584452      -0.04115667
O        0.54787931       0.60821786       6.20095814        9      -0.04009068      -0.00584452       0.04115667
O        0.54787931       2.39849904       3.09615209       10      -0.04009068       0.00584452      -0.04115667
O        2.32426775       5.40521594       1.55240303       11       0.04009068       0.00584452       0.04115667
O        3.42002637       2.39849904       1.55240303       12      -0.04009068       0.00584452       0.04115667
O        5.19641480       5.40521594       3.09615209       13       0.04009068       0.00584452      -0.04115667
O        5.19641480       3.61493475       6.20095814       14       0.04009068      -0.00584452       0.04115667
O        3.42002637       0.60821786       7.74470720       15      -0.04009068      -0.00584452      -0.04115667
O        5.51192337       4.51007535      -0.00000000       16       0.05504215       0.00000000       0.00000000
O        3.10451780       1.50335845       4.64855512       17      -0.05504215      -0.00000000      -0.00000000
O        0.23237075       1.50335845      -0.00000000       18      -0.05504215      -0.00000000       0.00000000
O        2.63977631       4.51007535       4.64855512       19       0.05504215      -0.00000000      -0.00000000
20
Lattice="5.75167135210012 -2.019996873358146e-58 1.8788169329190628e-43 2.588393703856696e-58 6.0010957189941285 -1.4967819924657988e-15 -3.0468300561583565e-43 2.279959046468079e-15 9.304275592885237" Properties=species:S:1:pos:R:3:spacegroup_kinds:I:1:forces:R:3 spacegroup="P 1" unit_cell=conventional occupancy="_JSON {\"0\": {\"In\": 1}, \"1\": {\"In\": 1}, \"2\": {\"In\": 1}, \"3\": {\"In\": 1}, \"4\": {\"In\": 1}, \"5\": {\"In\": 1}, \"6\": {\"In\": 1}, \"7\": {\"In\": 1}, \"8\": {\"O\": 1}, \"9\": {\"O\": 1}, \"10\": {\"O\": 1}, \"11\": {\"O\": 1}, \"12\": {\"O\": 1}, \"13\": {\"O\": 1}, \"14\": {\"O\": 1}, \"15\": {\"O\": 1}, \"16\": {\"O\": 1}, \"17\": {\"O\": 1}, \"18\": {\"O\": 1}, \"19\": {\"O\": 1}}" n_minim_iter=2 energy=-22571.344001792786 stress="0.11669077564770645 1.9250333767353142e-13 -2.418590184869174e-13 1.9250333767353142e-13 0.11676949881602082 1.8979850837418437e-13 -2.418590184869174e-13 1.8979850837418437e-13 0.11713316615598436" free_energy=-22571.344001792786 pbc="T T T"
In       1.34585287       3.23803334       1.17300134        0      -0.02329327       0.01412238       0.02317259
In       1.52998281       0.23748548       3.47913646        1       0.02329327       0.01412238      -0.02317259
In       1.52998281       2.76306238       5.82513913        2       0.02329327      -0.01412238       0.02317259
In       1.34585287       5.76361024       8.13127426        3      -0.02329327      -0.01412238      -0.02317259
In       4.40581849       2.76306238       8.13127426        4       0.02329327      -0.01412238      -0.02317259
In       4.22168854       5.76361024       5.82513913        5      -0.02329327      -0.01412238       0.02317259
In       4.22168854       3.23803334       3.47913646        6      -0.02329327       0.01412238      -0.02317259
In       4.40581849       0.23748548       1.17300134        7       0.02329327       0.01412238       0.02317259
O        2.32744232       3.60749026       7.75048159        8       0.03970535      -0.00224619      -0.03589979
O        0.54839335       0.60694240       6.20593180        9      -0.03970535      -0.00224619       0.03589979
O        0.54839335       2.39360546       3.09834379       10      -0.03970535       0.00224619      -0.03589979
O        2.32744232       5.39415332       1.55379400       11       0.03970535       0.00224619       0.03589979
O        3.42422903       2.39360546       1.55379400       12      -0.03970535       0.00224619       0.03589979
O        5.20327800       5.39415332       3.09834379       13       0.03970535       0.00224619      -0.03589979
O        5.20327800       3.60749026       6.20593180       14       0.03970535      -0.00224619       0.03589979
O        3.42422903       0.60694240       7.75048159       15      -0.03970535      -0.00224619      -0.03589979
O        5.51926247       4.50082179      -0.00000000       16       0.04727615      -0.00000000       0.00000000
O        3.10824456       1.50027393       4.65213780       17      -0.04727615       0.00000000      -0.00000000
O        0.23240889       1.50027393      -0.00000000       18      -0.04727615       0.00000000       0.00000000
O        2.64342679       4.50082179       4.65213780       19       0.04727615       0.00000000       0.00000000
20
Lattice="5.759264580479132 -2.02405479657963e-58 1.884666902555412e-43 2.585049654463659e-58 5.999774873696003 -1.4951431024758756e-15 -3.0380382439363844e-43 2.279445555332193e-15 9.294054117998856" Properties=species:S:1:pos:R:3:spacegroup_kinds:I:1:forces:R:3 spacegroup="P 1" unit_cell=conventional occupancy="_JSON {\"0\": {\"In\": 1}, \"1\": {\"In\": 1}, \"2\": {\"In\": 1}, \"3\": {\"In\": 1}, \"4\": {\"In\": 1}, \"5\": {\"In\": 1}, \"6\": {\"In\": 1}, \"7\": {\"In\": 1}, \"8\": {\"O\": 1}, \"9\": {\"O\": 1}, \"10\": {\"O\": 1}, \"11\": {\"O\": 1}, \"12\": {\"O\": 1}, \"13\": {\"O\": 1}, \"14\": {\"O\": 1}, \"15\": {\"O\": 1}, \"16\": {\"O\": 1}, \"17\": {\"O\": 1}, \"18\": {\"O\": 1}, \"19\": {\"O\": 1}}" n_minim_iter=3 energy=-22571.34454229131 stress="0.11742658830693672 7.130764930225708e-14 2.0561692785245672e-13 7.130764930225708e-14 0.11663488543365878 5.297717478734946e-13 2.0561692785245672e-13 5.297717478734946e-13 0.11615033017930554" free_energy=-22571.34454229131 pbc="T T T"
In       1.34722039       3.23757121       1.17210115        0      -0.01704967       0.01572938       0.02003468
In       1.53241190       0.23768377       3.47492591        1       0.01704967       0.01572938      -0.02003468
In       1.53241190       2.76220367       5.81912821        2       0.01704967      -0.01572938       0.02003468
In       1.34722039       5.76209110       8.12195297        3      -0.01704967      -0.01572938      -0.02003468
In       4.41204419       2.76220367       8.12195297        4       0.01704967      -0.01572938      -0.02003468
In       4.22685268       5.76209110       5.81912821        5      -0.01704967      -0.01572938       0.02003468
In       4.22685268       3.23757121       3.47492591        6      -0.01704967       0.01572938      -0.02003468
In       4.41204419       0.23768377       1.17210115        7       0.01704967       0.01572938       0.02003468
O        2.33120917       3.60665152       7.74133362        8       0.04460524       0.00153099      -0.02771704
O        0.54842312       0.60676409       6.19974756        9      -0.04460524       0.00153099       0.02771704
O        0.54842312       2.39312335       3.09430656       10      -0.04460524      -0.00153099      -0.02771704
O        2.33120917       5.39301079       1.55272050       11       0.04460524      -0.00153099       0.02771704
O        3.42805541       2.39312335       1.55272050       12      -0.04460524      -0.00153099       0.02771704
O        5.21084146       5.39301079       3.09430656       13       0.04460524      -0.00153099      -0.02771704
O        5.21084146       3.60665152       6.19974756       14       0.04460524       0.00153099       0.02771704
O        3.42805541       0.60676409       7.74133362       15      -0.04460524       0.00153099      -0.02771704
O        5.52738727       4.49983116      -0.00000000       16       0.04429971       0.00000000       0.00000000
O        3.11150960       1.49994372       4.64702706       17      -0.04429971      -0.00000000       0.00000000
O        0.23187731       1.49994372      -0.00000000       18      -0.04429971       0.00000000       0.00000000
O        2.64775498       4.49983116       4.64702706       19       0.04429971       0.00000000       0.00000000
20
Lattice="5.763632829710623 -1.8802410167206448e-58 2.5582678375626036e-43 2.6171846322320035e-58 5.989808291879304 -1.4984257881502633e-15 -5.231589306698353e-43 2.2726859408112123e-15 9.302463040401367" Properties=species:S:1:pos:R:3:spacegroup_kinds:I:1:forces:R:3 spacegroup="P 1" unit_cell=conventional occupancy="_JSON {\"0\": {\"In\": 1}, \"1\": {\"In\": 1}, \"2\": {\"In\": 1}, \"3\": {\"In\": 1}, \"4\": {\"In\": 1}, \"5\": {\"In\": 1}, \"6\": {\"In\": 1}, \"7\": {\"In\": 1}, \"8\": {\"O\": 1}, \"9\": {\"O\": 1}, \"10\": {\"O\": 1}, \"11\": {\"O\": 1}, \"12\": {\"O\": 1}, \"13\": {\"O\": 1}, \"14\": {\"O\": 1}, \"15\": {\"O\": 1}, \"16\": {\"O\": 1}, \"17\": {\"O\": 1}, \"18\": {\"O\": 1}, \"19\": {\"O\": 1}}" n_minim_iter=4 energy=-22571.350005400112 stress="0.11591265729423832 5.539915763796169e-13 -2.2619965364556382e-13 5.539915763796169e-13 0.11206097236214173 -4.731727473074242e-13 -2.2619965364556382e-13 -4.731727473074242e-13 0.11488978178658088" free_energy=-22571.350005400112 pbc="T T T"
In       1.34200987       3.23637912       1.17931804        0      -0.00787475       0.03781560      -0.03124559
In       1.53980655       0.24147497       3.47191348        1       0.00787475       0.03781560       0.03124559
In       1.53980655       2.75342918       5.83054956        2       0.00787475      -0.03781560      -0.03124559
In       1.34200987       5.74833332       8.12314500        3      -0.00787475      -0.03781560       0.03124559
In       4.42162296       2.75342918       8.12314500        4       0.00787475      -0.03781560       0.03124559
In       4.22382628       5.74833332       5.83054956        5      -0.00787475      -0.03781560      -0.03124559
In       4.22382628       3.23637912       3.47191348        6      -0.00787475       0.03781560       0.03124559
In       4.42162296       0.24147497       1.17931804        7       0.00787475       0.03781560      -0.03124559
O        2.34468023       3.60021528       7.73859607        8       0.04669156       0.01776515       0.05004061
O        0.53713618       0.60531113       6.21509849        9      -0.04669156       0.01776515      -0.05004061
O        0.53713618       2.38959302       3.08736455       10      -0.04669156      -0.01776515       0.05004061
O        2.34468023       5.38449716       1.56386697       11       0.04669156      -0.01776515      -0.05004061
O        3.41895260       2.38959302       1.56386697       12      -0.04669156      -0.01776515      -0.05004061
O        5.22649665       5.38449716       3.08736455       13       0.04669156      -0.01776515       0.05004061
O        5.22649665       3.60021528       6.21509849       14       0.04669156       0.01776515      -0.05004061
O        3.41895260       0.60531113       7.73859607       15      -0.04669156       0.01776515       0.05004061
O        5.54504086       4.49235622      -0.00000000       16       0.01978446      -0.00000000      -0.00000000
O        3.10040838       1.49745207       4.65123152       17      -0.01978446      -0.00000000      -0.00000000
O        0.21859197       1.49745207      -0.00000000       18      -0.01978446      -0.00000000      -0.00000000
O        2.66322445       4.49235622       4.65123152       19       0.01978446       0.00000000       0.00000000
20
Lattice="5.751711501217744 -1.8871610721232663e-58 2.5062143134889182e-43 2.625818822931903e-58 6.005173478649634 -1.5045063462093793e-15 -5.30296716757317e-43 2.267948393526479e-15 9.297892704018988" Properties=species:S:1:pos:R:3:spacegroup_kinds:I:1:forces:R:3 spacegroup="P 1" unit_cell=conventional occupancy="_JSON {\"0\": {\"In\": 1}, \"1\": {\"In\": 1}, \"2\": {\"In\": 1}, \"3\": {\"In\": 1}, \"4\": {\"In\": 1}, \"5\": {\"In\": 1}, \"6\": {\"In\": 1}, \"7\": {\"In\": 1}, \"8\": {\"O\": 1}, \"9\": {\"O\": 1}, \"10\": {\"O\": 1}, \"11\": {\"O\": 1}, \"12\": {\"O\": 1}, \"13\": {\"O\": 1}, \"14\": {\"O\": 1}, \"15\": {\"O\": 1}, \"16\": {\"O\": 1}, \"17\": {\"O\": 1}, \"18\": {\"O\": 1}, \"19\": {\"O\": 1}}" n_minim_iter=5 energy=-22571.35282942025 stress="0.11429342489804 -2.0092790986398407e-13 9.832649352390153e-14 -2.0092790986398407e-13 0.11365799855043233 1.0687343535698679e-12 9.832649352390153e-14 1.0687343535698679e-12 0.11385689921307285" free_energy=-22571.35282942025 pbc="T T T"
In       1.33705430       3.24660841       1.18016563        0      -0.00731865       0.04527197      -0.04974559
In       1.53880145       0.24402167       3.46878072        1       0.00731865       0.04527197       0.04974559
In       1.53880145       2.75856507       5.82911198        2       0.00731865      -0.04527197      -0.04974559
In       1.33705430       5.76115181       8.11772707        3      -0.00731865      -0.04527197       0.04974559
In       4.41465720       2.75856507       8.11772707        4       0.00731865      -0.04527197       0.04974559
In       4.21291005       5.76115181       5.82911198        5      -0.00731865      -0.04527197      -0.04974559
In       4.21291005       3.24660841       3.46878072        6      -0.00731865       0.04527197       0.04974559
In       4.41465720       0.24402167       1.18016563        7       0.00731865       0.04527197      -0.04974559
O        2.34423142       3.60947715       7.73222574        8       0.04384889       0.01378262       0.05942698
O        0.53162433       0.60689041       6.21461332        9      -0.04384889       0.01378262      -0.05942698
O        0.53162433       2.39569633       3.08327939       10      -0.04384889      -0.01378262       0.05942698
O        2.34423142       5.39828307       1.56566696       11       0.04384889      -0.01378262      -0.05942698
O        3.40748008       2.39569633       1.56566696       12      -0.04384889      -0.01378262      -0.05942698
O        5.22008717       5.39828307       3.08327939       13       0.04384889      -0.01378262       0.05942698
O        5.22008717       3.60947715       6.21461332       14       0.04384889       0.01378262      -0.05942698
O        3.40748008       0.60689041       7.73222574       15      -0.04384889       0.01378262       0.05942698
O        5.53831980       4.50388011      -0.00000000       16       0.02236873       0.00000000       0.00000000
O        3.08924745       1.50129337       4.64894635       17      -0.02236873      -0.00000000      -0.00000000
O        0.21339170       1.50129337      -0.00000000       18      -0.02236873      -0.00000000       0.00000000
O        2.66246405       4.50388011       4.64894635       19       0.02236873       0.00000000      -0.00000000
20
Lattice="5.730546481348913 -1.8782740638786986e-58 2.492368544031301e-43 2.6392655497654193e-58 6.028591093352515 -1.5112997155387512e-15 -5.28061586195462e-43 2.2657875285169046e-15 9.295982880579556" Properties=species:S:1:pos:R:3:spacegroup_kinds:I:1:forces:R:3 spacegroup="P 1" unit_cell=conventional occupancy="_JSON {\"0\": {\"In\": 1}, \"1\": {\"In\": 1}, \"2\": {\"In\": 1}, \"3\": {\"In\": 1}, \"4\": {\"In\": 1}, \"5\": {\"In\": 1}, \"6\": {\"In\": 1}, \"7\": {\"In\": 1}, \"8\": {\"O\": 1}, \"9\": {\"O\": 1}, \"10\": {\"O\": 1}, \"11\": {\"O\": 1}, \"12\": {\"O\": 1}, \"13\": {\"O\": 1}, \"14\": {\"O\": 1}, \"15\": {\"O\": 1}, \"16\": {\"O\": 1}, \"17\": {\"O\": 1}, \"18\": {\"O\": 1}, \"19\": {\"O\": 1}}" n_minim_iter=6 energy=-22571.356317866088 stress="0.11077855474469947 4.195674151129352e-13 -5.796153394111102e-13 4.195674151129352e-13 0.1137213749809296 -6.11554341881692e-13 -5.796153394111102e-13 -6.11554341881692e-13 0.11248628198452731" free_energy=-22571.356317866088 pbc="T T T"
In       1.32641910       3.26609509       1.18115678        0      -0.00459750       0.03921447      -0.03473777
In       1.53885414       0.25179955       3.46683466        1       0.00459750       0.03921447       0.03473777
In       1.53885414       2.76249600       5.82914822        2       0.00459750      -0.03921447      -0.03473777
In       1.32641910       5.77679155       8.11482610        3      -0.00459750      -0.03921447       0.03473777
In       4.40412738       2.76249600       8.11482610        4       0.00459750      -0.03921447       0.03473777
In       4.19169234       5.77679155       5.82914822        5      -0.00459750      -0.03921447      -0.03473777
In       4.19169234       3.26609509       3.46683466        6      -0.00459750       0.03921447       0.03473777
In       4.40412738       0.25179955       1.18115678        7       0.00459750       0.03921447      -0.03473777
O        2.34829745       3.62415479       7.72696261        8       0.02189965      -0.00333921       0.04596324
O        0.51697579       0.60985924       6.21701171        9      -0.02189965      -0.00333921      -0.04596324
O        0.51697579       2.40443631       3.07897117       10      -0.02189965       0.00333921       0.04596324
O        2.34829745       5.41873186       1.56902027       11       0.02189965       0.00333921      -0.04596324
O        3.38224903       2.40443631       1.56902027       12      -0.02189965       0.00333921      -0.04596324
O        5.21357069       5.41873186       3.07897117       13       0.02189965       0.00333921       0.04596324
O        5.21357069       3.62415479       6.21701171       14       0.02189965      -0.00333921      -0.04596324
O        3.38224903       0.60985924       7.72696261       15      -0.02189965      -0.00333921       0.04596324
O        5.53063207       4.52144332      -0.00000000       16       0.01280342      -0.00000000       0.00000000
O        3.06518765       1.50714777       4.64799144       17      -0.01280342      -0.00000000       0.00000000
O        0.19991441       1.50714777      -0.00000000       18      -0.01280342       0.00000000      -0.00000000
O        2.66535883       4.52144332       4.64799144       19       0.01280342      -0.00000000       0.00000000
20
Lattice="5.747259188554869 -1.882359148534007e-58 2.514357608871885e-43 2.6380924292020127e-58 6.0231878524701665 -1.5182640424357913e-15 -5.252251027226114e-43 2.248286360504501e-15 9.277265612009588" Properties=species:S:1:pos:R:3:spacegroup_kinds:I:1:forces:R:3 spacegroup="P 1" unit_cell=conventional occupancy="_JSON {\"0\": {\"In\": 1}, \"1\": {\"In\": 1}, \"2\": {\"In\": 1}, \"3\": {\"In\": 1}, \"4\": {\"In\": 1}, \"5\": {\"In\": 1}, \"6\": {\"In\": 1}, \"7\": {\"In\": 1}, \"8\": {\"O\": 1}, \"9\": {\"O\": 1}, \"10\": {\"O\": 1}, \"11\": {\"O\": 1}, \"12\": {\"O\": 1}, \"13\": {\"O\": 1}, \"14\": {\"O\": 1}, \"15\": {\"O\": 1}, \"16\": {\"O\": 1}, \"17\": {\"O\": 1}, \"18\": {\"O\": 1}, \"19\": {\"O\": 1}}" n_minim_iter=7 energy=-22571.359338152222 stress="0.11174683426253627 -7.189762675134553e-15 -1.8234898647828414e-13 -7.189762675134553e-15 0.11211322403233127 -2.502841604405964e-13 -1.8234898647828414e-13 -2.502841604405964e-13 0.11065202239739694" free_energy=-22571.359338152222 pbc="T T T"
In       1.32722895       3.26862645       1.17782757        0       0.01259516       0.01466671       0.02543549
In       1.54640065       0.25703253       3.46080523        1      -0.01259516       0.01466671      -0.02543549
In       1.54640065       2.75456140       5.81646038        2      -0.01259516      -0.01466671       0.02543549
In       1.32722895       5.76615532       8.09943804        3       0.01259516      -0.01466671      -0.02543549
In       4.42003024       2.75456140       8.09943804        4      -0.01259516      -0.01466671      -0.02543549
In       4.20085854       5.76615532       5.81646038        5       0.01259516      -0.01466671       0.02543549
In       4.20085854       3.26862645       3.46080523        6       0.01259516       0.01466671      -0.02543549
In       4.42003024       0.25703253       1.17782757        7      -0.01259516       0.01466671       0.02543549
O        2.36317588       3.62139013       7.71209698        8       0.01013798      -0.00785553       0.01496372
O        0.51045372       0.60979620       6.20380143        9      -0.01013798      -0.00785553      -0.01496372
O        0.51045372       2.40179772       3.07346418       10      -0.01013798       0.00785553       0.01496372
O        2.36317588       5.41339165       1.56516863       11       0.01013798       0.00785553      -0.01496372
O        3.38408331       2.40179772       1.56516863       12      -0.01013798       0.00785553      -0.01496372
O        5.23680547       5.41339165       3.07346418       13       0.01013798       0.00785553       0.01496372
O        5.23680547       3.62139013       6.20380143       14       0.01013798      -0.00785553      -0.01496372
O        3.38408331       0.60979620       7.71209698       15      -0.01013798      -0.00785553       0.01496372
O        5.55385768       4.51739089      -0.00000000       16      -0.00916653       0.00000000       0.00000000
O        3.06703110       1.50579696       4.63863281       17       0.00916653      -0.00000000       0.00000000
O        0.19340151       1.50579696      -0.00000000       18       0.00916653       0.00000000      -0.00000000
O        2.68022809       4.51739089       4.63863281       19      -0.00916653      -0.00000000       0.00000000
20
Lattice="5.746542922151039 -1.9485648196594285e-58 2.2202734044537766e-43 2.633386681345942e-58 6.019373887721191 -1.5199537979657428e-15 -5.1061258316386614e-43 2.2460218514753902e-15 9.284300904354179" Properties=species:S:1:pos:R:3:spacegroup_kinds:I:1:forces:R:3 spacegroup="P 1" unit_cell=conventional occupancy="_JSON {\"0\": {\"In\": 1}, \"1\": {\"In\": 1}, \"2\": {\"In\": 1}, \"3\": {\"In\": 1}, \"4\": {\"In\": 1}, \"5\": {\"In\": 1}, \"6\": {\"In\": 1}, \"7\": {\"In\": 1}, \"8\": {\"O\": 1}, \"9\": {\"O\": 1}, \"10\": {\"O\": 1}, \"11\": {\"O\": 1}, \"12\": {\"O\": 1}, \"13\": {\"O\": 1}, \"14\": {\"O\": 1}, \"15\": {\"O\": 1}, \"16\": {\"O\": 1}, \"17\": {\"O\": 1}, \"18\": {\"O\": 1}, \"19\": {\"O\": 1}}" n_minim_iter=8 energy=-22571.359736251175 stress="0.11140096296526279 4.455357373802196e-14 1.6963527369924334e-13 4.455357373802196e-14 0.11136459090369447 6.023192340850839e-13 1.6963527369924334e-13 6.023192340850839e-13 0.11119199637139907" free_energy=-22571.359736251175 pbc="T T T"
In       1.32670444       3.26740039       1.17925790        0       0.00970161       0.01302818       0.02770500
In       1.54656702       0.25771344       3.46289255        1      -0.00970161       0.01302818      -0.02770500
In       1.54656702       2.75197350       5.82140836        2      -0.00970161      -0.01302818       0.02770500
In       1.32670444       5.76166044       8.10504300        3       0.00970161      -0.01302818      -0.02770500
In       4.41983848       2.75197350       8.10504300        4      -0.00970161      -0.01302818      -0.02770500
In       4.19997590       5.76166044       5.82140836        5       0.00970161      -0.01302818       0.02770500
In       4.19997590       3.26740039       3.46289255        6       0.00970161       0.01302818      -0.02770500
In       4.41983848       0.25771344       1.17925790        7      -0.00970161       0.01302818       0.02770500
O        2.36415218       3.61900911       7.71785811        8       0.00490741      -0.00746546       0.01386238
O        0.50911928       0.60932217       6.20859324        9      -0.00490741      -0.00746546      -0.01386238
O        0.50911928       2.40036477       3.07570766       10      -0.00490741       0.00746546       0.01386238
O        2.36415218       5.41005172       1.56644279       11       0.00490741       0.00746546      -0.01386238
O        3.38239074       2.40036477       1.56644279       12      -0.00490741       0.00746546      -0.01386238
O        5.23742364       5.41005172       3.07570766       13       0.00490741       0.00746546       0.01386238
O        5.23742364       3.61900911       6.20859324       14       0.00490741      -0.00746546      -0.01386238
O        3.38239074       0.60932217       7.71785811       15      -0.00490741      -0.00746546       0.01386238
O        5.55415254       4.51453042      -0.00000000       16      -0.01192697      -0.00000000      -0.00000000
O        3.06566185       1.50484347       4.64215045       17       0.01192697       0.00000000       0.00000000
O        0.19239039       1.50484347      -0.00000000       18       0.01192697       0.00000000       0.00000000
O        2.68088108       4.51453042       4.64215045       19      -0.01192697      -0.00000000       0.00000000
20
Lattice="5.746233423036004 -2.0060236604249234e-58 1.9736052845256677e-43 2.6400599395386634e-58 6.0142824329196 -1.5172212280197994e-15 -5.742448322781996e-43 2.2504519409927457e-15 9.292661115157822" Properties=species:S:1:pos:R:3:spacegroup_kinds:I:1:forces:R:3 spacegroup="P 1" unit_cell=conventional occupancy="_JSON {\"0\": {\"In\": 1}, \"1\": {\"In\": 1}, \"2\": {\"In\": 1}, \"3\": {\"In\": 1}, \"4\": {\"In\": 1}, \"5\": {\"In\": 1}, \"6\": {\"In\": 1}, \"7\": {\"In\": 1}, \"8\": {\"O\": 1}, \"9\": {\"O\": 1}, \"10\": {\"O\": 1}, \"11\": {\"O\": 1}, \"12\": {\"O\": 1}, \"13\": {\"O\": 1}, \"14\": {\"O\": 1}, \"15\": {\"O\": 1}, \"16\": {\"O\": 1}, \"17\": {\"O\": 1}, \"18\": {\"O\": 1}, \"19\": {\"O\": 1}}" n_minim_iter=9 energy=-22571.360123109353 stress="0.11087598863978894 -5.540353295610264e-14 3.2091945693620867e-13 -5.540353295610264e-14 0.11036239998695248 1.446754014321403e-12 3.2091945693620867e-13 1.446754014321403e-12 0.11182328124583059" free_energy=-22571.360123109353 pbc="T T T"
In       1.32623183       3.26685510       1.18217689        0       0.00173578       0.01124885       0.02482530
In       1.54688488       0.25971389       3.46415367        1      -0.00173578       0.01124885      -0.02482530
In       1.54688488       2.74742733       5.82850745        2      -0.00173578      -0.01124885       0.02482530
In       1.32623183       5.75456855       8.11048422        3       0.00173578      -0.01124885      -0.02482530
In       4.42000159       2.74742733       8.11048422        4      -0.00173578      -0.01124885      -0.02482530
In       4.19934854       5.75456855       5.82850745        5       0.00173578      -0.01124885       0.02482530
In       4.19934854       3.26685510       3.46415367        6       0.00173578       0.01124885      -0.02482530
In       4.42000159       0.25971389       1.18217689        7      -0.00173578       0.01124885       0.02482530
O        2.36669848       3.61554615       7.72530332        8      -0.00559716      -0.00494600       0.00755511
O        0.50641824       0.60840494       6.21368835        9       0.00559716      -0.00494600      -0.00755511
O        0.50641824       2.39873628       3.07897276       10       0.00559716       0.00494600       0.00755511
O        2.36669848       5.40587750       1.56735780       11      -0.00559716       0.00494600      -0.00755511
O        3.37953495       2.39873628       1.56735780       12       0.00559716       0.00494600      -0.00755511
O        5.23981519       5.40587750       3.07897276       13      -0.00559716       0.00494600       0.00755511
O        5.23981519       3.61554615       6.21368835       14      -0.00559716      -0.00494600      -0.00755511
O        3.37953495       0.60840494       7.72530332       15       0.00559716      -0.00494600       0.00755511
O        5.55536863       4.51071182      -0.00000000       16      -0.01245238       0.00000000       0.00000000
O        3.06398150       1.50357061       4.64633056       17       0.01245238       0.00000000       0.00000000
O        0.19086479       1.50357061      -0.00000000       18       0.01245238      -0.00000000      -0.00000000
O        2.68225192       4.51071182       4.64633056       19      -0.01245238       0.00000000       0.00000000
20