20
Lattice="5.407936467917908 3.877789225304393e-59 4.33792272230164e-44 -3.8019928579271707e-59 5.4351001701612445 -1.187750645037285e-16 -6.135024747775787e-44 1.671413136220547e-16 7.648320679966347" Properties=species:S:1:pos:R:3:spacegroup_kinds:I:1:forces:R:3 spacegroup="P 1" unit_cell=conventional occupancy="_JSON {\"0\": {\"In\": 1}, \"1\": {\"In\": 1}, \"2\": {\"In\": 1}, \"3\": {\"In\": 1}, \"4\": {\"In\": 1}, \"5\": {\"In\": 1}, \"6\": {\"In\": 1}, \"7\": {\"In\": 1}, \"8\": {\"O\": 1}, \"9\": {\"O\": 1}, \"10\": {\"O\": 1}, \"11\": {\"O\": 1}, \"12\": {\"O\": 1}, \"13\": {\"O\": 1}, \"14\": {\"O\": 1}, \"15\": {\"O\": 1}, \"16\": {\"O\": 1}, \"17\": {\"O\": 1}, \"18\": {\"O\": 1}, \"19\": {\"O\": 1}}" n_minim_iter=1 energy=-22573.656748613168 stress="-0.10557975166907217 3.997124092024751e-14 3.825902903023384e-13 3.997124092024751e-14 -0.09700854659885652 -5.584771404238439e-13 3.825902903023384e-13 -5.584771404238439e-13 -0.09642604758768161" free_energy=-22573.656748613168 pbc="T T T"
In       1.34732287       2.88651029       0.90721739        0       0.06105983      -0.02051743       0.07120190
In       1.35664536       0.16896021       2.91694295        1      -0.06105983      -0.02051743      -0.07120190
In       1.35664536       2.54858988       4.73137773        2      -0.06105983       0.02051743       0.07120190
In       1.34732287       5.26613996       6.74110329        3       0.06105983       0.02051743      -0.07120190
In       4.06061359       2.54858988       6.74110329        4      -0.06105983       0.02051743      -0.07120190
In       4.05129111       5.26613996       4.73137773        5       0.06105983       0.02051743       0.07120190
In       4.05129111       2.88651029       2.91694295        6       0.06105983      -0.02051743      -0.07120190
In       4.06061359       0.16896021       0.90721739        7      -0.06105983      -0.02051743       0.07120190
O        2.09950787       3.26903725       6.52966052        8      -0.03082142       0.02665423       0.12411876
O        0.60446037       0.55148717       4.94282050        9       0.03082142       0.02665423      -0.12411876
O        0.60446037       2.16606292       2.70550018       10       0.03082142      -0.02665423       0.12411876
O        2.09950787       4.88361300       1.11866016       11      -0.03082142      -0.02665423      -0.12411876
O        3.30842860       2.16606292       1.11866016       12       0.03082142      -0.02665423      -0.12411876
O        4.80347610       4.88361300       2.70550018       13      -0.03082142      -0.02665423       0.12411876
O        4.80347610       3.26903725       4.94282050       14      -0.03082142       0.02665423      -0.12411876
O        3.30842860       0.55148717       6.52966052       15       0.03082142       0.02665423       0.12411876
O        5.18930982       4.07632513       0.00000000       16       0.02894229       0.00000000      -0.00000000
O        2.92259488       1.35877504       3.82416034       17      -0.02894229       0.00000000      -0.00000000
O        0.21862665       1.35877504       0.00000000       18      -0.02894229       0.00000000       0.00000000
O        2.48534159       4.07632513       3.82416034       19       0.02894229      -0.00000000       0.00000000
20
Lattice="5.431395597880073 3.9700366120665268e-59 4.3799482676638766e-44 -3.702472748332827e-59 5.424507231217677 -1.4158552662767706e-16 -6.088025205912302e-44 1.3436984708833718e-16 7.630157346598041" Properties=species:S:1:pos:R:3:spacegroup_kinds:I:1:forces:R:3 spacegroup="P 1" unit_cell=conventional occupancy="_JSON {\"0\": {\"In\": 1}, \"1\": {\"In\": 1}, \"2\": {\"In\": 1}, \"3\": {\"In\": 1}, \"4\": {\"In\": 1}, \"5\": {\"In\": 1}, \"6\": {\"In\": 1}, \"7\": {\"In\": 1}, \"8\": {\"O\": 1}, \"9\": {\"O\": 1}, \"10\": {\"O\": 1}, \"11\": {\"O\": 1}, \"12\": {\"O\": 1}, \"13\": {\"O\": 1}, \"14\": {\"O\": 1}, \"15\": {\"O\": 1}, \"16\": {\"O\": 1}, \"17\": {\"O\": 1}, \"18\": {\"O\": 1}, \"19\": {\"O\": 1}}" n_minim_iter=2 energy=-22573.661315108355 stress="-0.09728310809559836 -9.743099627784685e-13 -1.0331889386281009e-13 -9.743099627784685e-13 -0.09783740042732213 2.230643150688244e-13 -1.0331889386281009e-13 2.230643150688244e-13 -0.09871747062609959" free_energy=-22573.661315108355 pbc="T T T"
In       1.35336729       2.88081779       0.90529440        0       0.10620902      -0.06606374       0.07872554
In       1.36233051       0.16856417       2.90978427        1      -0.10620902      -0.06606374      -0.07872554
In       1.36233051       2.54368944       4.72037308        2      -0.10620902       0.06606374       0.07872554
In       1.35336729       5.25594306       6.72486294        3       0.10620902       0.06606374      -0.07872554
In       4.07802831       2.54368944       6.72486294        4      -0.10620902       0.06606374      -0.07872554
In       4.06906509       5.25594306       4.72037308        5       0.10620902       0.06606374       0.07872554
In       4.06906509       2.88081779       2.90978427        6       0.10620902      -0.06606374      -0.07872554
In       4.07802831       0.16856417       0.90529440        7      -0.10620902      -0.06606374       0.07872554
O        2.10851446       3.26275264       6.51455733        8       0.02891576       0.00863952       0.14566703
O        0.60718334       0.55049902       4.93067869        9      -0.02891576       0.00863952      -0.14566703
O        0.60718334       2.16175460       2.69947865       10      -0.02891576      -0.00863952       0.14566703
O        2.10851446       4.87400821       1.11560002       11       0.02891576      -0.00863952      -0.14566703
O        3.32288114       2.16175460       1.11560002       12      -0.02891576      -0.00863952      -0.14566703
O        4.82421226       4.87400821       2.69947865       13       0.02891576      -0.00863952       0.14566703
O        4.82421226       3.26275264       4.93067869       14       0.02891576       0.00863952      -0.14566703
O        3.32288114       0.55049902       6.51455733       15      -0.02891576       0.00863952       0.14566703
O        5.21191530       4.06838042       0.00000000       16       0.05155455       0.00000000      -0.00000000
O        2.93517810       1.35612681       3.81507867       17      -0.05155455      -0.00000000      -0.00000000
O        0.21948030       1.35612681       0.00000000       18      -0.05155455       0.00000000       0.00000000
O        2.49621750       4.06838042       3.81507867       19       0.05155455       0.00000000       0.00000000
20
Lattice="5.4437433707869545 3.9791858901651306e-59 4.3808781411782116e-44 -3.6835898944758497e-59 5.400000570245052 -1.4190547109085168e-16 -6.114549197820605e-44 1.3376279539733999e-16 7.647399409783035" Properties=species:S:1:pos:R:3:spacegroup_kinds:I:1:forces:R:3 spacegroup="P 1" unit_cell=conventional occupancy="_JSON {\"0\": {\"In\": 1}, \"1\": {\"In\": 1}, \"2\": {\"In\": 1}, \"3\": {\"In\": 1}, \"4\": {\"In\": 1}, \"5\": {\"In\": 1}, \"6\": {\"In\": 1}, \"7\": {\"In\": 1}, \"8\": {\"O\": 1}, \"9\": {\"O\": 1}, \"10\": {\"O\": 1}, \"11\": {\"O\": 1}, \"12\": {\"O\": 1}, \"13\": {\"O\": 1}, \"14\": {\"O\": 1}, \"15\": {\"O\": 1}, \"16\": {\"O\": 1}, \"17\": {\"O\": 1}, \"18\": {\"O\": 1}, \"19\": {\"O\": 1}}" n_minim_iter=3 energy=-22573.669099721134 stress="-0.09534199190138147 -5.946525416986438e-13 9.572913617763351e-13 -5.946525416986438e-13 -0.0998530351025467 -1.8131327959651822e-13 9.572913617763351e-13 -1.8131327959651822e-13 -0.09163294201156294" free_energy=-22573.669099721134 pbc="T T T"
In       1.36092221       2.86517357       0.91077275        0      -0.04167738      -0.12583385       0.11799359
In       1.36094947       0.16517328       2.91292695        1       0.04167738      -0.12583385      -0.11799359
In       1.36094947       2.53482700       4.73447246        2       0.04167738       0.12583385       0.11799359
In       1.36092221       5.23482729       6.73662666        3      -0.04167738       0.12583385      -0.11799359
In       4.08282116       2.53482700       6.73662666        4       0.04167738       0.12583385      -0.11799359
In       4.08279390       5.23482729       4.73447246        5      -0.04167738       0.12583385       0.11799359
In       4.08279390       2.86517357       2.91292695        6      -0.04167738      -0.12583385      -0.11799359
In       4.08282116       0.16517328       0.91077275        7       0.04167738      -0.12583385       0.11799359
O        2.11424045       3.24849911       6.53558411        8      -0.01909857      -0.05306801       0.04114190
O        0.60763123       0.54849883       4.93551501        9       0.01909857      -0.05306801      -0.04114190
O        0.60763123       2.15150146       2.71188440       10       0.01909857       0.05306801       0.04114190
O        2.11424045       4.85150175       1.11181530       11      -0.01909857       0.05306801      -0.04114190
O        3.32950292       2.15150146       1.11181530       12       0.01909857       0.05306801      -0.04114190
O        4.83611214       4.85150175       2.71188440       13      -0.01909857       0.05306801       0.04114190
O        4.83611214       3.24849911       4.93551501       14      -0.01909857      -0.05306801      -0.04114190
O        3.32950292       0.54849883       6.53558411       15       0.01909857      -0.05306801       0.04114190
O        5.22593363       4.05000043       0.00000000       16       0.04782413       0.00000000      -0.00000000
O        2.93968143       1.35000014       3.82369970       17      -0.04782413      -0.00000000       0.00000000
O        0.21780974       1.35000014       0.00000000       18      -0.04782413      -0.00000000      -0.00000000
O        2.50406194       4.05000043       3.82369970       19       0.04782413       0.00000000      -0.00000000
20
Lattice="5.450526822712068 3.983816739516281e-59 4.4101852002786075e-44 -3.7059253510003207e-59 5.413365484305474 -1.2721439141897487e-16 -6.057992828979904e-44 1.5409115453155267e-16 7.619024877251171" Properties=species:S:1:pos:R:3:spacegroup_kinds:I:1:forces:R:3 spacegroup="P 1" unit_cell=conventional occupancy="_JSON {\"0\": {\"In\": 1}, \"1\": {\"In\": 1}, \"2\": {\"In\": 1}, \"3\": {\"In\": 1}, \"4\": {\"In\": 1}, \"5\": {\"In\": 1}, \"6\": {\"In\": 1}, \"7\": {\"In\": 1}, \"8\": {\"O\": 1}, \"9\": {\"O\": 1}, \"10\": {\"O\": 1}, \"11\": {\"O\": 1}, \"12\": {\"O\": 1}, \"13\": {\"O\": 1}, \"14\": {\"O\": 1}, \"15\": {\"O\": 1}, \"16\": {\"O\": 1}, \"17\": {\"O\": 1}, \"18\": {\"O\": 1}, \"19\": {\"O\": 1}}" n_minim_iter=4 energy=-22573.67559571823 stress="-0.09414572745937719 1.7624288172463645e-12 3.639887357731094e-13 1.7624288172463645e-12 -0.09294657166059578 -3.9249825462215843e-13 3.639887357731094e-13 -3.9249825462215843e-13 -0.09390197544689322" free_energy=-22573.67559571823 pbc="T T T"
In       1.36613051       2.86922910       0.91103731        0      -0.11819319      -0.04635407       0.08758355
In       1.35913290       0.16254635       2.89847513        1       0.11819319      -0.04635407      -0.08758355
In       1.35913290       2.54413639       4.72054975        2       0.11819319       0.04635407       0.08758355
In       1.36613051       5.25081913       6.70798757        3      -0.11819319       0.04635407      -0.08758355
In       4.08439631       2.54413639       6.70798757        4       0.11819319       0.04635407      -0.08758355
In       4.09139392       5.25081913       4.72054975        5      -0.11819319       0.04635407       0.08758355
In       4.09139392       2.86922910       2.89847513        6      -0.11819319      -0.04635407      -0.08758355
In       4.08439631       0.16254635       0.91103731        7       0.11819319      -0.04635407       0.08758355
O        2.11754751       3.25660678       6.51689709        8      -0.05259764      -0.01401980       0.00118887
O        0.60771590       0.54992404       4.91164023        9       0.05259764      -0.01401980      -0.00118887
O        0.60771590       2.15675871       2.70738465       10       0.05259764       0.01401980       0.00118887
O        2.11754751       4.86344145       1.10212779       11      -0.05259764       0.01401980      -0.00118887
O        3.33297931       2.15675871       1.10212779       12       0.05259764       0.01401980      -0.00118887
O        4.84281092       4.86344145       2.70738465       13      -0.05259764       0.01401980       0.00118887
O        4.84281092       3.25660678       4.91164023       14      -0.05259764      -0.01401980      -0.00118887
O        3.33297931       0.54992404       6.51689709       15       0.05259764      -0.01401980       0.00118887
O        5.23459437       4.06002411       0.00000000       16       0.03051436       0.00000000       0.00000000
O        2.94119586       1.35334137       3.80951244       17      -0.03051436      -0.00000000      -0.00000000
O        0.21593245       1.35334137       0.00000000       18      -0.03051436      -0.00000000       0.00000000
O        2.50933096       4.06002411       3.80951244       19       0.03051436      -0.00000000       0.00000000
20
Lattice="5.46593835350631 3.996575375141441e-59 7.936459312220863e-44 -3.4364703645608217e-59 5.388735797883768 -1.2743550809263077e-16 -2.100067812518192e-43 1.5339007184510308e-16 7.632267824205268" Properties=species:S:1:pos:R:3:spacegroup_kinds:I:1:forces:R:3 spacegroup="P 1" unit_cell=conventional occupancy="_JSON {\"0\": {\"In\": 1}, \"1\": {\"In\": 1}, \"2\": {\"In\": 1}, \"3\": {\"In\": 1}, \"4\": {\"In\": 1}, \"5\": {\"In\": 1}, \"6\": {\"In\": 1}, \"7\": {\"In\": 1}, \"8\": {\"O\": 1}, \"9\": {\"O\": 1}, \"10\": {\"O\": 1}, \"11\": {\"O\": 1}, \"12\": {\"O\": 1}, \"13\": {\"O\": 1}, \"14\": {\"O\": 1}, \"15\": {\"O\": 1}, \"16\": {\"O\": 1}, \"17\": {\"O\": 1}, \"18\": {\"O\": 1}, \"19\": {\"O\": 1}}" n_minim_iter=5 energy=-22573.683134046307 stress="-0.08936472745365537 -9.543536318736818e-13 3.7105829116136797e-13 -9.543536318736818e-13 -0.091692470160463 -1.4819098899968114e-13 3.7105829116136797e-13 -1.4819098899968114e-13 -0.09184386599860314" free_energy=-22573.683134046307 pbc="T T T"
In       1.36684639       2.84953430       0.92242722        0      -0.03338653       0.00624120      -0.03586037
In       1.36612279       0.15516640       2.89370669        1       0.03338653       0.00624120       0.03586037
In       1.36612279       2.53920150       4.73856114        2       0.03338653      -0.00624120      -0.03586037
In       1.36684639       5.23356940       6.70984060        3      -0.03338653      -0.00624120       0.03586037
In       4.09909197       2.53920150       6.70984060        4       0.03338653      -0.00624120       0.03586037
In       4.09981556       5.23356940       4.73856114        5      -0.03338653      -0.00624120      -0.03586037
In       4.09981556       2.84953430       2.89370669        6      -0.03338653       0.00624120       0.03586037
In       4.09909197       0.15516640       0.92242722        7       0.03338653       0.00624120      -0.03586037
O        2.12122031       3.24092191       6.53499542        8       0.01272341      -0.03358896       0.06144145
O        0.61174887       0.54655401       4.91340631        9      -0.01272341      -0.03358896      -0.06144145
O        0.61174887       2.14781389       2.71886151       10      -0.01272341       0.03358896       0.06144145
O        2.12122031       4.84218178       1.09727240       11       0.01272341       0.03358896      -0.06144145
O        3.34471804       2.14781389       1.09727240       12      -0.01272341       0.03358896      -0.06144145
O        4.85418949       4.84218178       2.71886151       13       0.01272341       0.03358896       0.06144145
O        4.85418949       3.24092191       4.91340631       14       0.01272341      -0.03358896      -0.06144145
O        3.34471804       0.54655401       6.53499542       15      -0.01272341      -0.03358896       0.06144145
O        5.25398246       4.04155185       0.00000000       16       0.01969797       0.00000000       0.00000000
O        2.94492507       1.34718395       3.81613391       17      -0.01969797       0.00000000       0.00000000
O        0.21195590       1.34718395       0.00000000       18      -0.01969797       0.00000000      -0.00000000
O        2.52101328       4.04155185       3.81613391       19       0.01969797       0.00000000      -0.00000000
20
Lattice="5.45523171154956 4.103573494359998e-59 7.84302304133102e-44 -3.315419202789361e-59 5.391547695614856 -1.3255205261039098e-16 -2.106789224940417e-43 1.46531817907353e-16 7.643258867683764" Properties=species:S:1:pos:R:3:spacegroup_kinds:I:1:forces:R:3 spacegroup="P 1" unit_cell=conventional occupancy="_JSON {\"0\": {\"In\": 1}, \"1\": {\"In\": 1}, \"2\": {\"In\": 1}, \"3\": {\"In\": 1}, \"4\": {\"In\": 1}, \"5\": {\"In\": 1}, \"6\": {\"In\": 1}, \"7\": {\"In\": 1}, \"8\": {\"O\": 1}, \"9\": {\"O\": 1}, \"10\": {\"O\": 1}, \"11\": {\"O\": 1}, \"12\": {\"O\": 1}, \"13\": {\"O\": 1}, \"14\": {\"O\": 1}, \"15\": {\"O\": 1}, \"16\": {\"O\": 1}, \"17\": {\"O\": 1}, \"18\": {\"O\": 1}, \"19\": {\"O\": 1}}" n_minim_iter=6 energy=-22573.684744131104 stress="-0.09251181651361838 -3.8480780209268506e-13 2.152593498265958e-13 -3.8480780209268506e-13 -0.09054794351207096 2.793556153433033e-13 2.152593498265958e-13 2.793556153433033e-13 -0.0903375829503079" free_energy=-22573.684744131104 pbc="T T T"
In       1.36191752       2.85029614       0.92439724        0      -0.02225314       0.03061254      -0.01784610
In       1.36569833       0.15452229       2.89723219        1       0.02225314       0.03061254       0.01784610
In       1.36569833       2.54125156       4.74602668        2       0.02225314      -0.03061254      -0.01784610
In       1.36191752       5.23702540       6.71886163        3      -0.02225314      -0.03061254       0.01784610
In       4.09331419       2.54125156       6.71886163        4       0.02225314      -0.03061254       0.01784610
In       4.08953338       5.23702540       4.74602668        5      -0.02225314      -0.03061254      -0.01784610
In       4.08953338       2.85029614       2.89723219        6      -0.02225314       0.03061254       0.01784610
In       4.09331419       0.15452229       0.92439724        7       0.02225314       0.03061254      -0.01784610
O        2.11658045       3.24148884       6.54727689        8      -0.00137945      -0.02554312       0.02570896
O        0.61103541       0.54571499       4.91761141        9       0.00137945      -0.02554312      -0.02570896
O        0.61103541       2.15005886       2.72564745       10       0.00137945       0.02554312       0.02570896
O        2.11658045       4.84583271       1.09598198       11      -0.00137945       0.02554312      -0.02570896
O        3.33865126       2.15005886       1.09598198       12       0.00137945       0.02554312      -0.02570896
O        4.84419630       4.84583271       2.72564745       13      -0.00137945       0.02554312       0.02570896
O        4.84419630       3.24148884       4.91761141       14      -0.00137945      -0.02554312      -0.02570896
O        3.33865126       0.54571499       6.54727689       15       0.00137945      -0.02554312       0.02570896
O        5.24500759       4.04366077       0.00000000       16      -0.00446143       0.00000000      -0.00000000
O        2.93783997       1.34788692       3.82162943       17       0.00446143       0.00000000      -0.00000000
O        0.21022412       1.34788692       0.00000000       18       0.00446143      -0.00000000      -0.00000000
O        2.51739174       4.04366077       3.82162943       19      -0.00446143       0.00000000      -0.00000000
20
Lattice="5.461579540936952 4.098289459853846e-59 1.1389356808099655e-43 -3.27804681952944e-59 5.387287094441342 -1.4257484590888423e-16 -2.27065463754766e-43 1.3224580852518282e-16 7.640413076227263" Properties=species:S:1:pos:R:3:spacegroup_kinds:I:1:forces:R:3 spacegroup="P 1" unit_cell=conventional occupancy="_JSON {\"0\": {\"In\": 1}, \"1\": {\"In\": 1}, \"2\": {\"In\": 1}, \"3\": {\"In\": 1}, \"4\": {\"In\": 1}, \"5\": {\"In\": 1}, \"6\": {\"In\": 1}, \"7\": {\"In\": 1}, \"8\": {\"O\": 1}, \"9\": {\"O\": 1}, \"10\": {\"O\": 1}, \"11\": {\"O\": 1}, \"12\": {\"O\": 1}, \"13\": {\"O\": 1}, \"14\": {\"O\": 1}, \"15\": {\"O\": 1}, \"16\": {\"O\": 1}, \"17\": {\"O\": 1}, \"18\": {\"O\": 1}, \"19\": {\"O\": 1}}" n_minim_iter=7 energy=-22573.685605172486 stress="-0.09022554722381738 7.162936181192037e-14 3.728019068571817e-13 7.162936181192037e-14 -0.09045556827834123 -1.444840659779739e-14 3.728019068571817e-13 -1.444840659779739e-14 -0.09066636690637545" free_energy=-22573.685605172486 pbc="T T T"
In       1.36189776       2.84809762       0.92424974        0       0.00859209       0.01286337       0.01748311
In       1.36889202       0.15445407       2.89595679        1      -0.00859209       0.01286337      -0.01748311
In       1.36889202       2.53918948       4.74445628        2      -0.00859209      -0.01286337       0.01748311
In       1.36189776       5.23283302       6.71616333        3       0.00859209      -0.01286337      -0.01748311
In       4.09968179       2.53918948       6.71616333        4      -0.00859209      -0.01286337      -0.01748311
In       4.09268753       5.23283302       4.74445628        5       0.00859209      -0.01286337       0.01748311
In       4.09268753       2.84809762       2.89595679        6       0.00859209       0.01286337      -0.01748311
In       4.09968179       0.15445407       0.92424974        7      -0.00859209       0.01286337       0.01748311
O        2.11906045       3.23735303       6.54783983        8       0.01524055      -0.02914819      -0.00701520
O        0.61172932       0.54370948       4.91277978        9      -0.01524055      -0.02914819       0.00701520
O        0.61172932       2.14993407       2.72763329       10      -0.01524055       0.02914819      -0.00701520
O        2.11906045       4.84357762       1.09257325       11       0.01524055       0.02914819       0.00701520
O        3.34251909       2.14993407       1.09257325       12      -0.01524055       0.02914819       0.00701520
O        4.84985022       4.84357762       2.72763329       13       0.01524055       0.02914819      -0.00701520
O        4.84985022       3.23735303       4.91277978       14       0.01524055      -0.02914819       0.00701520
O        3.34251909       0.54370948       6.54783983       15      -0.01524055      -0.02914819      -0.00701520
O        5.25202351       4.04046532       0.00000000       16      -0.01401119      -0.00000000       0.00000000
O        2.94034580       1.34682177       3.82020654       17       0.01401119      -0.00000000       0.00000000
O        0.20955603       1.34682177       0.00000000       18       0.01401119      -0.00000000      -0.00000000
O        2.52123374       4.04046532       3.82020654       19      -0.01401119      -0.00000000      -0.00000000
20
Lattice="5.461381705709401 4.124224236148256e-59 1.1373620513126786e-43 -3.2751460475563506e-59 5.38518567373055 -1.4321133440740827e-16 -2.269585229437445e-43 1.3138559134363935e-16 7.643671414766604" Properties=species:S:1:pos:R:3:spacegroup_kinds:I:1:forces:R:3 spacegroup="P 1" unit_cell=conventional occupancy="_JSON {\"0\": {\"In\": 1}, \"1\": {\"In\": 1}, \"2\": {\"In\": 1}, \"3\": {\"In\": 1}, \"4\": {\"In\": 1}, \"5\": {\"In\": 1}, \"6\": {\"In\": 1}, \"7\": {\"In\": 1}, \"8\": {\"O\": 1}, \"9\": {\"O\": 1}, \"10\": {\"O\": 1}, \"11\": {\"O\": 1}, \"12\": {\"O\": 1}, \"13\": {\"O\": 1}, \"14\": {\"O\": 1}, \"15\": {\"O\": 1}, \"16\": {\"O\": 1}, \"17\": {\"O\": 1}, \"18\": {\"O\": 1}, \"19\": {\"O\": 1}}" n_minim_iter=8 energy=-22573.686321484616 stress="-0.09057299953547909 -5.954350833471324e-13 -3.042382859672469e-13 -5.954350833471324e-13 -0.09085298907786196 1.3201900641657112e-12 -3.042382859672469e-13 1.3201900641657112e-12 -0.09036132814459923" free_energy=-22573.686321484616 pbc="T T T"
In       1.36142672       2.84871241       0.92497536        0       0.00413571       0.00907583       0.02495469
In       1.36926413       0.15611957       2.89686035        1      -0.00413571       0.00907583      -0.02495469
In       1.36926413       2.53647326       4.74681107        2      -0.00413571      -0.00907583       0.02495469
In       1.36142672       5.22906610       6.71869605        3       0.00413571      -0.00907583      -0.02495469
In       4.09995498       2.53647326       6.71869605        4      -0.00413571      -0.00907583      -0.02495469
In       4.09211757       5.22906610       4.74681107        5       0.00413571      -0.00907583       0.02495469
In       4.09211757       2.84871241       2.89686035        6       0.00413571       0.00907583      -0.02495469
In       4.09995498       0.15611957       0.92497536        7      -0.00413571       0.00907583       0.02495469
O        2.12011375       3.23318383       6.55082363        8      -0.00882931      -0.01255584      -0.00352067
O        0.61057710       0.54059099       4.91468349        9       0.00882931      -0.01255584       0.00352067
O        0.61057710       2.15200185       2.72898793       10       0.00882931       0.01255584      -0.00352067
O        2.12011375       4.84459468       1.09284778       11      -0.00882931       0.01255584       0.00352067
O        3.34126795       2.15200185       1.09284778       12       0.00882931       0.01255584       0.00352067
O        4.85080460       4.84459468       2.72898793       13      -0.00882931       0.01255584      -0.00352067
O        4.85080460       3.23318383       4.91468349       14      -0.00882931      -0.01255584       0.00352067
O        3.34126795       0.54059099       6.55082363       15       0.00882931      -0.01255584      -0.00352067
O        5.25076075       4.03888926       0.00000000       16      -0.00262701      -0.00000000      -0.00000000
O        2.94131181       1.34629642       3.82183571       17       0.00262701      -0.00000000       0.00000000
O        0.21062095       1.34629642       0.00000000       18       0.00262701       0.00000000       0.00000000
O        2.52006990       4.03888926       3.82183571       19      -0.00262701      -0.00000000      -0.00000000
20
Lattice="5.462706325840651 4.1279793863260395e-59 1.1373992044350237e-43 -3.208110687345945e-59 5.382714662029041 -1.4324233517507973e-16 -2.602104184400391e-43 1.3132530459527268e-16 7.645326030182813" Properties=species:S:1:pos:R:3:spacegroup_kinds:I:1:forces:R:3 spacegroup="P 1" unit_cell=conventional occupancy="_JSON {\"0\": {\"In\": 1}, \"1\": {\"In\": 1}, \"2\": {\"In\": 1}, \"3\": {\"In\": 1}, \"4\": {\"In\": 1}, \"5\": {\"In\": 1}, \"6\": {\"In\": 1}, \"7\": {\"In\": 1}, \"8\": {\"O\": 1}, \"9\": {\"O\": 1}, \"10\": {\"O\": 1}, \"11\": {\"O\": 1}, \"12\": {\"O\": 1}, \"13\": {\"O\": 1}, \"14\": {\"O\": 1}, \"15\": {\"O\": 1}, \"16\": {\"O\": 1}, \"17\": {\"O\": 1}, \"18\": {\"O\": 1}, \"19\": {\"O\": 1}}" n_minim_iter=9 energy=-22573.686685322547 stress="-0.09031335189129336 -1.3158784377078886e-13 3.339299708467077e-13 -1.3158784377078886e-13 -0.09042621160176775 8.078198160022691e-13 3.339299708467077e-13 8.078198160022691e-13 -0.0901930867578666" free_energy=-22573.686685322547 pbc="T T T"
In       1.36136911       2.84817495       0.92700614        0       0.00341177       0.01557902       0.01287019
In       1.36998405       0.15681762       2.89565687        1      -0.00341177       0.01557902      -0.01287019
In       1.36998405       2.53453971       4.74966916        2      -0.00341177      -0.01557902       0.01287019
In       1.36136911       5.22589704       6.71831989        3       0.00341177      -0.01557902      -0.01287019
In       4.10133721       2.53453971       6.71831989        4      -0.00341177      -0.01557902      -0.01287019
In       4.09272228       5.22589704       4.74966916        5       0.00341177      -0.01557902       0.01287019
In       4.09272228       2.84817495       2.89565687        6       0.00341177       0.01557902      -0.01287019
In       4.10133721       0.15681762       0.92700614        7      -0.00341177       0.01557902       0.01287019
O        2.12113688       3.22909526       6.55367078        8      -0.02170599       0.00124720       0.00236118
O        0.61021628       0.53773793       4.91431827        9       0.02170599       0.00124720      -0.00236118
O        0.61021628       2.15361940       2.73100776       10       0.02170599      -0.00124720       0.00236118
O        2.12113688       4.84497673       1.09165525       11      -0.02170599      -0.00124720      -0.00236118
O        3.34156944       2.15361940       1.09165525       12       0.02170599      -0.00124720      -0.00236118
O        4.85249004       4.84497673       2.73100776       13      -0.02170599      -0.00124720       0.00236118
O        4.85249004       3.22909526       4.91431827       14      -0.02170599       0.00124720      -0.00236118
O        3.34156944       0.53773793       6.55367078       15       0.02170599       0.00124720       0.00236118
O        5.25182598       4.03703600       0.00000000       16      -0.00142411       0.00000000       0.00000000
O        2.94223351       1.34567867       3.82266302       17       0.00142411      -0.00000000       0.00000000
O        0.21088034       1.34567867       0.00000000       18       0.00142411      -0.00000000       0.00000000
O        2.52047282       4.03703600       3.82266302       19      -0.00142411       0.00000000      -0.00000000
20