20
Lattice="5.329152776038696 5.947981830993084e-59 4.435023547268828e-43 -4.360781209026394e-59 5.15985387052737 -1.6801371418387378e-16 -6.026165544028164e-43 2.3578199006811616e-16 7.241079217629644" Properties=species:S:1:pos:R:3:spacegroup_kinds:I:1:forces:R:3 spacegroup="P 1" unit_cell=conventional occupancy="_JSON {\"0\": {\"In\": 1}, \"1\": {\"In\": 1}, \"2\": {\"In\": 1}, \"3\": {\"In\": 1}, \"4\": {\"In\": 1}, \"5\": {\"In\": 1}, \"6\": {\"In\": 1}, \"7\": {\"In\": 1}, \"8\": {\"O\": 1}, \"9\": {\"O\": 1}, \"10\": {\"O\": 1}, \"11\": {\"O\": 1}, \"12\": {\"O\": 1}, \"13\": {\"O\": 1}, \"14\": {\"O\": 1}, \"15\": {\"O\": 1}, \"16\": {\"O\": 1}, \"17\": {\"O\": 1}, \"18\": {\"O\": 1}, \"19\": {\"O\": 1}}" n_minim_iter=1 energy=-22567.881953513024 stress="-0.43600767438983107 -6.887718190538868e-14 1.88085208205025e-13 -6.887718190538868e-14 -0.41727313787977083 -7.260151623243433e-13 1.88085208205025e-13 -7.260151623243433e-13 -0.4207632701039248" free_energy=-22567.881953513024 pbc="T T T"
In       1.32742868       2.74490978       0.86966014        0      -0.03905197       0.42991410      -0.43788817
In       1.33714771       0.16498284       2.75087946        1       0.03905197       0.42991410       0.43788817
In       1.33714771       2.41494409       4.49019975        2       0.03905197      -0.42991410      -0.43788817
In       1.32742868       4.99487103       6.37141907        3      -0.03905197      -0.42991410       0.43788817
In       4.00172410       2.41494409       6.37141907        4       0.03905197      -0.42991410       0.43788817
In       3.99200506       4.99487103       4.49019975        5      -0.03905197      -0.42991410      -0.43788817
In       3.99200506       2.74490978       2.75087946        6      -0.03905197       0.42991410       0.43788817
In       4.00172410       0.16498284       0.86966014        7       0.03905197       0.42991410      -0.43788817
O        2.09580742       3.10815469       6.20853816        8       0.18777426       0.06608322      -0.06940387
O        0.56876896       0.52822775       4.65308066        9      -0.18777426       0.06608322       0.06940387
O        0.56876896       2.05169918       2.58799855       10      -0.18777426      -0.06608322      -0.06940387
O        2.09580742       4.63162612       1.03254105       11       0.18777426      -0.06608322       0.06940387
O        3.23334535       2.05169918       1.03254105       12      -0.18777426      -0.06608322       0.06940387
O        4.76038381       4.63162612       2.58799855       13       0.18777426      -0.06608322      -0.06940387
O        4.76038381       3.10815469       4.65308066       14       0.18777426       0.06608322       0.06940387
O        3.23334535       0.52822775       6.20853816       15      -0.18777426       0.06608322      -0.06940387
O        5.11330457       3.86989040      -0.00000000       16      -0.21895880      -0.00000000       0.00000000
O        2.88042459       1.28996347       3.62053961       17       0.21895880      -0.00000000      -0.00000000
O        0.21584820       1.28996347      -0.00000000       18       0.21895880       0.00000000       0.00000000
O        2.44872819       3.86989040       3.62053961       19      -0.21895880       0.00000000       0.00000000
20
Lattice="5.359815528829435 6.065554390240015e-59 4.516964768638968e-43 -3.980421505897162e-59 5.140527300267041 -2.0108740119624145e-16 -5.980835642866933e-43 1.8774327494222013e-16 7.226722179910008" Properties=species:S:1:pos:R:3:spacegroup_kinds:I:1:forces:R:3 spacegroup="P 1" unit_cell=conventional occupancy="_JSON {\"0\": {\"In\": 1}, \"1\": {\"In\": 1}, \"2\": {\"In\": 1}, \"3\": {\"In\": 1}, \"4\": {\"In\": 1}, \"5\": {\"In\": 1}, \"6\": {\"In\": 1}, \"7\": {\"In\": 1}, \"8\": {\"O\": 1}, \"9\": {\"O\": 1}, \"10\": {\"O\": 1}, \"11\": {\"O\": 1}, \"12\": {\"O\": 1}, \"13\": {\"O\": 1}, \"14\": {\"O\": 1}, \"15\": {\"O\": 1}, \"16\": {\"O\": 1}, \"17\": {\"O\": 1}, \"18\": {\"O\": 1}, \"19\": {\"O\": 1}}" n_minim_iter=2 energy=-22567.896217782585 stress="-0.4146549648030806 -1.1847550225094644e-12 3.592358159334248e-13 -1.1847550225094644e-12 -0.42227935351872975 1.0565629120836638e-12 3.592358159334248e-13 1.0565629120836638e-12 -0.4198972136932414" free_energy=-22567.896217782585 pbc="T T T"
In       1.33496648       2.73571815       0.86682407        0       0.01026127       0.30375302      -0.36815882
In       1.34494128       0.16545450       2.74653702        1      -0.01026127       0.30375302       0.36815882
In       1.34494128       2.40480915       4.48018516        2      -0.01026127      -0.30375302      -0.36815882
In       1.33496648       4.97507280       6.35989811        3       0.01026127      -0.30375302       0.36815882
In       4.02484905       2.40480915       6.35989811        4      -0.01026127      -0.30375302       0.36815882
In       4.01487425       4.97507280       4.48018516        5       0.01026127      -0.30375302      -0.36815882
In       4.01487425       2.73571815       2.74653702        6       0.01026127       0.30375302       0.36815882
In       4.02484905       0.16545450       0.86682407        7      -0.01026127       0.30375302      -0.36815882
O        2.10834668       3.09668038       6.19605215        8       0.26929749      -0.02243889      -0.08001605
O        0.57156108       0.52641673       4.64403112        9      -0.26929749      -0.02243889       0.08001605
O        0.57156108       2.04384692       2.58269106       10      -0.26929749       0.02243889      -0.08001605
O        2.10834668       4.61411057       1.03067003       11       0.26929749       0.02243889       0.08001605
O        3.25146885       2.04384692       1.03067003       12      -0.26929749       0.02243889       0.08001605
O        4.78825444       4.61411057       2.58269106       13       0.26929749       0.02243889      -0.08001605
O        4.78825444       3.09668038       4.64403112       14       0.26929749      -0.02243889       0.08001605
O        3.25146885       0.52641673       6.19605215       15      -0.26929749      -0.02243889      -0.08001605
O        5.14216515       3.85539548      -0.00000000       16      -0.18994235       0.00000000      -0.00000000
O        2.89755815       1.28513183       3.61336109       17       0.18994235       0.00000000      -0.00000000
O        0.21765038       1.28513183      -0.00000000       18       0.18994235      -0.00000000       0.00000000
O        2.46225738       3.85539548       3.61336109       19      -0.18994235       0.00000000      -0.00000000
20
Lattice="5.345590195076946 5.042490963939971e-59 4.2674952939732554e-43 -3.624282649645599e-59 5.165219591129222 -1.9332973846981463e-16 -5.701925863471649e-43 1.9902009874712535e-16 7.211314236185393" Properties=species:S:1:pos:R:3:spacegroup_kinds:I:1:forces:R:3 spacegroup="P 1" unit_cell=conventional occupancy="_JSON {\"0\": {\"In\": 1}, \"1\": {\"In\": 1}, \"2\": {\"In\": 1}, \"3\": {\"In\": 1}, \"4\": {\"In\": 1}, \"5\": {\"In\": 1}, \"6\": {\"In\": 1}, \"7\": {\"In\": 1}, \"8\": {\"O\": 1}, \"9\": {\"O\": 1}, \"10\": {\"O\": 1}, \"11\": {\"O\": 1}, \"12\": {\"O\": 1}, \"13\": {\"O\": 1}, \"14\": {\"O\": 1}, \"15\": {\"O\": 1}, \"16\": {\"O\": 1}, \"17\": {\"O\": 1}, \"18\": {\"O\": 1}, \"19\": {\"O\": 1}}" n_minim_iter=3 energy=-22567.950340653635 stress="-0.39914621263169703 8.621135500316187e-13 -1.3128853167269125e-12 8.621135500316187e-13 -0.4012650564519595 -8.35671013279387e-13 -1.3128853167269125e-12 -8.35671013279387e-13 -0.39865472531508694" free_energy=-22567.950340653635 pbc="T T T"
In       1.33133995       2.76182637       0.85013088        0      -0.20370618       0.00279523       0.24835713
In       1.34145515       0.17921658       2.75552623        1       0.20370618       0.00279523      -0.24835713
In       1.34145515       2.40339322       4.45578800        2       0.20370618      -0.00279523       0.24835713
In       1.33133995       4.98600301       6.36118335        3      -0.20370618      -0.00279523      -0.24835713
In       4.01425025       2.40339322       6.36118335        4       0.20370618      -0.00279523      -0.24835713
In       4.00413504       4.98600301       4.45578800        5      -0.20370618      -0.00279523       0.24835713
In       4.00413504       2.76182637       2.75552623        6      -0.20370618       0.00279523      -0.24835713
In       4.01425025       0.17921658       0.85013088        7       0.20370618       0.00279523       0.24835713
O        2.11244936       3.11155445       6.17986603        8       0.11745972      -0.01364864      -0.44998173
O        0.56034574       0.52894465       4.63710532        9      -0.11745972      -0.01364864       0.44998173
O        0.56034574       2.05366514       2.57420892       10      -0.11745972       0.01364864      -0.44998173
O        2.11244936       4.63627494       1.03144820       11       0.11745972       0.01364864       0.44998173
O        3.23314083       2.05366514       1.03144820       12      -0.11745972       0.01364864       0.44998173
O        4.78524446       4.63627494       2.57420892       13       0.11745972       0.01364864      -0.44998173
O        4.78524446       3.11155445       4.63710532       14       0.11745972      -0.01364864       0.44998173
O        3.23314083       0.52894465       6.17986603       15      -0.11745972      -0.01364864      -0.44998173
O        5.12082880       3.87391469      -0.00000000       16      -0.15499493       0.00000000       0.00000000
O        2.89755650       1.29130490       3.60565712       17       0.15499493      -0.00000000       0.00000000
O        0.22476140       1.29130490      -0.00000000       18       0.15499493       0.00000000       0.00000000
O        2.44803370       3.87391469       3.60565712       19      -0.15499493       0.00000000       0.00000000
20
Lattice="5.345338471486483 5.056195220147383e-59 4.782482361872281e-43 -2.4739482239777384e-59 5.18777204801343 -2.182262292772934e-16 -6.323533367278926e-43 1.6378385750519634e-16 7.180303088872045" Properties=species:S:1:pos:R:3:spacegroup_kinds:I:1:forces:R:3 spacegroup="P 1" unit_cell=conventional occupancy="_JSON {\"0\": {\"In\": 1}, \"1\": {\"In\": 1}, \"2\": {\"In\": 1}, \"3\": {\"In\": 1}, \"4\": {\"In\": 1}, \"5\": {\"In\": 1}, \"6\": {\"In\": 1}, \"7\": {\"In\": 1}, \"8\": {\"O\": 1}, \"9\": {\"O\": 1}, \"10\": {\"O\": 1}, \"11\": {\"O\": 1}, \"12\": {\"O\": 1}, \"13\": {\"O\": 1}, \"14\": {\"O\": 1}, \"15\": {\"O\": 1}, \"16\": {\"O\": 1}, \"17\": {\"O\": 1}, \"18\": {\"O\": 1}, \"19\": {\"O\": 1}}" n_minim_iter=4 energy=-22567.974480045435 stress="-0.3910298919007273 -6.848823830677586e-13 3.6650330279255033e-13 -6.848823830677586e-13 -0.3880377558025877 -1.0006805927010916e-12 3.6650330279255033e-13 -1.0006805927010916e-12 -0.4001679023590585" free_energy=-22567.974480045435 pbc="T T T"
In       1.32834394       2.77828842       0.84501183        0      -0.08879610       0.06721304       0.15513928
In       1.34432529       0.18440240       2.74513971        1       0.08879610       0.06721304      -0.15513928
In       1.34432529       2.40948362       4.43516338        2       0.08879610      -0.06721304       0.15513928
In       1.32834394       5.00336965       6.33529126        3      -0.08879610      -0.06721304      -0.15513928
In       4.01699453       2.40948362       6.33529126        4       0.08879610      -0.06721304      -0.15513928
In       4.00101318       5.00336965       4.43516338        5      -0.08879610      -0.06721304       0.15513928
In       4.00101318       2.77828842       2.74513971        6      -0.08879610       0.06721304      -0.15513928
In       4.01699453       0.18440240       0.84501183        7       0.08879610       0.06721304       0.15513928
O        2.11711937       3.12501445       6.14610748        8       0.11319297       0.10330660      -0.23142846
O        0.55554987       0.53112843       4.62434716        9      -0.11319297       0.10330660       0.23142846
O        0.55554987       2.06275760       2.55595593       10      -0.11319297      -0.10330660      -0.23142846
O        2.11711937       4.65664362       1.03419561       11       0.11319297      -0.10330660       0.23142846
O        3.22821910       2.06275760       1.03419561       12      -0.11319297      -0.10330660       0.23142846
O        4.78978861       4.65664362       2.55595593       13       0.11319297      -0.10330660      -0.23142846
O        4.78978861       3.12501445       4.62434716       14       0.11319297       0.10330660       0.23142846
O        3.22821910       0.53112843       6.14610748       15      -0.11319297       0.10330660      -0.23142846
O        5.11586446       3.89082904      -0.00000000       16      -0.05338570      -0.00000000       0.00000000
O        2.90214324       1.29694301       3.59015154       17       0.05338570      -0.00000000       0.00000000
O        0.22947401       1.29694301      -0.00000000       18       0.05338570       0.00000000       0.00000000
O        2.44319523       3.89082904       3.59015154       19      -0.05338570       0.00000000      -0.00000000
20
Lattice="5.334487051694535 5.226419713152668e-59 4.705731764620863e-43 -1.2409393600640285e-59 5.175165533489185 -2.3988112977413316e-16 -6.697242673263066e-43 1.3410755363704066e-16 7.212435806417781" Properties=species:S:1:pos:R:3:spacegroup_kinds:I:1:forces:R:3 spacegroup="P 1" unit_cell=conventional occupancy="_JSON {\"0\": {\"In\": 1}, \"1\": {\"In\": 1}, \"2\": {\"In\": 1}, \"3\": {\"In\": 1}, \"4\": {\"In\": 1}, \"5\": {\"In\": 1}, \"6\": {\"In\": 1}, \"7\": {\"In\": 1}, \"8\": {\"O\": 1}, \"9\": {\"O\": 1}, \"10\": {\"O\": 1}, \"11\": {\"O\": 1}, \"12\": {\"O\": 1}, \"13\": {\"O\": 1}, \"14\": {\"O\": 1}, \"15\": {\"O\": 1}, \"16\": {\"O\": 1}, \"17\": {\"O\": 1}, \"18\": {\"O\": 1}, \"19\": {\"O\": 1}}" n_minim_iter=5 energy=-22567.990542620293 stress="-0.3884763136973827 8.899751782439152e-15 5.45364051733388e-13 8.899751782439152e-15 -0.3904201509825941 -2.4072632502883134e-13 5.45364051733388e-13 -2.4072632502883134e-13 -0.38455323291280286" free_energy=-22567.990542620293 pbc="T T T"
In       1.32271184       2.77603835       0.84792301        0      -0.04356071       0.01126915       0.09300568
In       1.34453169       0.18845558       2.75829489        1       0.04356071       0.01126915      -0.09300568
In       1.34453169       2.39912719       4.45414091        2       0.04356071      -0.01126915       0.09300568
In       1.32271184       4.98670995       6.36451280        3      -0.04356071      -0.01126915      -0.09300568
In       4.01177522       2.39912719       6.36451280        4       0.04356071      -0.01126915      -0.09300568
In       3.98995536       4.98670995       4.45414091        5      -0.04356071      -0.01126915       0.09300568
In       3.98995536       2.77603835       2.75829489        6      -0.04356071       0.01126915      -0.09300568
In       4.01177522       0.18845558       0.84792301        7       0.04356071       0.01126915       0.09300568
O        2.11773728       3.11793900       6.16624404        8       0.06424825       0.09524410      -0.02665901
O        0.54950624       0.53035624       4.65240967        9      -0.06424825       0.09524410       0.02665901
O        0.54950624       2.05722653       2.56002614       10      -0.06424825      -0.09524410      -0.02665901
O        2.11773728       4.64480930       1.04619177       11       0.06424825      -0.09524410       0.02665901
O        3.21674977       2.05722653       1.04619177       12      -0.06424825      -0.09524410       0.02665901
O        4.78498081       4.64480930       2.56002614       13       0.06424825      -0.09524410      -0.02665901
O        4.78498081       3.11793900       4.65240967       14       0.06424825       0.09524410       0.02665901
O        3.21674977       0.53035624       6.16624404       15      -0.06424825       0.09524410      -0.02665901
O        5.10100779       3.88137415      -0.00000000       16       0.04912042      -0.00000000      -0.00000000
O        2.90072279       1.29379138       3.60621790       17      -0.04912042       0.00000000       0.00000000
O        0.23347926       1.29379138      -0.00000000       18      -0.04912042       0.00000000       0.00000000
O        2.43376426       3.88137415       3.60621790       19       0.04912042      -0.00000000       0.00000000
20
Lattice="5.3340607986658215 4.498584580886966e-59 5.459610102438729e-43 -2.229889627734607e-59 5.185734786624367 -2.336085417711602e-16 -5.996519728288983e-43 1.4252480895137888e-16 7.198311035185817" Properties=species:S:1:pos:R:3:spacegroup_kinds:I:1:forces:R:3 spacegroup="P 1" unit_cell=conventional occupancy="_JSON {\"0\": {\"In\": 1}, \"1\": {\"In\": 1}, \"2\": {\"In\": 1}, \"3\": {\"In\": 1}, \"4\": {\"In\": 1}, \"5\": {\"In\": 1}, \"6\": {\"In\": 1}, \"7\": {\"In\": 1}, \"8\": {\"O\": 1}, \"9\": {\"O\": 1}, \"10\": {\"O\": 1}, \"11\": {\"O\": 1}, \"12\": {\"O\": 1}, \"13\": {\"O\": 1}, \"14\": {\"O\": 1}, \"15\": {\"O\": 1}, \"16\": {\"O\": 1}, \"17\": {\"O\": 1}, \"18\": {\"O\": 1}, \"19\": {\"O\": 1}}" n_minim_iter=6 energy=-22567.995267133683 stress="-0.38598266842938933 -1.0210392369363716e-12 -1.309204812981073e-13 -1.0210392369363716e-12 -0.38563874928751857 -1.9659143692561396e-12 -1.309204812981073e-13 -1.9659143692561396e-12 -0.38572861349866083" free_energy=-22567.995267133683 pbc="T T T"
In       1.32130512       2.78388283       0.84678913        0      -0.01249968       0.01196024       0.03229765
In       1.34572527       0.19101544       2.75236639        1       0.01249968       0.01196024      -0.03229765
In       1.34572527       2.40185196       4.44594465        2       0.01249968      -0.01196024       0.03229765
In       1.32130512       4.99471935       6.35152190        3      -0.01249968      -0.01196024      -0.03229765
In       4.01275567       2.40185196       6.35152190        4       0.01249968      -0.01196024      -0.03229765
In       3.98833552       4.99471935       4.44594465        5      -0.01249968      -0.01196024       0.03229765
In       3.98833552       2.78388283       2.75236639        6      -0.01249968       0.01196024      -0.03229765
In       4.01275567       0.19101544       0.84678913        7       0.01249968       0.01196024       0.03229765
O        2.12038276       3.12627693       6.15180927        8       0.06619045       0.11116080       0.04343500
O        0.54664764       0.53340953       4.64565728        9      -0.06619045       0.11116080      -0.04343500
O        0.54664764       2.05945786       2.55265375       10      -0.06619045      -0.11116080       0.04343500
O        2.12038276       4.65232525       1.04650177       11       0.06619045      -0.11116080      -0.04343500
O        3.21367804       2.05945786       1.04650177       12      -0.06619045      -0.11116080      -0.04343500
O        4.78741316       4.65232525       2.55265375       13       0.06619045      -0.11116080       0.04343500
O        4.78741316       3.12627693       4.64565728       14       0.06619045       0.11116080      -0.04343500
O        3.21367804       0.53340953       6.15180927       15      -0.06619045       0.11116080       0.04343500
O        5.09993603       3.88930109      -0.00000000       16       0.03831328      -0.00000000       0.00000000
O        2.90115517       1.29643370       3.59915552       17      -0.03831328       0.00000000      -0.00000000
O        0.23412477       1.29643370      -0.00000000       18      -0.03831328       0.00000000      -0.00000000
O        2.43290563       3.88930109       3.59915552       19       0.03831328      -0.00000000       0.00000000
20
Lattice="5.333311386271998 4.738471183297254e-59 5.4746922307598455e-43 -9.034219148859458e-60 5.2007118861669515 -2.3232810287384337e-16 -6.628173316872889e-43 1.438516233219971e-16 7.178589775965339" Properties=species:S:1:pos:R:3:spacegroup_kinds:I:1:forces:R:3 spacegroup="P 1" unit_cell=conventional occupancy="_JSON {\"0\": {\"In\": 1}, \"1\": {\"In\": 1}, \"2\": {\"In\": 1}, \"3\": {\"In\": 1}, \"4\": {\"In\": 1}, \"5\": {\"In\": 1}, \"6\": {\"In\": 1}, \"7\": {\"In\": 1}, \"8\": {\"O\": 1}, \"9\": {\"O\": 1}, \"10\": {\"O\": 1}, \"11\": {\"O\": 1}, \"12\": {\"O\": 1}, \"13\": {\"O\": 1}, \"14\": {\"O\": 1}, \"15\": {\"O\": 1}, \"16\": {\"O\": 1}, \"17\": {\"O\": 1}, \"18\": {\"O\": 1}, \"19\": {\"O\": 1}}" n_minim_iter=7 energy=-22568.000373436884 stress="-0.38209596746876745 -3.599955464840284e-13 -1.5307884900989432e-13 -3.599955464840284e-13 -0.3794581317980753 1.6395853102877493e-12 -1.5307884900989432e-13 1.6395853102877493e-12 -0.3852253774313464" free_energy=-22568.000373436884 pbc="T T T"
In       1.31844866       2.79568064       0.84629981        0      -0.00337142      -0.03441311      -0.05526593
In       1.34820703       0.19532470       2.74299508        1       0.00337142      -0.03441311       0.05526593
In       1.34820703       2.40503124       4.43559469        2       0.00337142       0.03441311      -0.05526593
In       1.31844866       5.00538719       6.33228997        3      -0.00337142       0.03441311       0.05526593
In       4.01486273       2.40503124       6.33228997        4       0.00337142       0.03441311       0.05526593
In       3.98510435       5.00538719       4.43559469        5      -0.00337142       0.03441311      -0.05526593
In       3.98510435       2.79568064       2.74299508        6      -0.00337142      -0.03441311       0.05526593
In       4.01486273       0.19532470       0.84629981        7       0.00337142      -0.03441311      -0.05526593
O        2.12722184       3.14239798       6.13256517        8       0.04549550       0.07037170       0.09264975
O        0.53943386       0.54204204       4.63531949        9      -0.04549550       0.07037170      -0.09264975
O        0.53943386       2.05831390       2.54327028       10      -0.04549550      -0.07037170       0.09264975
O        2.12722184       4.65866985       1.04602461       11       0.04549550      -0.07037170      -0.09264975
O        3.20608955       2.05831390       1.04602461       12      -0.04549550      -0.07037170      -0.09264975
O        4.79387753       4.65866985       2.54327028       13       0.04549550      -0.07037170       0.09264975
O        4.79387753       3.14239798       4.63531949       14       0.04549550       0.07037170      -0.09264975
O        3.20608955       0.54204204       6.13256517       15      -0.04549550       0.07037170       0.09264975
O        5.09912040       3.90053391      -0.00000000       16      -0.01602833       0.00000000      -0.00000000
O        2.90084668       1.30017797       3.58929489       17       0.01602833       0.00000000      -0.00000000
O        0.23419098       1.30017797      -0.00000000       18       0.01602833       0.00000000      -0.00000000
O        2.43246471       3.90053391       3.58929489       19      -0.01602833       0.00000000       0.00000000
20
Lattice="5.335357443171467 4.765748848419344e-59 5.480835125961817e-43 -9.31252455493433e-60 5.1922752185410825 -2.266043222790133e-16 -6.631507680441942e-43 1.5203164219372476e-16 7.187496515129605" Properties=species:S:1:pos:R:3:spacegroup_kinds:I:1:forces:R:3 spacegroup="P 1" unit_cell=conventional occupancy="_JSON {\"0\": {\"In\": 1}, \"1\": {\"In\": 1}, \"2\": {\"In\": 1}, \"3\": {\"In\": 1}, \"4\": {\"In\": 1}, \"5\": {\"In\": 1}, \"6\": {\"In\": 1}, \"7\": {\"In\": 1}, \"8\": {\"O\": 1}, \"9\": {\"O\": 1}, \"10\": {\"O\": 1}, \"11\": {\"O\": 1}, \"12\": {\"O\": 1}, \"13\": {\"O\": 1}, \"14\": {\"O\": 1}, \"15\": {\"O\": 1}, \"16\": {\"O\": 1}, \"17\": {\"O\": 1}, \"18\": {\"O\": 1}, \"19\": {\"O\": 1}}" n_minim_iter=8 energy=-22568.004431643378 stress="-0.38311824951642526 1.3690927363570465e-13 -7.509214874962131e-14 1.3690927363570465e-13 -0.38392416761115616 -5.180581285700259e-13 -7.509214874962131e-14 -5.180581285700259e-13 -0.38238901994294566" free_energy=-22568.004431643378 pbc="T T T"
In       1.31761160       2.78887461       0.84841122        0      -0.04086830      -0.03965254      -0.03348279
In       1.35006712       0.19273701       2.74533704        1       0.04086830      -0.03965254       0.03348279
In       1.35006712       2.40340060       4.44215947        2       0.04086830       0.03965254      -0.03348279
In       1.31761160       4.99953821       6.33908530        3      -0.04086830       0.03965254       0.03348279
In       4.01774584       2.40340060       6.33908530        4       0.04086830       0.03965254       0.03348279
In       3.98529032       4.99953821       4.44215947        5      -0.04086830       0.03965254      -0.03348279
In       3.98529032       2.78887461       2.74533704        6      -0.04086830      -0.03965254       0.03348279
In       4.01774584       0.19273701       0.84841122        7       0.04086830      -0.03965254      -0.03348279
O        2.13110601       3.14238024       6.14339561        8       0.00279763      -0.00399053      -0.01218976
O        0.53657271       0.54624263       4.63784916        9      -0.00279763      -0.00399053       0.01218976
O        0.53657271       2.04989498       2.54964736       10      -0.00279763       0.00399053      -0.01218976
O        2.13110601       4.64603259       1.04410090       11       0.00279763       0.00399053       0.01218976
O        3.20425144       2.04989498       1.04410090       12      -0.00279763       0.00399053       0.01218976
O        4.79878473       4.64603259       2.54964736       13       0.00279763       0.00399053      -0.01218976
O        4.79878473       3.14238024       4.63784916       14       0.00279763      -0.00399053       0.01218976
O        3.20425144       0.54624263       6.14339561       15      -0.00279763      -0.00399053      -0.01218976
O        5.10206114       3.89420641      -0.00000000       16      -0.00947325      -0.00000000      -0.00000000
O        2.90097503       1.29806880       3.59374826       17       0.00947325      -0.00000000       0.00000000
O        0.23329631       1.29806880      -0.00000000       18       0.00947325       0.00000000      -0.00000000
O        2.43438241       3.89420641       3.59374826       19      -0.00947325       0.00000000       0.00000000
20
Lattice="5.334832867383935 4.673825183099331e-59 5.4597288166428535e-43 -1.1070672239400042e-59 5.195727861690932 -2.3319543974473226e-16 -6.445017730621255e-43 1.4269092890975e-16 7.183426589419359" Properties=species:S:1:pos:R:3:spacegroup_kinds:I:1:forces:R:3 spacegroup="P 1" unit_cell=conventional occupancy="_JSON {\"0\": {\"In\": 1}, \"1\": {\"In\": 1}, \"2\": {\"In\": 1}, \"3\": {\"In\": 1}, \"4\": {\"In\": 1}, \"5\": {\"In\": 1}, \"6\": {\"In\": 1}, \"7\": {\"In\": 1}, \"8\": {\"O\": 1}, \"9\": {\"O\": 1}, \"10\": {\"O\": 1}, \"11\": {\"O\": 1}, \"12\": {\"O\": 1}, \"13\": {\"O\": 1}, \"14\": {\"O\": 1}, \"15\": {\"O\": 1}, \"16\": {\"O\": 1}, \"17\": {\"O\": 1}, \"18\": {\"O\": 1}, \"19\": {\"O\": 1}}" n_minim_iter=9 energy=-22568.005156262356 stress="-0.3818564770684339 -1.4028310711048694e-13 5.494472107888437e-13 -1.4028310711048694e-13 -0.38152172303940024 -4.632798281890406e-13 5.494472107888437e-13 -4.632798281890406e-13 -0.38199653291123536" free_energy=-22568.005156262356 pbc="T T T"
In       1.31556048       2.79018834       0.84645646        0       0.00251305      -0.01535573      -0.00365358
In       1.35185596       0.19232441       2.74525683        1      -0.00251305      -0.01535573       0.00365358
In       1.35185596       2.40553952       4.43816975        2      -0.00251305       0.01535573      -0.00365358
In       1.31556048       5.00340346       6.33697013        3       0.00251305       0.01535573       0.00365358
In       4.01927239       2.40553952       6.33697013        4      -0.00251305       0.01535573       0.00365358
In       3.98297691       5.00340346       4.43816975        5       0.00251305       0.01535573      -0.00365358
In       3.98297691       2.79018834       2.74525683        6       0.00251305      -0.01535573       0.00365358
In       4.01927239       0.19232441       0.84645646        7      -0.00251305      -0.01535573      -0.00365358
O        2.13279534       3.14603588       6.13945053        8      -0.00972395       0.01008131      -0.02475396
O        0.53462109       0.54817195       4.63568935        9       0.00972395       0.01008131       0.02475396
O        0.53462109       2.04969198       2.54773724       10       0.00972395      -0.01008131      -0.02475396
O        2.13279534       4.64755591       1.04397606       11      -0.00972395      -0.01008131       0.02475396
O        3.20203753       2.04969198       1.04397606       12       0.00972395      -0.01008131       0.02475396
O        4.80021177       4.64755591       2.54773724       13      -0.00972395      -0.01008131      -0.02475396
O        4.80021177       3.14603588       4.63568935       14      -0.00972395       0.01008131       0.02475396
O        3.20203753       0.54817195       6.13945053       15       0.00972395       0.01008131      -0.02475396
O        5.10081223       3.89679590      -0.00000000       16       0.02810444      -0.00000000      -0.00000000
O        2.90143707       1.29893197       3.59171329       17      -0.02810444       0.00000000       0.00000000
O        0.23402064       1.29893197      -0.00000000       18      -0.02810444       0.00000000       0.00000000
O        2.43339580       3.89679590       3.59171329       19       0.02810444       0.00000000      -0.00000000
20