20
Lattice="5.511046808151022 3.1996409311131343e-59 2.8547373335730898e-43 -2.2180311706377016e-59 5.626255629053892 -8.704136391484539e-18 1.0331561985789308e-43 6.261165432058167e-17 7.87167607816716" Properties=species:S:1:pos:R:3:spacegroup_kinds:I:1:forces:R:3 spacegroup="P 1" unit_cell=conventional occupancy="_JSON {\"0\": {\"In\": 1}, \"1\": {\"In\": 1}, \"2\": {\"In\": 1}, \"3\": {\"In\": 1}, \"4\": {\"In\": 1}, \"5\": {\"In\": 1}, \"6\": {\"In\": 1}, \"7\": {\"In\": 1}, \"8\": {\"O\": 1}, \"9\": {\"O\": 1}, \"10\": {\"O\": 1}, \"11\": {\"O\": 1}, \"12\": {\"O\": 1}, \"13\": {\"O\": 1}, \"14\": {\"O\": 1}, \"15\": {\"O\": 1}, \"16\": {\"O\": 1}, \"17\": {\"O\": 1}, \"18\": {\"O\": 1}, \"19\": {\"O\": 1}}" n_minim_iter=7 energy=-22574.775875859574 stress="-0.028974540929478626 3.542438110833594e-13 -7.414394809990709e-13 3.542438110833594e-13 -0.028990777361951197 -1.8002288496519793e-12 -7.414394809990709e-13 -1.8002288496519793e-12 -0.028979684684806703" free_energy=-22574.775875859574 pbc="T T T"
In       1.37247546       2.98587861       0.90279550        0      -0.00233962       0.00294560      -0.00043349
In       1.38304795       0.17275079       3.03304254        1       0.00233962       0.00294560       0.00043349
In       1.38304795       2.64037702       4.83863354        2       0.00233962      -0.00294560      -0.00043349
In       1.37247546       5.45350484       6.96888058        3      -0.00233962      -0.00294560       0.00043349
In       4.13857135       2.64037702       6.96888058        4       0.00233962      -0.00294560       0.00043349
In       4.12799886       5.45350484       4.83863354        5      -0.00233962      -0.00294560      -0.00043349
In       4.12799886       2.98587861       3.03304254        6      -0.00233962       0.00294560       0.00043349
In       4.13857135       0.17275079       0.90279550        7       0.00233962       0.00294560      -0.00043349
O        2.14533079       3.39518874       6.69060634        8       0.00043270      -0.00054350      -0.00233613
O        0.61019261       0.58206093       5.11690777        9      -0.00043270      -0.00054350       0.00233613
O        0.61019261       2.23106688       2.75476830       10      -0.00043270       0.00054350      -0.00233613
O        2.14533079       5.04419470       1.18106974       11       0.00043270       0.00054350       0.00233613
O        3.36571602       2.23106688       1.18106974       12      -0.00043270       0.00054350       0.00233613
O        4.90085420       5.04419470       2.75476830       13       0.00043270       0.00054350      -0.00233613
O        4.90085420       3.39518874       5.11690777       14       0.00043270      -0.00054350       0.00233613
O        3.36571602       0.58206093       6.69060634       15      -0.00043270      -0.00054350      -0.00233613
O        5.27874414       4.21969172      -0.00000000       16      -0.00022407      -0.00000000       0.00000000
O        2.98782607       1.40656391       3.93583804       17       0.00022407      -0.00000000      -0.00000000
O        0.23230267       1.40656391      -0.00000000       18       0.00022407      -0.00000000       0.00000000
O        2.52322073       4.21969172       3.93583804       19      -0.00022407      -0.00000000      -0.00000000
