20
Lattice="5.329152776038697 4.777465434703284e-59 8.402613058354615e-44 -5.667604054954144e-59 5.15985387052737 -2.3027067089788896e-17 -6.026165544028165e-43 2.357819900681163e-16 7.241079217629647" Properties=species:S:1:pos:R:3:spacegroup_kinds:I:1:forces:R:3 spacegroup="P 1" unit_cell=conventional occupancy="_JSON {\"0\": {\"In\": 1}, \"1\": {\"In\": 1}, \"2\": {\"In\": 1}, \"3\": {\"In\": 1}, \"4\": {\"In\": 1}, \"5\": {\"In\": 1}, \"6\": {\"In\": 1}, \"7\": {\"In\": 1}, \"8\": {\"O\": 1}, \"9\": {\"O\": 1}, \"10\": {\"O\": 1}, \"11\": {\"O\": 1}, \"12\": {\"O\": 1}, \"13\": {\"O\": 1}, \"14\": {\"O\": 1}, \"15\": {\"O\": 1}, \"16\": {\"O\": 1}, \"17\": {\"O\": 1}, \"18\": {\"O\": 1}, \"19\": {\"O\": 1}}" n_minim_iter=11 energy=-22570.196883528104 stress="-0.30039004175217765 -6.009391394873539e-14 -1.9455964032361293e-12 -6.009391394873539e-14 -0.3002941551226518 -1.308561173541304e-13 -1.9455964032361293e-12 -1.308561173541304e-13 -0.3003895469906801" free_energy=-22570.196883528104 pbc="T T T"
In       1.32742868       2.74490978       0.86966014        0       0.00500874      -0.00451980       0.00102361
In       1.33714771       0.16498284       2.75087946        1      -0.00500874      -0.00451980      -0.00102361
In       1.33714771       2.41494409       4.49019975        2      -0.00500874       0.00451980       0.00102361
In       1.32742868       4.99487103       6.37141907        3       0.00500874       0.00451980      -0.00102361
In       4.00172410       2.41494409       6.37141907        4      -0.00500874       0.00451980      -0.00102361
In       3.99200506       4.99487103       4.49019975        5       0.00500874       0.00451980       0.00102361
In       3.99200506       2.74490978       2.75087946        6       0.00500874      -0.00451980      -0.00102361
In       4.00172410       0.16498284       0.86966014        7      -0.00500874      -0.00451980       0.00102361
O        2.09580742       3.10815469       6.20853816        8       0.00287155       0.00088315      -0.00362012
O        0.56876896       0.52822775       4.65308066        9      -0.00287155       0.00088315       0.00362012
O        0.56876896       2.05169918       2.58799855       10      -0.00287155      -0.00088315      -0.00362012
O        2.09580742       4.63162612       1.03254105       11       0.00287155      -0.00088315       0.00362012
O        3.23334535       2.05169918       1.03254105       12      -0.00287155      -0.00088315       0.00362012
O        4.76038381       4.63162612       2.58799855       13       0.00287155      -0.00088315      -0.00362012
O        4.76038381       3.10815469       4.65308066       14       0.00287155       0.00088315       0.00362012
O        3.23334535       0.52822775       6.20853816       15      -0.00287155       0.00088315      -0.00362012
O        5.11330457       3.86989040      -0.00000000       16       0.00121086       0.00000000       0.00000000
O        2.88042459       1.28996347       3.62053961       17      -0.00121086      -0.00000000      -0.00000000
O        0.21584820       1.28996347      -0.00000000       18      -0.00121086      -0.00000000      -0.00000000
O        2.44872819       3.86989040       3.62053961       19       0.00121086       0.00000000       0.00000000
