20
Lattice="5.428957948346257 3.3018459183414013e-59 -7.922416550579523e-44 -1.4577171789361614e-59 5.517098492061655 -3.8934481380053414e-17 -1.1072776909395736e-45 6.837963639955929e-17 7.719914029149572" Properties=species:S:1:pos:R:3:spacegroup_kinds:I:1:forces:R:3 spacegroup="P 1" unit_cell=conventional occupancy="_JSON {\"0\": {\"In\": 1}, \"1\": {\"In\": 1}, \"2\": {\"In\": 1}, \"3\": {\"In\": 1}, \"4\": {\"In\": 1}, \"5\": {\"In\": 1}, \"6\": {\"In\": 1}, \"7\": {\"In\": 1}, \"8\": {\"O\": 1}, \"9\": {\"O\": 1}, \"10\": {\"O\": 1}, \"11\": {\"O\": 1}, \"12\": {\"O\": 1}, \"13\": {\"O\": 1}, \"14\": {\"O\": 1}, \"15\": {\"O\": 1}, \"16\": {\"O\": 1}, \"17\": {\"O\": 1}, \"18\": {\"O\": 1}, \"19\": {\"O\": 1}}" n_minim_iter=7 energy=-22574.53456849163 stress="-0.04615524138705419 -1.5057561650924027e-14 -3.9361113393186694e-13 -1.5057561650924027e-14 -0.04644392449879707 2.093175118791584e-13 -3.9361113393186694e-13 2.093175118791584e-13 -0.04628336716503148" free_energy=-22574.53456849163 pbc="T T T"
In       1.35378215       2.92865316       0.89414584        0      -0.00305674       0.00432747       0.00659461
In       1.36069682       0.17010391       2.96581118        1       0.00305674       0.00432747      -0.00659461
In       1.36069682       2.58844534       4.75410285        2       0.00305674      -0.00432747       0.00659461
In       1.35378215       5.34699458       6.82576819        3      -0.00305674      -0.00432747      -0.00659461
In       4.07517579       2.58844534       6.82576819        4       0.00305674      -0.00432747      -0.00659461
In       4.06826113       5.34699458       4.75410285        5      -0.00305674      -0.00432747       0.00659461
In       4.06826113       2.92865316       2.96581118        6      -0.00305674       0.00432747      -0.00659461
In       4.07517579       0.17010391       0.89414584        7       0.00305674       0.00432747       0.00659461
O        2.10994850       3.32803729       6.57013239        8       0.00343785      -0.00729407      -0.00513640
O        0.60453048       0.56948805       5.00973865        9      -0.00343785      -0.00729407       0.00513640
O        0.60453048       2.18906120       2.71017538       10      -0.00343785       0.00729407      -0.00513640
O        2.10994850       4.94761045       1.14978163       11       0.00343785       0.00729407       0.00513640
O        3.31900945       2.18906120       1.14978163       12      -0.00343785       0.00729407       0.00513640
O        4.82442747       4.94761045       2.71017538       13       0.00343785       0.00729407      -0.00513640
O        4.82442747       3.32803729       5.00973865       14       0.00343785      -0.00729407       0.00513640
O        3.31900945       0.56948805       6.57013239       15      -0.00343785      -0.00729407      -0.00513640
O        5.20475583       4.13782387      -0.00000000       16      -0.00366127       0.00000000       0.00000000
O        2.93868109       1.37927462       3.85995701       17       0.00366127       0.00000000       0.00000000
O        0.22420212       1.37927462      -0.00000000       18       0.00366127       0.00000000      -0.00000000
O        2.49027685       4.13782387       3.85995701       19      -0.00366127       0.00000000      -0.00000000
