80
Lattice="11.758800449270256 0.010906257130735142 0.007530617294351121 6.461428372549091 9.824431298483415 0.007530617294350176 6.461428372549091 3.48789961733846 9.184446815578362" Properties=species:S:1:pos:R:3:spacegroup_kinds:I:1:forces:R:3 spacegroup="P 1" unit_cell=conventional occupancy="_JSON {\"0\": {\"In\": 1}, \"1\": {\"In\": 1}, \"2\": {\"In\": 1}, \"3\": {\"In\": 1}, \"4\": {\"O\": 1}, \"5\": {\"O\": 1}, \"6\": {\"O\": 1}, \"7\": {\"O\": 1}, \"8\": {\"O\": 1}, \"9\": {\"O\": 1}}" n_minim_iter=4 energy=-90301.44131573297 stress="-4.1922426293238566e-05 8.864281343023065e-06 2.5337241968928053e-05 8.864281343023065e-06 -2.4739267062240664e-05 -1.2542395214985127e-06 2.5337241968928053e-05 -1.2542395214985127e-06 -5.4107091018261533e-05" free_energy=-11287.680201198045 pbc="T T T"
In      10.57842315       5.71026652       3.94285879        0       0.00219516       0.00121252       0.00083143
In      16.45782337       5.71571965       3.94662410        0       0.00197828       0.00133873       0.00113855
In      13.80913734      10.62248217       3.94662410        0       0.00193333       0.00108528       0.00090895
In      19.68853756      10.62793530       3.95038941        0       0.00207297       0.00129798       0.00089074
In      13.80913734       7.45421633       8.53508220        0      -0.00453613      -0.00800221       0.00412832
In      19.68853756       7.45966946       8.53884751        0       0.00270761       0.00052662       0.00098678
In      17.03985152      12.36643198       8.53884751        0       0.00138128       0.00078321       0.00043353
In      22.91925175      12.37188511       8.54261282        0       0.00182544       0.00126097       0.00053239
In       7.93281975       4.28216137       2.95677225        1      -0.00233921      -0.00142982      -0.00039484
In      13.81221997       4.28761450       2.96053756        1      -0.00241778      -0.00165808      -0.00056797
In      11.16353394       9.19437702       2.96053756        1      -0.00221716      -0.00081993      -0.00130166
In      17.04293416       9.19983015       2.96430287        1      -0.00208726      -0.00118583      -0.00080159
In      11.16353394       6.02611118       7.54899566        1      -0.00510294      -0.00436517      -0.00235503
In      17.04293416       6.03156431       7.55276097        1      -0.00055102      -0.00104642      -0.00184609
In      14.39424812      10.93832683       7.55276097        1      -0.00191648      -0.00049021      -0.00071409
In      20.27364835      10.94377996       7.55652628        1      -0.00229888      -0.00125593      -0.00061253
In       4.40800886       2.37945722       1.64298178        2      -0.01057756       0.00008996       0.01198012
In      10.28740908       2.38491035       1.64674709        2       0.00230370       0.00114199       0.00116595
In       7.63872305       7.29167287       1.64674709        2       0.00262682       0.00275331       0.00094797
In      13.51812327       7.29712600       1.65051240        2       0.00183792       0.00094066       0.00066331
In       7.63872305       4.12340703       6.23520519        2       0.00222673       0.00108114       0.00105978
In      13.51812327       4.12886016       6.23897050        2       0.00153521       0.00112927       0.00167451
In      10.86943723       9.03562268       6.23897050        2       0.00154174       0.00176215      -0.00022767
In      16.74883746       9.04107581       6.24273581        2       0.00247598       0.00118357       0.00057318
In       1.76240545       0.95135208       0.65689524        3      -0.00207239      -0.00167983      -0.00070724
In       7.64180567       0.95680521       0.66066055        3       0.00038172      -0.00636310       0.00000537
In       4.99311964       5.86356773       0.66066055        3      -0.00287725      -0.00016071      -0.00103367
In      10.87251986       5.86902086       0.66442586        3      -0.00178773      -0.00090006      -0.00086017
In       4.99311964       2.69530189       5.24911865        3      -0.00221513      -0.00175028      -0.00093745
In      10.87251986       2.70075502       5.25288396        3      -0.00180490      -0.00055841       0.00003921
In       8.22383382       7.60751754       5.25288396        3      -0.00195614      -0.00108112      -0.00067561
In      14.10323405       7.61297067       5.25664927        3      -0.00191806      -0.00127316      -0.00120392
O        6.01941230       2.30470080       0.21779931        4       0.03869910       0.04306111      -0.02019738
O       11.90430749       2.31850889       0.22157102        4      -0.00056667       0.00182152      -0.00239943
O        9.25562146       7.22527141       0.22157102        4      -0.00035249       0.00149472      -0.00226267
O       15.13502168       7.23072454       0.22533633        4       0.00033760       0.00158057      -0.00250317
O        9.25562146       4.05700557       4.81002912        4      -0.00010593       0.00182037      -0.00256331
O       15.13502168       4.06245870       4.81379443        4      -0.00004279       0.00198867      -0.00238565
O       12.48633564       8.96922122       4.81379443        4      -0.00014652       0.00123655      -0.00187646
O       18.36573587       8.97467435       4.81755974        4       0.00011228       0.00133893      -0.00273211
O        7.10110422       5.12304778       1.15370382        5      -0.00314229      -0.00345485      -0.00276500
O       12.98050444       5.12850091       1.15746913        5      -0.00149999       0.00268162      -0.00006226
O       10.33181841      10.03526343       1.15746913        5      -0.00657442      -0.00127773       0.00152249
O       16.21121863      10.04071656       1.16123444        5      -0.00180775       0.00251917      -0.00002693
O       10.33181841       6.86699759       5.74592723        5      -0.00143611       0.00227214       0.00028535
O       16.21121863       6.87245072       5.74969254        5      -0.00146222       0.00269113       0.00016825
O       13.56253259      11.77921324       5.74969254        5      -0.00159283       0.00274211      -0.00002957
O       19.44193282      11.78466637       5.75345785        5      -0.00089138       0.00232243      -0.00068802
O        8.17942450       2.18622193       2.51391741        6       0.00007023      -0.00007882      -0.00405394
O       14.05882472       2.19167506       2.51768272        6       0.00151569      -0.00101983      -0.00251619
O       11.41013869       7.09843758       2.51768272        6       0.00134371      -0.00135496      -0.00234329
O       17.28953891       7.10389071       2.52144803        6       0.00210244      -0.00173532      -0.00268139
O       11.41013869       3.93017174       7.10614082        6       0.00007410      -0.00390000      -0.00694291
O       17.28953891       3.93562487       7.10990613        6       0.00134539      -0.00095965      -0.00261514
O       14.64085287       8.84238739       7.10990613        6       0.00146973      -0.00041229      -0.00316938
O       20.52025310       8.84784052       7.11367144        6       0.00210252      -0.00116761      -0.00218188
O        4.16140411       4.47539667       2.08583662        7      -0.00016462       0.00058165       0.00168347
O       10.04080433       4.48084980       2.08960193        7      -0.00134041       0.00096380       0.00251238
O        7.39211830       9.38761232       2.08960193        7      -0.00227490       0.00083699       0.00269134
O       13.27151852       9.39306545       2.09336724        7      -0.00014613      -0.00134918       0.00430720
O        7.39211830       6.21934648       6.67806003        7      -0.00172018       0.00108725       0.00200569
O       13.27151852       6.22479961       6.68182534        7      -0.00130933       0.00109934       0.00705213
O       10.62283248      11.13156213       6.68182534        7      -0.00077235       0.00058139       0.00283286
O       16.50223271      11.13701526       6.68559065        7      -0.00172096       0.00065321       0.00285005
O        6.31592134       4.34856283       4.38194832        8      -0.00038956      -0.00193934       0.00201844
O       12.19532156       4.35401596       4.38571363        8       0.00020497      -0.00162054       0.00217675
O        9.54663553       9.26077848       4.38571363        8      -0.00013568      -0.00195834       0.00270098
O       15.42603575       9.26623161       4.38947894        8       0.00010396      -0.00178596       0.00246994
O        9.54663553       6.09251264       8.97417173        8      -0.00698004       0.00042173       0.00107343
O       15.42603575       6.09796577       8.97793704        8      -0.00946633      -0.00111589       0.00344944
O       12.77734971      11.00472829       8.97793704        8       0.00033475      -0.00303845       0.00261743
O       18.65674994      11.01018142       8.98170235        8      -0.00042563      -0.00267996       0.00233048
O        5.23972438       1.53857082       3.44605021        9       0.00139787      -0.00244647       0.00213701
O       11.11912460       1.54402395       3.44981552        9       0.00109837      -0.00257537       0.00002298
O        8.47043857       6.45078647       3.44981552        9       0.00095119      -0.00262832      -0.00052708
O       14.34983879       6.45623960       3.45358083        9       0.00196525      -0.00264153       0.00021298
O        8.47043857       3.28252063       8.03827362        9       0.00143462      -0.00288419       0.00001077
O       14.34983879       3.28797376       8.04203893        9       0.00287520      -0.00340408      -0.00073210
O       11.70115275       8.19473628       8.04203893        9       0.00509618      -0.00895046       0.00526273
O       17.58055298       8.20018941       8.04580424        9       0.00148449      -0.00298434       0.00014016
