80
Lattice="11.758800449270256 0.010906257130735142 0.007530617294351121 6.461428372549091 9.824431298483415 0.007530617294350176 6.461428372549091 3.48789961733846 9.184446815578362" Properties=species:S:1:pos:R:3:spacegroup_kinds:I:1:forces:R:3 spacegroup="P 1" unit_cell=conventional occupancy="_JSON {\"0\": {\"In\": 1}, \"1\": {\"In\": 1}, \"2\": {\"In\": 1}, \"3\": {\"In\": 1}, \"4\": {\"O\": 1}, \"5\": {\"O\": 1}, \"6\": {\"O\": 1}, \"7\": {\"O\": 1}, \"8\": {\"O\": 1}, \"9\": {\"O\": 1}}" n_minim_iter=4 energy=-90301.4411675001 stress="-3.396914043810827e-05 -1.7327273837530354e-05 2.677027393248889e-06 -1.7327273837530354e-05 -2.4612347616744875e-05 -2.8851783707010765e-05 2.677027393248889e-06 -2.8851783707010765e-05 -4.1325012013283904e-05" free_energy=-11287.680201198045 pbc="T T T"
In      10.56842316       5.71025725       3.94285239        0       0.08618235      -0.00728546      -0.00541617
In      16.45782337       5.71571965       3.94662410        0      -0.00097205       0.00043241       0.00125273
In      13.80913734      10.62248217       3.94662410        0       0.00113101      -0.00006346       0.00023221
In      19.68853756      10.62793530       3.95038941        0       0.00311691       0.00196345       0.00066521
In      13.80913734       7.45421633       8.53508220        0       0.00071901       0.00046639      -0.00090516
In      19.68853756       7.45966946       8.53884751        0       0.00074081       0.00182809       0.00308532
In      17.03985152      12.36643198       8.53884751        0       0.00245533       0.00175771       0.00007814
In      22.91925175      12.37188511       8.54261282        0       0.00189964       0.00103683       0.00071632
In       7.93281975       4.28216137       2.95677225        1      -0.01389487      -0.01101874      -0.00788360
In      13.81221997       4.28761450       2.96053756        1      -0.00608674       0.00033700       0.00150825
In      11.16353394       9.19437702       2.96053756        1      -0.00072357      -0.00317892      -0.00082060
In      17.04293416       9.19983015       2.96430287        1      -0.00235989      -0.00098299      -0.00073381
In      11.16353394       6.02611118       7.54899566        1      -0.00072549      -0.00183601      -0.00143583
In      17.04293416       6.03156431       7.55276097        1      -0.00236329      -0.00108590      -0.00066832
In      14.39424812      10.93832683       7.55276097        1      -0.00205352      -0.00128690      -0.00083709
In      20.27364835      10.94377996       7.55652628        1      -0.00251731      -0.00069699      -0.00064269
In       4.40800886       2.37945722       1.64298178        2       0.00174014       0.00134604       0.00139224
In      10.28740908       2.38491035       1.64674709        2       0.00324316       0.00012559       0.00034965
In       7.63872305       7.29167287       1.64674709        2      -0.00089285       0.00389601      -0.00428308
In      13.51812327       7.29712600       1.65051240        2      -0.00088855      -0.00076212       0.00358500
In       7.63872305       4.12340703       6.23520519        2      -0.00123695      -0.00056985       0.00409748
In      13.51812327       4.12886016       6.23897050        2      -0.00122033       0.00305364      -0.00371409
In      10.86943723       9.03562268       6.23897050        2       0.00323700       0.00114838       0.00027193
In      16.74883746       9.04107581       6.24273581        2       0.00174299       0.00134742       0.00139637
In       1.76240545       0.95135208       0.65689524        3      -0.00205159      -0.00042359      -0.00029756
In       7.64180567       0.95680521       0.66066055        3      -0.00270289      -0.00140775      -0.00085583
In       4.99311964       5.86356773       0.66066055        3      -0.00230316      -0.00156217      -0.00069969
In      10.87251986       5.86902086       0.66442586        3       0.00050413       0.00013446       0.00104881
In       4.99311964       2.69530189       5.24911865        3      -0.00296802      -0.00076709      -0.00102748
In      10.87251986       2.70075502       5.25288396        3       0.00267665      -0.00021315      -0.00131172
In       8.22383382       7.60751754       5.25288396        3      -0.00641945       0.00553710       0.00394262
In      14.10323405       7.61297067       5.25664927        3      -0.00229412      -0.00139635      -0.00096497
O        6.02490727       2.31305576       0.21780571        4       0.00003317       0.00180862      -0.00231156
O       11.90430749       2.31850889       0.22157102        4      -0.00036452       0.00180023      -0.00251148
O        9.25562146       7.22527141       0.22157102        4      -0.00010568       0.00158165      -0.00250229
O       15.13502168       7.23072454       0.22533633        4       0.00017314       0.00156587      -0.00252938
O        9.25562146       4.05700557       4.81002912        4      -0.00655280      -0.00256280      -0.00019458
O       15.13502168       4.06245870       4.81379443        4       0.00279101       0.00062819      -0.00202061
O       12.48633564       8.96922122       4.81379443        4      -0.00055261       0.00129205      -0.00223822
O       18.36573587       8.97467435       4.81755974        4       0.00017317       0.00126777      -0.00284464
O        7.10110422       5.12304778       1.15370382        5      -0.00186260       0.00347187      -0.00025846
O       12.98050444       5.12850091       1.15746913        5      -0.00103927       0.00286083       0.00031241
O       10.33181841      10.03526343       1.15746913        5      -0.00200871       0.00267002       0.00015844
O       16.21121863      10.04071656       1.16123444        5      -0.00130438       0.00263653      -0.00003389
O       10.33181841       6.86699759       5.74592723        5      -0.00443188       0.00624697       0.00532483
O       16.21121863       6.87245072       5.74969254        5      -0.00105660       0.00273245      -0.00009248
O       13.56253259      11.77921324       5.74969254        5      -0.00079346       0.00330013      -0.00011216
O       19.44193282      11.78466637       5.75345785        5      -0.00144897       0.00157302       0.00064439
O        8.17942450       2.18622193       2.51391741        6       0.00157535      -0.00164465      -0.00242067
O       14.05882472       2.19167506       2.51768272        6       0.00113220      -0.00107777      -0.00268664
O       11.41013869       7.09843758       2.51768272        6      -0.00639617      -0.01072865       0.00726406
O       17.28953891       7.10389071       2.52144803        6       0.00306649      -0.00122133      -0.00228471
O       11.41013869       3.93017174       7.10614082        6       0.00112050      -0.00042273      -0.00287925
O       17.28953891       3.93562487       7.10990613        6       0.00167934      -0.00110233      -0.00235736
O       14.64085287       8.84238739       7.10990613        6       0.00145562      -0.00082824      -0.00230178
O       20.52025310       8.84784052       7.11367144        6       0.00164037      -0.00120727      -0.00285531
O        4.16140411       4.47539667       2.08583662        7      -0.00079686       0.00104434       0.00214500
O       10.04080433       4.48084980       2.08960193        7      -0.00580595       0.00014965       0.00082915
O        7.39211830       9.38761232       2.08960193        7      -0.00164186       0.00022944       0.00323868
O       13.27151852       9.39306545       2.09336724        7      -0.00050306       0.00226530       0.00173664
O        7.39211830       6.21934648       6.67806003        7      -0.00122932       0.00067689       0.00242853
O       13.27151852       6.22479961       6.68182534        7      -0.00179955       0.00058284       0.00200728
O       10.62283248      11.13156213       6.68182534        7      -0.00146439       0.00104608       0.00261460
O       16.50223271      11.13701526       6.68559065        7      -0.00204322       0.00146955       0.00230979
O        6.31592134       4.34856283       4.38194832        8      -0.00043182      -0.00140548       0.00299716
O       12.19532156       4.35401596       4.38571363        8      -0.02513859       0.01764364      -0.00273682
O        9.54663553       9.26077848       4.38571363        8      -0.00019994      -0.00251826       0.00219965
O       15.42603575       9.26623161       4.38947894        8       0.00020843      -0.00146347       0.00240044
O        9.54663553       6.09251264       8.97417173        8      -0.00000240      -0.00184945       0.00219397
O       15.42603575       6.09796577       8.97793704        8       0.00032363      -0.00157674       0.00287252
O       12.77734971      11.00472829       8.97793704        8       0.00007868      -0.00158786       0.00285914
O       18.65674994      11.01018142       8.98170235        8       0.00018080      -0.00161541       0.00159640
O        5.23972438       1.53857082       3.44605021        9       0.00155510      -0.00233068      -0.00002190
O       11.11912460       1.54402395       3.44981552        9       0.00129692      -0.00300712      -0.00008965
O        8.47043857       6.45078647       3.44981552        9      -0.01084370       0.00066765      -0.00099462
O       14.34983879       6.45623960       3.45358083        9       0.00089322      -0.00215865      -0.00036420
O        8.47043857       3.28252063       8.03827362        9       0.00152874      -0.00272866      -0.00038228
O       14.34983879       3.28797376       8.04203893        9       0.00155345      -0.00275957       0.00046063
O       11.70115275       8.19473628       8.04203893        9       0.00125910      -0.00247426       0.00037898
O       17.58055298       8.20018941       8.04580424        9       0.00138536      -0.00281329      -0.00007234
