80
Lattice="11.758800449270256 0.010906257130735142 0.007530617294351121 6.461428372549091 9.824431298483415 0.007530617294350176 6.461428372549091 3.48789961733846 9.184446815578362" Properties=species:S:1:pos:R:3:spacegroup_kinds:I:1:forces:R:3 spacegroup="P 1" unit_cell=conventional occupancy="_JSON {\"0\": {\"In\": 1}, \"1\": {\"In\": 1}, \"2\": {\"In\": 1}, \"3\": {\"In\": 1}, \"4\": {\"O\": 1}, \"5\": {\"O\": 1}, \"6\": {\"O\": 1}, \"7\": {\"O\": 1}, \"8\": {\"O\": 1}, \"9\": {\"O\": 1}}" n_minim_iter=4 energy=-90301.44120552282 stress="-1.3294802663954286e-06 4.384215732831321e-05 1.2992583725745607e-05 4.384215732831321e-05 -4.233459060131934e-05 3.9627746646819166e-05 1.2992583725745607e-05 3.9627746646819166e-05 -3.0213776292882092e-05" free_energy=-11287.680201198045 pbc="T T T"
In      10.58842314       5.71027579       3.94286519        0      -0.08326486       0.01061484       0.00690010
In      16.45782337       5.71571965       3.94662410        0       0.00516836       0.00184131       0.00032315
In      13.80913734      10.62248217       3.94662410        0       0.00306888       0.00233043       0.00133478
In      19.68853756      10.62793530       3.95038941        0       0.00109059       0.00030689       0.00089924
In      13.80913734       7.45421633       8.53508220        0       0.00349154       0.00179583       0.00246672
In      19.68853756       7.45966946       8.53884751        0       0.00346572       0.00044952      -0.00150617
In      17.03985152      12.36643198       8.53884751        0       0.00175402       0.00051562       0.00148218
In      22.91925175      12.37188511       8.54261282        0       0.00230398       0.00123151       0.00085048
In       7.93281975       4.28216137       2.95677225        1       0.00972630       0.00868658       0.00628492
In      13.81221997       4.28761450       2.96053756        1       0.00181016      -0.00262062      -0.00305316
In      11.16353394       9.19437702       2.96053756        1      -0.00348999       0.00087346      -0.00074680
In      17.04293416       9.19983015       2.96430287        1      -0.00184148      -0.00128201      -0.00083219
In      11.16353394       6.02611118       7.54899566        1      -0.00349034      -0.00043886      -0.00015113
In      17.04293416       6.03156431       7.55276097        1      -0.00184521      -0.00118416      -0.00089327
In      14.39424812      10.93832683       7.55276097        1      -0.00214826      -0.00098221      -0.00073351
In      20.27364835      10.94377996       7.55652628        1      -0.00169108      -0.00157228      -0.00092821
In       4.40800886       2.37945722       1.64298178        2       0.00245558       0.00092638       0.00017525
In      10.28740908       2.38491035       1.64674709        2       0.00095193       0.00216898       0.00122662
In       7.63872305       7.29167287       1.64674709        2       0.00511415      -0.00160439       0.00584610
In      13.51812327       7.29712600       1.65051240        2       0.00512081       0.00305749      -0.00205225
In       7.63872305       4.12340703       6.23520519        2       0.00544128       0.00280975      -0.00249479
In      13.51812327       4.12886016       6.23897050        2       0.00545667      -0.00080685       0.00532312
In      10.86943723       9.03562268       6.23897050        2       0.00094820       0.00111249       0.00128737
In      16.74883746       9.04107581       6.24273581        2       0.00245886       0.00092710       0.00017902
In       1.76240545       0.95135208       0.65689524        3      -0.00215061      -0.00184110      -0.00127633
In       7.64180567       0.95680521       0.66066055        3      -0.00150430      -0.00087186      -0.00070515
In       4.99311964       5.86356773       0.66066055        3      -0.00189125      -0.00071364      -0.00088505
In      10.87251986       5.86902086       0.66442586        3      -0.00472665      -0.00240566      -0.00253040
In       4.99311964       2.69530189       5.24911865        3      -0.00125296      -0.00149601      -0.00054055
In      10.87251986       2.70075502       5.25288396        3      -0.00691163      -0.00188925      -0.00032980
In       8.22383382       7.60751754       5.25288396        3       0.00229718      -0.00787705      -0.00563465
In      14.10323405       7.61297067       5.25664927        3      -0.00170294      -0.00075052      -0.00051870
O        6.02490727       2.31305576       0.21780571        4      -0.00002864       0.00161893      -0.00264872
O       11.90430749       2.31850889       0.22157102        4       0.00036739       0.00161714      -0.00245454
O        9.25562146       7.22527141       0.22157102        4       0.00011323       0.00184473      -0.00245173
O       15.13502168       7.23072454       0.22533633        4      -0.00016739       0.00186212      -0.00244072
O        9.25562146       4.05700557       4.81002912        4       0.00626952       0.00560081      -0.00451924
O       15.13502168       4.06245870       4.81379443        4      -0.00264674       0.00274395      -0.00291683
O       12.48633564       8.96922122       4.81379443        4       0.00056978       0.00217200      -0.00271970
O       18.36573587       8.97467435       4.81755974        4      -0.00018632       0.00216837      -0.00211216
O        7.10110422       5.12304778       1.15370382        5      -0.00089382       0.00185743       0.00034788
O       12.98050444       5.12850091       1.15746913        5      -0.00181544       0.00244177      -0.00032611
O       10.33181841      10.03526343       1.15746913        5      -0.00085926       0.00263365      -0.00015587
O       16.21121863      10.04071656       1.16123444        5      -0.00155729       0.00267002       0.00003384
O       10.33181841       6.86699759       5.74592723        5       0.00168806      -0.00107319      -0.00549194
O       16.21121863       6.87245072       5.74969254        5      -0.00179371       0.00257741       0.00009132
O       13.56253259      11.77921324       5.74969254        5      -0.00208491       0.00199447       0.00011071
O       19.44193282      11.78466637       5.75345785        5      -0.00140594       0.00371463      -0.00063619
O        8.17942450       2.18622193       2.51391741        6       0.00131772      -0.00019351      -0.00252943
O       14.05882472       2.19167506       2.51768272        6       0.00174345      -0.00082163      -0.00228428
O       11.41013869       7.09843758       2.51768272        6       0.00923980       0.00911583      -0.01245444
O       17.28953891       7.10389071       2.52144803        6      -0.00022869      -0.00066189      -0.00267513
O       11.41013869       3.93017174       7.10614082        6       0.00174194      -0.00146340      -0.00205825
O       17.28953891       3.93562487       7.10990613        6       0.00118956      -0.00077749      -0.00260380
O       14.64085287       8.84238739       7.10990613        6       0.00140945      -0.00105049      -0.00265778
O       20.52025310       8.84784052       7.11367144        6       0.00121456      -0.00066131      -0.00209380
O        4.16140411       4.47539667       2.08583662        7      -0.00205384       0.00083856       0.00281183
O       10.04080433       4.48084980       2.08960193        7       0.00293215       0.00165088       0.00400731
O        7.39211830       9.38761232       2.08960193        7      -0.00123546       0.00166235       0.00172207
O       13.27151852       9.39306545       2.09336724        7      -0.00232300      -0.00033727       0.00320292
O        7.39211830       6.21934648       6.67806003        7      -0.00161034       0.00119532       0.00252125
O       13.27151852       6.22479961       6.68182534        7      -0.00102526       0.00132178       0.00303428
O       10.62283248      11.13156213       6.68182534        7      -0.00139713       0.00083473       0.00234840
O       16.50223271      11.13701526       6.68559065        7      -0.00082206       0.00040847       0.00265116
O        6.31592134       4.34856283       4.38194832        8       0.00062319      -0.00196404       0.00195523
O       12.19532156       4.35401596       4.38571363        8       0.02668189      -0.02256217       0.00815452
O        9.54663553       9.26077848       4.38571363        8       0.00019405      -0.00090141       0.00275752
O       15.42603575       9.26623161       4.38947894        8      -0.00020287      -0.00195254       0.00256361
O        9.54663553       6.09251264       8.97417173        8       0.00000375      -0.00157957       0.00277193
O       15.42603575       6.09796577       8.97793704        8      -0.00033442      -0.00185446       0.00207899
O       12.77734971      11.00472829       8.97793704        8      -0.00007504      -0.00183926       0.00210830
O       18.65674994      11.01018142       8.98170235        8      -0.00017521      -0.00180822       0.00334885
O        5.23972438       1.53857082       3.44605021        9       0.00131055      -0.00297290       0.00002419
O       11.11912460       1.54402395       3.44981552        9       0.00157008      -0.00229686       0.00009009
O        8.47043857       6.45078647       3.44981552        9       0.01265024      -0.00549603       0.00074885
O       14.34983879       6.45623960       3.45358083        9       0.00214066      -0.00314257       0.00034423
O        8.47043857       3.28252063       8.03827362        9       0.00132834      -0.00258155       0.00039328
O       14.34983879       3.28797376       8.04203893        9       0.00131164      -0.00254853      -0.00045879
O       11.70115275       8.19473628       8.04203893        9       0.00161569      -0.00282227      -0.00036083
O       17.58055298       8.20018941       8.04580424        9       0.00148343      -0.00249451       0.00006084
