80
Lattice="11.758800449270256 0.010906257130735142 0.007530617294351121 6.461428372549091 9.824431298483415 0.007530617294350176 6.461428372549091 3.48789961733846 9.184446815578362" Properties=species:S:1:pos:R:3:spacegroup_kinds:I:1:forces:R:3 spacegroup="P 1" unit_cell=conventional occupancy="_JSON {\"0\": {\"In\": 1}, \"1\": {\"In\": 1}, \"2\": {\"In\": 1}, \"3\": {\"In\": 1}, \"4\": {\"O\": 1}, \"5\": {\"O\": 1}, \"6\": {\"O\": 1}, \"7\": {\"O\": 1}, \"8\": {\"O\": 1}, \"9\": {\"O\": 1}}" n_minim_iter=4 energy=-11287.680201198045 stress="-1.557764140152702e-05 1.2269913478854627e-05 8.472202569192856e-06 1.2269913478854627e-05 -3.1684649664533463e-05 4.5733223626684355e-06 8.472202569192856e-06 4.5733223626684355e-06 -3.515017355510056e-05" free_energy=-11287.680201198045 pbc="T T T"
In      10.57842315       5.71026652       3.94285879        0       0.00210234       0.00113485       0.00078360
In      16.45782337       5.71571965       3.94662410        0       0.00210234       0.00113485       0.00078360
In      13.80913734      10.62248217       3.94662410        0       0.00210234       0.00113485       0.00078360
In      19.68853756      10.62793530       3.95038941        0       0.00210234       0.00113485       0.00078360
In      13.80913734       7.45421633       8.53508220        0       0.00210234       0.00113485       0.00078360
In      19.68853756       7.45966946       8.53884751        0       0.00210234       0.00113485       0.00078360
In      17.03985152      12.36643198       8.53884751        0       0.00210234       0.00113485       0.00078360
In      22.91925175      12.37188511       8.54261282        0       0.00210234       0.00113485       0.00078360
In       7.93281975       4.28216137       2.95677225        1      -0.00210234      -0.00113485      -0.00078360
In      13.81221997       4.28761450       2.96053756        1      -0.00210234      -0.00113485      -0.00078360
In      11.16353394       9.19437702       2.96053756        1      -0.00210234      -0.00113485      -0.00078360
In      17.04293416       9.19983015       2.96430287        1      -0.00210234      -0.00113485      -0.00078360
In      11.16353394       6.02611118       7.54899566        1      -0.00210234      -0.00113485      -0.00078360
In      17.04293416       6.03156431       7.55276097        1      -0.00210234      -0.00113485      -0.00078360
In      14.39424812      10.93832683       7.55276097        1      -0.00210234      -0.00113485      -0.00078360
In      20.27364835      10.94377996       7.55652628        1      -0.00210234      -0.00113485      -0.00078360
In       4.40800886       2.37945722       1.64298178        2       0.00210234       0.00113485       0.00078360
In      10.28740908       2.38491035       1.64674709        2       0.00210234       0.00113485       0.00078360
In       7.63872305       7.29167287       1.64674709        2       0.00210234       0.00113485       0.00078360
In      13.51812327       7.29712600       1.65051240        2       0.00210234       0.00113485       0.00078360
In       7.63872305       4.12340703       6.23520519        2       0.00210234       0.00113485       0.00078360
In      13.51812327       4.12886016       6.23897050        2       0.00210234       0.00113485       0.00078360
In      10.86943723       9.03562268       6.23897050        2       0.00210234       0.00113485       0.00078360
In      16.74883746       9.04107581       6.24273581        2       0.00210234       0.00113485       0.00078360
In       1.76240545       0.95135208       0.65689524        3      -0.00210234      -0.00113485      -0.00078360
In       7.64180567       0.95680521       0.66066055        3      -0.00210234      -0.00113485      -0.00078360
In       4.99311964       5.86356773       0.66066055        3      -0.00210234      -0.00113485      -0.00078360
In      10.87251986       5.86902086       0.66442586        3      -0.00210234      -0.00113485      -0.00078360
In       4.99311964       2.69530189       5.24911865        3      -0.00210234      -0.00113485      -0.00078360
In      10.87251986       2.70075502       5.25288396        3      -0.00210234      -0.00113485      -0.00078360
In       8.22383382       7.60751754       5.25288396        3      -0.00210234      -0.00113485      -0.00078360
In      14.10323405       7.61297067       5.25664927        3      -0.00210234      -0.00113485      -0.00078360
O        6.02490727       2.31305576       0.21780571        4      -0.00000000       0.00171275      -0.00248050
O       11.90430749       2.31850889       0.22157102        4      -0.00000000       0.00171275      -0.00248050
O        9.25562146       7.22527141       0.22157102        4      -0.00000000       0.00171275      -0.00248050
O       15.13502168       7.23072454       0.22533633        4      -0.00000000       0.00171275      -0.00248050
O        9.25562146       4.05700557       4.81002912        4      -0.00000000       0.00171275      -0.00248050
O       15.13502168       4.06245870       4.81379443        4      -0.00000000       0.00171275      -0.00248050
O       12.48633564       8.96922122       4.81379443        4      -0.00000000       0.00171275      -0.00248050
O       18.36573587       8.97467435       4.81755974        4      -0.00000000       0.00171275      -0.00248050
O        7.10110422       5.12304778       1.15370382        5      -0.00143187       0.00265257      -0.00000000
O       12.98050444       5.12850091       1.15746913        5      -0.00143187       0.00265257      -0.00000000
O       10.33181841      10.03526343       1.15746913        5      -0.00143187       0.00265257      -0.00000000
O       16.21121863      10.04071656       1.16123444        5      -0.00143187       0.00265257      -0.00000000
O       10.33181841       6.86699759       5.74592723        5      -0.00143187       0.00265257      -0.00000000
O       16.21121863       6.87245072       5.74969254        5      -0.00143187       0.00265257      -0.00000000
O       13.56253259      11.77921324       5.74969254        5      -0.00143187       0.00265257      -0.00000000
O       19.44193282      11.78466637       5.75345785        5      -0.00143187       0.00265257      -0.00000000
O        8.17942450       2.18622193       2.51391741        6       0.00143187      -0.00093982      -0.00248050
O       14.05882472       2.19167506       2.51768272        6       0.00143187      -0.00093982      -0.00248050
O       11.41013869       7.09843758       2.51768272        6       0.00143187      -0.00093982      -0.00248050
O       17.28953891       7.10389071       2.52144803        6       0.00143187      -0.00093982      -0.00248050
O       11.41013869       3.93017174       7.10614082        6       0.00143187      -0.00093982      -0.00248050
O       17.28953891       3.93562487       7.10990613        6       0.00143187      -0.00093982      -0.00248050
O       14.64085287       8.84238739       7.10990613        6       0.00143187      -0.00093982      -0.00248050
O       20.52025310       8.84784052       7.11367144        6       0.00143187      -0.00093982      -0.00248050
O        4.16140411       4.47539667       2.08583662        7      -0.00143187       0.00093982       0.00248050
O       10.04080433       4.48084980       2.08960193        7      -0.00143187       0.00093982       0.00248050
O        7.39211830       9.38761232       2.08960193        7      -0.00143187       0.00093982       0.00248050
O       13.27151852       9.39306545       2.09336724        7      -0.00143187       0.00093982       0.00248050
O        7.39211830       6.21934648       6.67806003        7      -0.00143187       0.00093982       0.00248050
O       13.27151852       6.22479961       6.68182534        7      -0.00143187       0.00093982       0.00248050
O       10.62283248      11.13156213       6.68182534        7      -0.00143187       0.00093982       0.00248050
O       16.50223271      11.13701526       6.68559065        7      -0.00143187       0.00093982       0.00248050
O        6.31592134       4.34856283       4.38194832        8      -0.00000000      -0.00171275       0.00248050
O       12.19532156       4.35401596       4.38571363        8      -0.00000000      -0.00171275       0.00248050
O        9.54663553       9.26077848       4.38571363        8      -0.00000000      -0.00171275       0.00248050
O       15.42603575       9.26623161       4.38947894        8      -0.00000000      -0.00171275       0.00248050
O        9.54663553       6.09251264       8.97417173        8      -0.00000000      -0.00171275       0.00248050
O       15.42603575       6.09796577       8.97793704        8      -0.00000000      -0.00171275       0.00248050
O       12.77734971      11.00472829       8.97793704        8      -0.00000000      -0.00171275       0.00248050
O       18.65674994      11.01018142       8.98170235        8      -0.00000000      -0.00171275       0.00248050
O        5.23972438       1.53857082       3.44605021        9       0.00143187      -0.00265257       0.00000000
O       11.11912460       1.54402395       3.44981552        9       0.00143187      -0.00265257       0.00000000
O        8.47043857       6.45078647       3.44981552        9       0.00143187      -0.00265257       0.00000000
O       14.34983879       6.45623960       3.45358083        9       0.00143187      -0.00265257       0.00000000
O        8.47043857       3.28252063       8.03827362        9       0.00143187      -0.00265257       0.00000000
O       14.34983879       3.28797376       8.04203893        9       0.00143187      -0.00265257       0.00000000
O       11.70115275       8.19473628       8.04203893        9       0.00143187      -0.00265257       0.00000000
O       17.58055298       8.20018941       8.04580424        9       0.00143187      -0.00265257       0.00000000
