20
Lattice="5.586622650835538 -4.616799947578502e-62 -5.3908895599599234e-43 6.906802083622682e-62 5.689124850882577 1.8835146889963625e-18 3.631743012610106e-43 2.6745367628185118e-18 8.08571621739629" Properties=species:S:1:pos:R:3:spacegroup_kinds:I:1:forces:R:3 spacegroup="P 1" unit_cell=conventional occupancy="_JSON {\"0\": {\"In\": 1}, \"1\": {\"In\": 1}, \"2\": {\"In\": 1}, \"3\": {\"In\": 1}, \"4\": {\"In\": 1}, \"5\": {\"In\": 1}, \"6\": {\"In\": 1}, \"7\": {\"In\": 1}, \"8\": {\"O\": 1}, \"9\": {\"O\": 1}, \"10\": {\"O\": 1}, \"11\": {\"O\": 1}, \"12\": {\"O\": 1}, \"13\": {\"O\": 1}, \"14\": {\"O\": 1}, \"15\": {\"O\": 1}, \"16\": {\"O\": 1}, \"17\": {\"O\": 1}, \"18\": {\"O\": 1}, \"19\": {\"O\": 1}}" n_minim_iter=7 energy=-22574.95549281073 stress="2.8959837078051197e-05 -9.57115884681096e-12 -1.5948951877544898e-12 -9.57115884681096e-12 7.445616163797158e-05 -2.5530419910419508e-12 -1.5948951877544898e-12 -2.5530419910419508e-12 1.9819133465726824e-05" free_energy=-22574.95549281073 pbc="T T T"
In       1.38701910       3.00752971       0.92594520        0      -0.00179413      -0.00444195      -0.00058204
In       1.40629222       0.16296728       3.11691291        1       0.00179413      -0.00444195       0.00058204
In       1.40629222       2.68159514       4.96880331        2       0.00179413       0.00444195      -0.00058204
In       1.38701910       5.52615757       7.15977102        3      -0.00179413       0.00444195       0.00058204
In       4.19960355       2.68159514       7.15977102        4       0.00179413       0.00444195       0.00058204
In       4.18033043       5.52615757       4.96880331        5      -0.00179413       0.00444195      -0.00058204
In       4.18033043       3.00752971       3.11691291        6      -0.00179413      -0.00444195       0.00058204
In       4.19960355       0.16296728       0.92594520        7       0.00179413      -0.00444195      -0.00058204
O        2.17930965       3.43759193       6.86547854        8      -0.00715978       0.00158463      -0.00078331
O        0.61400168       0.59302950       5.26309579        9       0.00715978       0.00158463       0.00078331
O        0.61400168       2.25153292       2.82262043       10       0.00715978      -0.00158463      -0.00078331
O        2.17930965       5.09609535       1.22023768       11      -0.00715978      -0.00158463       0.00078331
O        3.40731300       2.25153292       1.22023768       12       0.00715978      -0.00158463       0.00078331
O        4.97262097       5.09609535       2.82262043       13      -0.00715978      -0.00158463      -0.00078331
O        4.97262097       3.43759193       5.26309579       14      -0.00715978       0.00158463       0.00078331
O        3.40731300       0.59302950       6.86547854       15       0.00715978       0.00158463      -0.00078331
O        5.35066009       4.26684364      -0.00000000       16       0.00130877       0.00000000       0.00000000
O        3.02927389       1.42228121       4.04285811       17      -0.00130877      -0.00000000      -0.00000000
O        0.23596256       1.42228121      -0.00000000       18      -0.00130877      -0.00000000       0.00000000
O        2.55734876       4.26684364       4.04285811       19       0.00130877       0.00000000       0.00000000
