20
Lattice="5.586368004724652 -8.420846643636657e-63 1.4424886051608257e-43 -4.757282341087585e-62 5.687869706916859 1.4195488658886953e-19 -1.20250966186887e-42 2.0204000918584055e-19 8.089210092353083" Properties=species:S:1:pos:R:3:spacegroup_kinds:I:1:forces:R:3 spacegroup="P 1" unit_cell=conventional occupancy="_JSON {\"0\": {\"In\": 1}, \"1\": {\"In\": 1}, \"2\": {\"In\": 1}, \"3\": {\"In\": 1}, \"4\": {\"In\": 1}, \"5\": {\"In\": 1}, \"6\": {\"In\": 1}, \"7\": {\"In\": 1}, \"8\": {\"O\": 1}, \"9\": {\"O\": 1}, \"10\": {\"O\": 1}, \"11\": {\"O\": 1}, \"12\": {\"O\": 1}, \"13\": {\"O\": 1}, \"14\": {\"O\": 1}, \"15\": {\"O\": 1}, \"16\": {\"O\": 1}, \"17\": {\"O\": 1}, \"18\": {\"O\": 1}, \"19\": {\"O\": 1}}" n_minim_iter=7 energy=-22574.959130650943 stress="-2.0704751512602086e-06 2.101084618626737e-12 -1.9706550766101204e-12 2.101084618626737e-12 -7.689296947040354e-06 -1.2104296699675692e-12 -1.9706550766101204e-12 -1.2104296699675692e-12 -1.3200880573739125e-05" free_energy=-22574.959130650943 pbc="T T T"
In       1.38510506       3.00597258       0.92767682        0      -0.00083454      -0.00529625       0.00296687
In       1.40807894       0.16203773       3.11692822        1       0.00083454      -0.00529625      -0.00296687
In       1.40807894       2.68189712       4.97228187        2       0.00083454       0.00529625       0.00296687
In       1.38510506       5.52583198       7.16153327        3      -0.00083454       0.00529625      -0.00296687
In       4.20126294       2.68189712       7.16153327        4       0.00083454       0.00529625      -0.00296687
In       4.17828907       5.52583198       4.97228187        5      -0.00083454       0.00529625       0.00296687
In       4.17828907       3.00597258       3.11692822        6      -0.00083454      -0.00529625      -0.00296687
In       4.20126294       0.16203773       0.92767682        7       0.00083454      -0.00529625       0.00296687
O        2.18051437       3.43655279       6.86904022        8      -0.00116672       0.00121703      -0.00054523
O        0.61266963       0.59261793       5.26477492        9       0.00116672       0.00121703       0.00054523
O        0.61266963       2.25131692       2.82443518       10       0.00116672      -0.00121703      -0.00054523
O        2.18051437       5.09525177       1.22016987       11      -0.00116672      -0.00121703       0.00054523
O        3.40585363       2.25131692       1.22016987       12       0.00116672      -0.00121703       0.00054523
O        4.97369837       5.09525177       2.82443518       13      -0.00116672      -0.00121703      -0.00054523
O        4.97369837       3.43655279       5.26477492       14      -0.00116672       0.00121703       0.00054523
O        3.40585363       0.59261793       6.86904022       15       0.00116672       0.00121703      -0.00054523
O        5.35284701       4.26590228      -0.00000000       16       0.00284681      -0.00000000       0.00000000
O        3.02670499       1.42196743       4.04460505       17      -0.00284681      -0.00000000      -0.00000000
O        0.23352099       1.42196743      -0.00000000       18      -0.00284681       0.00000000      -0.00000000
O        2.55966301       4.26590228       4.04460505       19       0.00284681       0.00000000       0.00000000
