10
Lattice="5.879120116861378 0.005013770529985311 0.003461938097590974 3.2301931795118697 4.912222563098503 0.003461938097590486 3.2301931795118697 1.7436685675591541 4.592337359225221" Properties=species:S:1:pos:R:3:spacegroup_kinds:I:1:forces:R:3 spacegroup="P 1" unit_cell=conventional occupancy="_JSON {\"0\": {\"In\": 1}, \"1\": {\"In\": 1}, \"2\": {\"In\": 1}, \"3\": {\"In\": 1}, \"4\": {\"O\": 1}, \"5\": {\"O\": 1}, \"6\": {\"O\": 1}, \"7\": {\"O\": 1}, \"8\": {\"O\": 1}, \"9\": {\"O\": 1}}" n_minim_iter=5 energy=-11287.680190913761 stress="-9.68318757990692e-05 -6.186489283711386e-05 -4.27168389899682e-05 -6.186489283711386e-05 -1.562035521483625e-05 -2.3058685737271164e-05 -4.27168389899682e-05 -2.3058685737271164e-05 1.8528126521587746e-06" free_energy=-11287.680190913761 pbc="T T T"
In      10.57737027       5.70969817       3.94246635        0      -0.00049566      -0.00026756      -0.00018475
In       7.93188945       4.28165919       2.95642551        1       0.00049566       0.00026756       0.00018475
In       4.40761703       2.37924572       1.64283573        2      -0.00049566      -0.00026756      -0.00018475
In       1.76213621       0.95120674       0.65679489        3       0.00049566       0.00026756       0.00018475
O        6.02443668       2.31245891       0.21781868        4      -0.00000000       0.00557371      -0.00807216
O        7.10053930       5.12234531       1.15327725        5      -0.00465965       0.00863213      -0.00000000
O        8.17852725       2.18579227       2.51398736        6       0.00465965      -0.00305842      -0.00807216
O        4.16097924       4.47511264       2.08527388        7      -0.00465965       0.00305842       0.00807216
O        6.31506980       4.34844601       4.38144256        8       0.00000000      -0.00557371       0.00807216
O        5.23896719       1.53855960       3.44598399        9       0.00465965      -0.00863213       0.00000000
