10
Lattice="5.880841642905203 0.004280928253690316 0.0029559208036884763 3.2305251586636494 4.9140638940205 0.002955920803688011 3.230525158663649 1.7438477709627525 4.59423852707845" Properties=species:S:1:pos:R:3:spacegroup_kinds:I:1:forces:R:3 spacegroup="P 1" unit_cell=conventional occupancy="_JSON {\"0\": {\"In\": 1}, \"1\": {\"In\": 1}, \"2\": {\"In\": 1}, \"3\": {\"In\": 1}, \"4\": {\"O\": 1}, \"5\": {\"O\": 1}, \"6\": {\"O\": 1}, \"7\": {\"O\": 1}, \"8\": {\"O\": 1}, \"9\": {\"O\": 1}}" n_minim_iter=3 energy=-11287.683982122438 stress="0.00017523636663571942 0.00010562909332686734 7.293540174846203e-05 0.00010562909332686734 3.657453084602711e-05 3.937076084342189e-05 7.293540174846203e-05 3.937076084342189e-05 6.740563102119623e-06" free_energy=-11287.683982122438 pbc="T T T"
In      10.57930006       5.71073987       3.94318563        0       0.00063668       0.00034368       0.00023731
In       7.93353789       4.28254903       2.95703992        1      -0.00063668      -0.00034368      -0.00023731
In       4.40835408       2.37964358       1.64311045        2       0.00063668       0.00034368       0.00023731
In       1.76259191       0.95145273       0.65696474        3      -0.00063668      -0.00034368      -0.00023731
O        6.02589382       2.31302077       0.21690978        4       0.00000000       0.00149253      -0.00216157
O        7.10165550       5.12416057       1.15299352        5      -0.00124776       0.00231152      -0.00000000
O        8.18065729       2.18550465       2.51402904        6       0.00124776      -0.00081898      -0.00216157
O        4.16123468       4.47668795       2.08612133        7      -0.00124776       0.00081898       0.00216157
O        6.31599815       4.34917183       4.38324059        8       0.00000000      -0.00149253       0.00216157
O        5.24023647       1.53803203       3.44715686        9       0.00124776      -0.00231152      -0.00000000
