10
Lattice="5.879136058595505 0.00010281282954116356 7.099081407467682e-05 3.226096341968108 4.914930640241879 7.099081407489893e-05 3.226096341968107 1.7414570816032173 4.596071195745568" Properties=species:S:1:pos:R:3:spacegroup_kinds:I:1:forces:R:3 spacegroup="P 1" unit_cell=conventional occupancy="_JSON {\"0\": {\"In\": 1}, \"1\": {\"In\": 1}, \"2\": {\"In\": 1}, \"3\": {\"In\": 1}, \"4\": {\"O\": 1}, \"5\": {\"O\": 1}, \"6\": {\"O\": 1}, \"7\": {\"O\": 1}, \"8\": {\"O\": 1}, \"9\": {\"O\": 1}}" energy=-11287.68686640908 stress="0.002072695613401813 -0.0008126222229690578 -0.0005611042260153476 -0.0008126222229690578 0.0031394441946604253 -0.0003028858485099673 -0.0005611042260153476 -0.0003028858485099673 0.003368961836843311" pbc="T T T"
In      10.57064372       5.70606716       3.93995919        0       0.00349593       0.00168459       0.00096365
In       7.92634940       4.27866866       2.95436058        1      -0.00312620      -0.00213736      -0.00127372
In       4.40497935       2.37782189       1.64185260        2       0.00312620       0.00213736       0.00127372
In       1.76068503       0.95042339       0.65625399        3      -0.00349593      -0.00168459      -0.00096365
O        6.02240022       2.30941877       0.21460963        4      -0.00000257       0.00768349      -0.01110819
O        7.09602058       5.12094397       1.14912429        5      -0.00641773       0.01189264      -0.00000617
O        8.17487620       2.18084271       2.51264523        6       0.00641387      -0.00420915      -0.01110228
O        4.15645255       4.47564784       2.08356795        7      -0.00641387       0.00420915       0.01110228
O        6.30892853       4.34707177       4.38160355        8       0.00000257      -0.00768349       0.01110819
O        5.23530817       1.53554657       3.44708889        9       0.00641773      -0.01189264       0.00000617
