40
Lattice="8.920861121288265 6.991921251559155e-10 -4.3426560683951517e-16 -2.97362037442196 8.410668523615412 -1.2110376710783149e-09 -2.9736203734331514 -4.2053342611085105 7.283852605068463" Properties=species:S:1:pos:R:3:spacegroup_kinds:I:1:forces:R:3 spacegroup="P 1" unit_cell=conventional occupancy="_JSON {\"0\": {\"In\": 1}, \"1\": {\"In\": 1}, \"2\": {\"In\": 1}, \"3\": {\"In\": 1}, \"4\": {\"In\": 1}, \"5\": {\"In\": 1}, \"6\": {\"In\": 1}, \"7\": {\"In\": 1}, \"8\": {\"In\": 1}, \"9\": {\"In\": 1}, \"10\": {\"In\": 1}, \"11\": {\"In\": 1}, \"12\": {\"In\": 1}, \"13\": {\"In\": 1}, \"14\": {\"In\": 1}, \"15\": {\"In\": 1}, \"16\": {\"O\": 1}, \"17\": {\"O\": 1}, \"18\": {\"O\": 1}, \"19\": {\"O\": 1}, \"20\": {\"O\": 1}, \"21\": {\"O\": 1}, \"22\": {\"O\": 1}, \"23\": {\"O\": 1}, \"24\": {\"O\": 1}, \"25\": {\"O\": 1}, \"26\": {\"O\": 1}, \"27\": {\"O\": 1}, \"28\": {\"O\": 1}, \"29\": {\"O\": 1}, \"30\": {\"O\": 1}, \"31\": {\"O\": 1}, \"32\": {\"O\": 1}, \"33\": {\"O\": 1}, \"34\": {\"O\": 1}, \"35\": {\"O\": 1}, \"36\": {\"O\": 1}, \"37\": {\"O\": 1}, \"38\": {\"O\": 1}, \"39\": {\"O\": 1}}" n_minim_iter=6 energy=-45151.22025279914 stress="-0.000126598872210857 -2.485044158604366e-13 4.653381143545991e-13 -2.485044158604366e-13 -0.0001265988744728962 -5.737989450661435e-13 4.653381143545991e-13 -5.737989450661435e-13 -0.00012659887007042436" free_energy=-45151.22025279914 pbc="T T T"
In      -4.25825992       3.01104447       5.71049691        0      -0.00019919       0.00014085      -0.00024395
In       7.23188029       1.19428980       1.57335569        1       0.00019919      -0.00014085       0.00024395
In       1.28463954      -0.90837733       5.21528199        2       0.00019919      -0.00014085       0.00024395
In      -1.48681019      -2.10266713       3.64192630        3      -0.00000000      -0.00000000       0.00000000
In      -1.28463955       4.06237803       3.39431884        4      -0.00019919       0.00014085       0.00024395
In       4.66260120      -2.86808823       5.46288945        5      -0.00019919      -0.00028169      -0.00000000
In      -1.28463955       1.33724603       5.46288945        6      -0.00019919      -0.00028169       0.00000000
In      -1.68898083       7.07342250       1.82096315        7       0.00019919       0.00028169      -0.00000000
In       4.25825992       0.14295623       3.88953376        8       0.00019919      -0.00014085      -0.00024395
In      -1.48681019       4.20533426      -0.00000000        9      -0.00000000      -0.00000000      -0.00000000
In       4.25825992       6.45095763       0.24760745       10       0.00019919      -0.00014085      -0.00024395
In      -1.28463955      -2.24562336       7.03624515       11      -0.00019919       0.00014085       0.00024395
In       4.25825992       2.86808824       1.82096315       12       0.00019919       0.00028169      -0.00000000
In       1.68898083       5.11371160       2.06857060       13      -0.00019919       0.00014085      -0.00024395
In       4.46043056       0.00000000      -0.00000000       14      -0.00000000      -0.00000000       0.00000000
In       1.48681019       2.10266713       3.64192630       15      -0.00000000      -0.00000000       0.00000000
O        0.87671167       4.20558902       3.96404943       16       0.00011869       0.00171805      -0.00176431
O       -2.09690871       3.43284013       5.30160726       17       0.00011869      -0.00238696      -0.00060572
O       -0.43583705       2.25828510       0.05214366       18      -0.00059109      -0.00188506      -0.00147502
O       -0.87671167      -0.77223938       1.98180409       19      -0.00011869      -0.00066891      -0.00237003
O        3.93548228       5.00767880       1.92966043       20      -0.00229001      -0.00018269      -0.00089500
O        2.01175846       2.93537157       1.65968096       21       0.00229001       0.00068375      -0.00060572
O        2.01175846       6.27764149       0.26997946       22       0.00229001      -0.00086644      -0.00028928
O       -2.27441062       5.96615080       3.69406996       23       0.00158023       0.00118564      -0.00147502
O        3.40945742       1.94704917       7.23170894       24       0.00059109       0.00188506       0.00147502
O        5.24803099      -1.76081654       3.58978264       25      -0.00158023      -0.00118564       0.00147502
O        6.38307779       3.27696741       1.71226587       26       0.00059109      -0.00221994       0.00089500
O        3.67283012       2.31875016       3.91190577       27       0.00158023      -0.00187023      -0.00028928
O        0.69920975       4.33110183       6.96172947       28       0.00158023       0.00068459       0.00176431
O        2.27441062      -0.12576756       0.32212312       29      -0.00158023      -0.00068459      -0.00176431
O       -3.40945742       0.92836685       5.57158673       30      -0.00059109       0.00221994      -0.00089500
O        5.07052908       0.77249413       1.98224533       31      -0.00011869       0.00238696       0.00060572
O        0.96186191       1.26996269       5.62417164       32      -0.00229001      -0.00068375       0.00060572
O        3.40945742      -1.01868231       5.62373039       33       0.00059109       0.00033488      -0.00237003
O        2.09690870      -0.00025475       3.31980317       34      -0.00011869      -0.00171805       0.00176431
O        0.96186191      -2.07230722       7.01387313       35      -0.00229001       0.00086644       0.00028928
O       -0.69920975       1.88658410       3.37194683       36      -0.00158023       0.00187023       0.00028928
O       -0.96186191      -0.80234453       5.35419217       37       0.00229001       0.00018269       0.00089500
O       -0.43583705       5.22401658       1.66012221       38      -0.00059109      -0.00033488       0.00237003
O        3.85033204       4.97757364       5.30204851       39       0.00011869       0.00066891       0.00237003
