79
Lattice="11.764506402117998 0.01526581519990899 0.0105466801006875 6.468203969902034 9.826808643969605 0.010547149196541481 6.46820852014741 3.4915597599805444 9.185611645176913" Properties=species:S:1:pos:R:3:spacegroup_kinds:I:1:forces:R:3 spacegroup="P 1" unit_cell=conventional occupancy="_JSON {\"0\": {\"In\": 1}, \"1\": {\"In\": 1}, \"2\": {\"In\": 1}, \"3\": {\"In\": 1}, \"4\": {\"O\": 1}, \"5\": {\"O\": 1}, \"6\": {\"O\": 1}, \"7\": {\"O\": 1}, \"8\": {\"O\": 1}, \"9\": {\"O\": 1}}" n_minim_iter=2 energy=-11287.650445873684 stress="0.022531589382193674 -0.0018335608800424108 -0.001271648382002373 -0.0018335608800424108 0.0249417532831007 -0.0006867819420489351 -0.001271648382002373 -0.0006867819420489351 0.025455003424284323" bulk_struct_test=bulk_In2O3_Ia3 vacancies=inequivalent origin=supercell_R3c_222 pbc="T T T"
In      10.58525050       5.71395112       3.94541103        0       0.00085695       0.00041678       0.00026174
In       7.94044188       4.28627324       2.95961721        1      -0.00079499      -0.00050239      -0.00029362
In       4.41001757       2.38054389       1.64373553        2       0.00079499       0.00050239       0.00029362
In       1.76520896       0.95286600       0.65794170        3      -0.00085695      -0.00041678      -0.00026174
O        7.10651151       5.12625432       1.15610873        5       0.00125316      -0.00232479       0.00000977
O        8.18507552       2.18944431       2.51564883        6      -0.00127758       0.00084306       0.00220781
O        4.16538394       4.47737281       2.08770391        7       0.00127758      -0.00084306      -0.00220781
O        6.32172283       4.35122540       4.38410117        8      -0.00000977       0.00152621      -0.00219881
O        5.24394795       1.54056280       3.44724401        9      -0.00125316       0.00232479      -0.00000977
In      13.81935476       7.45973100       8.53821686        0       0.00085695       0.00041678       0.00026174
In      11.17454614       6.03205311       7.55242304        1      -0.00079499      -0.00050239      -0.00029362
In       7.64412183       4.12632377       6.23654135        2       0.00079499       0.00050239       0.00029362
In       4.99931322       2.69864588       5.25074753        3      -0.00085695      -0.00041678      -0.00026174
O        9.26284088       4.06137161       4.81205739        4       0.00000977      -0.00152621       0.00219881
O       10.34061577       6.87203420       5.74891455        5       0.00125316      -0.00232479       0.00000977
O       11.41917978       3.93522419       7.10845465        6      -0.00127758       0.00084306       0.00220781
O        7.39948820       6.22315269       6.68050973        7       0.00127758      -0.00084306      -0.00220781
O        9.55582709       6.09700528       8.97690699        8      -0.00000977       0.00152621      -0.00219881
O        8.47805221       3.28634269       8.04004983        9      -0.00125316       0.00232479      -0.00000977
In      13.81935248      10.62735544       3.95068461        0       0.00085695       0.00041678       0.00026174
In      11.17454387       9.19967755       2.96489079        1      -0.00079499      -0.00050239      -0.00029362
In       7.64411955       7.29394821       1.64900910        2       0.00079499       0.00050239       0.00029362
In       4.99931094       5.86627032       0.66321528        3      -0.00085695      -0.00041678      -0.00026174
O        9.26283861       7.22899605       0.22452514        4       0.00000977      -0.00152621       0.00219881
O       10.34061349      10.03965864       1.16138230        5       0.00125316      -0.00232479       0.00000977
O       11.41917751       7.10284863       2.52092240        6      -0.00127758       0.00084306       0.00220781
O        7.39948592       9.39077713       2.09297748        7       0.00127758      -0.00084306      -0.00220781
O        9.55582481       9.26462972       4.38937474        8      -0.00000977       0.00152621      -0.00219881
O        8.47804993       6.45396713       3.45251758        9      -0.00125316       0.00232479      -0.00000977
In      17.05345675      12.37313532       8.54349043        0       0.00085695       0.00041678       0.00026174
In      14.40864813      10.94545744       7.55769661        1      -0.00079499      -0.00050239      -0.00029362
In      10.87822382       9.03972809       6.24181492        2       0.00079499       0.00050239       0.00029362
In       8.23341521       7.61205020       5.25602110        3      -0.00085695      -0.00041678      -0.00026174
O       12.49694287       8.97477593       4.81733097        4       0.00000977      -0.00152621       0.00219881
O       13.57471776      11.78543852       5.75418813        5       0.00125316      -0.00232479       0.00000977
O       14.65328177       8.84862851       7.11372823        6      -0.00127758       0.00084306       0.00220781
O       10.63359019      11.13655701       6.68578331        7       0.00127758      -0.00084306      -0.00220781
O       12.78992908      11.01040960       8.98218057        8      -0.00000977       0.00152621      -0.00219881
O       11.71215420       8.19974700       8.04532341        9      -0.00125316       0.00232479      -0.00000977
In      16.46750370       5.72158403       3.95068437        0       0.00085695       0.00041678       0.00026174
In      13.82269508       4.29390614       2.96489055        1      -0.00079499      -0.00050239      -0.00029362
In      10.29227077       2.38817680       1.64900887        2       0.00079499       0.00050239       0.00029362
In       7.64746216       0.96049891       0.66321504        3      -0.00085695      -0.00041678      -0.00026174
O       11.91098983       2.32322464       0.22452491        4       0.00000977      -0.00152621       0.00219881
O       12.98876471       5.13388723       1.16138207        5       0.00125316      -0.00232479       0.00000977
O       14.06732872       2.19707722       2.52092217        6      -0.00127758       0.00084306       0.00220781
O       10.04763714       4.48500572       2.09297725        7       0.00127758      -0.00084306      -0.00220781
O       12.20397603       4.35885831       4.38937451        8      -0.00000977       0.00152621      -0.00219881
O       11.12620115       1.54819571       3.45251735        9      -0.00125316       0.00232479      -0.00000977
In      19.70160796       7.46736391       8.54349020        0       0.00085695       0.00041678       0.00026174
In      17.05679934       6.03968602       7.55769638        1      -0.00079499      -0.00050239      -0.00029362
In      13.52637503       4.13395668       6.24181469        2       0.00079499       0.00050239       0.00029362
In      10.88156642       2.70627879       5.25602087        3      -0.00085695      -0.00041678      -0.00026174
O       15.14509409       4.06900452       4.81733073        4       0.00000977      -0.00152621       0.00219881
O       16.22286897       6.87966711       5.75418789        5       0.00125316      -0.00232479       0.00000977
O       17.30143298       3.94285710       7.11372799        6      -0.00127758       0.00084306       0.00220781
O       13.28174140       6.23078560       6.68578307        7       0.00127758      -0.00084306      -0.00220781
O       15.43808029       6.10463819       8.98218033        8      -0.00000977       0.00152621      -0.00219881
O       14.36030541       3.29397559       8.04532317        9      -0.00125316       0.00232479      -0.00000977
In      19.70160568      10.63498835       3.95595795        0       0.00085695       0.00041678       0.00026174
In      17.05679707       9.20731046       2.97016413        1      -0.00079499      -0.00050239      -0.00029362
In      13.52637276       7.30158112       1.65428244        2       0.00079499       0.00050239       0.00029362
In      10.88156414       5.87390323       0.66848862        3      -0.00085695      -0.00041678      -0.00026174
O       15.14509181       7.23662896       0.22979848        4       0.00000977      -0.00152621       0.00219881
O       16.22286670      10.04729155       1.16665564        5       0.00125316      -0.00232479       0.00000977
O       17.30143071       7.11048154       2.52619574        6      -0.00127758       0.00084306       0.00220781
O       13.28173912       9.39841004       2.09825082        7       0.00127758      -0.00084306      -0.00220781
O       15.43807802       9.27226263       4.39464808        8      -0.00000977       0.00152621      -0.00219881
O       14.36030314       6.46160004       3.45779092        9      -0.00125316       0.00232479      -0.00000977
In      22.93570995      12.38076823       8.54876377        0       0.00085695       0.00041678       0.00026174
In      20.29090133      10.95309035       7.56296995        1      -0.00079499      -0.00050239      -0.00029362
In      16.76047702       9.04736100       6.24708826        2       0.00079499       0.00050239       0.00029362
In      14.11566841       7.61968311       5.26129444        3      -0.00085695      -0.00041678      -0.00026174
O       18.37919607       8.98240884       4.82260431        4       0.00000977      -0.00152621       0.00219881
O       19.45697096      11.79307143       5.75946147        5       0.00125316      -0.00232479       0.00000977
O       20.53553497       8.85626142       7.11900157        6      -0.00127758       0.00084306       0.00220781
O       16.51584339      11.14418992       6.69105665        7       0.00127758      -0.00084306      -0.00220781
O       18.67218228      11.01804251       8.98745391        8      -0.00000977       0.00152621      -0.00219881
O       17.59440740       8.20737991       8.05059675        9      -0.00125316       0.00232479      -0.00000977
