20
Lattice="5.587177397944502 7.695039335655366e-65 -4.3467919596256827e-44 -2.3824281910663384e-62 5.6860669298173105 6.644400233351491e-19 -3.046723124026785e-43 9.436225830634891e-19 8.087299185442616" Properties=species:S:1:pos:R:3:spacegroup_kinds:I:1:forces:R:3 spacegroup="P 1" unit_cell=conventional occupancy="_JSON {\"0\": {\"In\": 1}, \"1\": {\"In\": 1}, \"2\": {\"In\": 1}, \"3\": {\"In\": 1}, \"4\": {\"In\": 1}, \"5\": {\"In\": 1}, \"6\": {\"In\": 1}, \"7\": {\"In\": 1}, \"8\": {\"O\": 1}, \"9\": {\"O\": 1}, \"10\": {\"O\": 1}, \"11\": {\"O\": 1}, \"12\": {\"O\": 1}, \"13\": {\"O\": 1}, \"14\": {\"O\": 1}, \"15\": {\"O\": 1}, \"16\": {\"O\": 1}, \"17\": {\"O\": 1}, \"18\": {\"O\": 1}, \"19\": {\"O\": 1}}" n_minim_iter=6 energy=-22574.959351879304 stress="-0.000661782561214005 -4.0545218403605936e-13 1.4642486836678474e-14 -4.0545218403605936e-13 -0.00025770508892607256 -6.85407319005549e-13 1.4642486836678474e-14 -6.85407319005549e-13 -4.5567087960623105e-05" free_energy=-22574.959351879304 pbc="T T T"
In       1.38598006       3.00462814       0.92720946        0      -0.00165615      -0.00205676      -0.00512383
In       1.40760864       0.16159468       3.11644014        1       0.00165615      -0.00205676       0.00512383
In       1.40760864       2.68143879       4.97085905        2       0.00165615       0.00205676      -0.00512383
In       1.38598006       5.52447225       7.16008973        3      -0.00165615       0.00205676       0.00512383
In       4.20119734       2.68143879       7.16008973        4       0.00165615       0.00205676       0.00512383
In       4.17956875       5.52447225       4.97085905        5      -0.00165615       0.00205676      -0.00512383
In       4.17956875       3.00462814       3.11644014        6      -0.00165615      -0.00205676       0.00512383
In       4.20119734       0.16159468       0.92720946        7       0.00165615      -0.00205676      -0.00512383
O        2.17999462       3.43525298       6.86800531        8      -0.00560001       0.00123849       0.00092089
O        0.61359407       0.59221952       5.26294347        9       0.00560001       0.00123849      -0.00092089
O        0.61359407       2.25081395       2.82435572       10       0.00560001      -0.00123849       0.00092089
O        2.17999462       5.09384741       1.21929387       11      -0.00560001      -0.00123849      -0.00092089
O        3.40718277       2.25081395       1.21929387       12       0.00560001      -0.00123849      -0.00092089
O        4.97358332       5.09384741       2.82435572       13      -0.00560001      -0.00123849       0.00092089
O        4.97358332       3.43525298       5.26294347       14      -0.00560001       0.00123849      -0.00092089
O        3.40718277       0.59221952       6.86800531       15       0.00560001       0.00123849       0.00092089
O        5.35320345       4.26455020       0.00000000       16       0.00141890      -0.00000000       0.00000000
O        3.02756265       1.42151673       4.04364959       17      -0.00141890      -0.00000000       0.00000000
O        0.23397395       1.42151673       0.00000000       18      -0.00141890       0.00000000       0.00000000
O        2.55961475       4.26455020       4.04364959       19       0.00141890      -0.00000000      -0.00000000
