20
Lattice="5.585035208938729 3.504889045706246e-63 1.6790930574661337e-44 8.167429056783603e-64 5.686425598478845 1.0977197346453083e-18 8.263003318250185e-45 1.5582840775957342e-18 8.088477972495996" Properties=species:S:1:pos:R:3:spacegroup_kinds:I:1:forces:R:3 spacegroup="P 1" unit_cell=conventional occupancy="_JSON {\"0\": {\"In\": 1}, \"1\": {\"In\": 1}, \"2\": {\"In\": 1}, \"3\": {\"In\": 1}, \"4\": {\"In\": 1}, \"5\": {\"In\": 1}, \"6\": {\"In\": 1}, \"7\": {\"In\": 1}, \"8\": {\"O\": 1}, \"9\": {\"O\": 1}, \"10\": {\"O\": 1}, \"11\": {\"O\": 1}, \"12\": {\"O\": 1}, \"13\": {\"O\": 1}, \"14\": {\"O\": 1}, \"15\": {\"O\": 1}, \"16\": {\"O\": 1}, \"17\": {\"O\": 1}, \"18\": {\"O\": 1}, \"19\": {\"O\": 1}}" n_minim_iter=5 energy=-22574.957937468003 stress="-0.0004932069912653916 8.663027953866223e-13 -5.541959942648883e-13 8.663027953866223e-13 -3.0097222634854135e-05 -6.961857977265402e-14 -5.541959942648883e-13 -6.961857977265402e-14 8.210269094493063e-05" free_energy=-22574.957937468003 pbc="T T T"
In       1.38535518       3.00548772       0.92931660        0      -0.00517870      -0.00364686      -0.00723929
In       1.40716243       0.16227492       3.11492239        1       0.00517870      -0.00364686       0.00723929
In       1.40716243       2.68093788       4.97355558        2       0.00517870       0.00364686      -0.00723929
In       1.38535518       5.52415068       7.15916138        3      -0.00517870       0.00364686       0.00723929
In       4.19968003       2.68093788       7.15916138        4       0.00517870       0.00364686       0.00723929
In       4.17787278       5.52415068       4.97355558        5      -0.00517870       0.00364686      -0.00723929
In       4.17787278       3.00548772       3.11492239        6      -0.00517870      -0.00364686       0.00723929
In       4.19968003       0.16227492       0.92931660        7       0.00517870      -0.00364686      -0.00723929
O        2.17886771       3.43522488       6.86910553        8      -0.00287274      -0.00252607       0.00460259
O        0.61364989       0.59201208       5.26361143        9       0.00287274      -0.00252607      -0.00460259
O        0.61364989       2.25120072       2.82486654       10       0.00287274       0.00252607       0.00460259
O        2.17886771       5.09441352       1.21937245       11      -0.00287274       0.00252607      -0.00460259
O        3.40616750       2.25120072       1.21937245       12       0.00287274       0.00252607      -0.00460259
O        4.97138532       5.09441352       2.82486654       13      -0.00287274       0.00252607       0.00460259
O        4.97138532       3.43522488       5.26361143       14      -0.00287274      -0.00252607      -0.00460259
O        3.40616750       0.59201208       6.86910553       15       0.00287274      -0.00252607       0.00460259
O        5.35035199       4.26481920       0.00000000       16       0.00116325      -0.00000000       0.00000000
O        3.02720082       1.42160640       4.04423899       17      -0.00116325      -0.00000000       0.00000000
O        0.23468322       1.42160640       0.00000000       18      -0.00116325      -0.00000000       0.00000000
O        2.55783439       4.26481920       4.04423899       19       0.00116325       0.00000000      -0.00000000
