1
Lattice="3.8194944937714888 0.5932391067191799 -3.739945184914348e-10 0.8561629948788083 3.7692778820208788 -8.021177774091617e-10 -2.3378287441791197 -2.181258493941014 2.1718975508047706" Properties=species:S:1:pos:R:3:spacegroup_kinds:I:1:forces:R:3 spacegroup="P 1" unit_cell=conventional occupancy="_JSON {\"0\": {\"In\": 1}}" n_minim_iter=5 energy=-1970.5686633557398 stress="-0.0036329343767430937 -0.005339826717450078 1.3883088628455152e-12 -0.005339826717450078 -0.00289202122391455 1.299021798686672e-12 1.3883088628455152e-12 1.299021798686672e-12 0.002090183915801439" free_energy=-1970.5686633557398 pbc="T T T"
In       0.00000000       0.00000000       0.00000000        0      -0.00000000      -0.00000000      -0.00000000
