40
Lattice="8.91138614883513 6.984495062317103e-10 -6.508380371078569e-16 -2.9704620502702137 8.401735433918102 -1.2097508934101635e-09 -2.9704620492824567 -4.200867716260599 7.276116322455455" Properties=species:S:1:pos:R:3:spacegroup_kinds:I:1:forces:R:3 spacegroup="P 1" unit_cell=conventional occupancy="_JSON {\"0\": {\"In\": 1}, \"1\": {\"In\": 1}, \"2\": {\"In\": 1}, \"3\": {\"In\": 1}, \"4\": {\"In\": 1}, \"5\": {\"In\": 1}, \"6\": {\"In\": 1}, \"7\": {\"In\": 1}, \"8\": {\"In\": 1}, \"9\": {\"In\": 1}, \"10\": {\"In\": 1}, \"11\": {\"In\": 1}, \"12\": {\"In\": 1}, \"13\": {\"In\": 1}, \"14\": {\"In\": 1}, \"15\": {\"In\": 1}, \"16\": {\"O\": 1}, \"17\": {\"O\": 1}, \"18\": {\"O\": 1}, \"19\": {\"O\": 1}, \"20\": {\"O\": 1}, \"21\": {\"O\": 1}, \"22\": {\"O\": 1}, \"23\": {\"O\": 1}, \"24\": {\"O\": 1}, \"25\": {\"O\": 1}, \"26\": {\"O\": 1}, \"27\": {\"O\": 1}, \"28\": {\"O\": 1}, \"29\": {\"O\": 1}, \"30\": {\"O\": 1}, \"31\": {\"O\": 1}, \"32\": {\"O\": 1}, \"33\": {\"O\": 1}, \"34\": {\"O\": 1}, \"35\": {\"O\": 1}, \"36\": {\"O\": 1}, \"37\": {\"O\": 1}, \"38\": {\"O\": 1}, \"39\": {\"O\": 1}}" n_minim_iter=5 energy=-45151.909527623415 stress="-3.6124082565595394e-05 1.1492858944854936e-13 -1.1113023368787321e-13 1.1492858944854936e-13 -3.612408211386965e-05 5.979613218610838e-14 -1.1113023368787321e-13 5.979613218610838e-14 -3.612408221258186e-05" free_energy=-45151.909527623415 pbc="T T T"
In      -4.25505494       3.00877820       5.70281776        0       0.00117927      -0.00083387       0.00144430
In       7.22551699       1.19208952       1.57329855        1      -0.00117927       0.00083387      -0.00144430
In       1.28459289      -0.90834434       5.21135671        2      -0.00117927       0.00083387      -0.00144430
In      -1.48523103      -2.10043386       3.63805816        3      -0.00000000       0.00000000      -0.00000000
In      -1.28459289       4.05899513       3.39232763        4       0.00117927      -0.00083387      -0.00144430
In       4.65633121      -2.86690561       5.45708724        5       0.00117927       0.00166774       0.00000000
In      -1.28459289       1.33396210       5.45708724        6       0.00117927       0.00166774      -0.00000000
In      -1.68586916       7.06777334       1.81902908        7      -0.00117927      -0.00166774      -0.00000000
In       4.25505494       0.14187259       3.88378868        8      -0.00117927       0.00083387       0.00144430
In      -1.48523103       4.20086772      -0.00000000        9       0.00000000       0.00000000       0.00000000
In       4.25505494       6.44317416       0.24573052       10      -0.00117927       0.00083387       0.00144430
In      -1.28459289      -2.24230644       7.03038579       11       0.00117927      -0.00083387      -0.00144430
In       4.25505494       2.86690562       1.81902908       12      -0.00117927      -0.00166774       0.00000000
In       1.68586916       5.10921206       2.06475960       13       0.00117927      -0.00083387       0.00144430
In       4.45569307       0.00000000      -0.00000000       14      -0.00000000       0.00000000       0.00000000
In       1.48523102       2.10043386       3.63805816       15       0.00000000       0.00000000       0.00000000
O        0.87528657       4.20082734       3.95955174       16      -0.00088605       0.00026130       0.00057815
O       -2.09517548       3.42909259       5.29637542       17      -0.00088605       0.00037004      -0.00051537
O       -0.43591245       2.25581645       0.05243298       18       0.00029988      -0.00046855       0.00093710
O       -0.87528658      -0.77181551       1.97981084       19       0.00088605       0.00063134       0.00006278
O        3.93137132       5.00295542       1.92737786       20       0.00064423      -0.00009031      -0.00087432
O        2.00955278       2.93275338       1.65831726       21      -0.00064423       0.00071203      -0.00051537
O        2.00955277       6.27106976       0.26906060       22      -0.00064423      -0.00080234      -0.00035895
O       -2.27210830       5.96034496       3.69049114       23       0.00054171      -0.00012655       0.00093710
O        3.40637450       1.94505127       7.22368334       24      -0.00029988       0.00046855      -0.00093710
O        5.24257035      -1.75947724       3.58562518       25      -0.00054171       0.00012655      -0.00093710
O        6.37683655       3.27375038       1.71068029       26      -0.00029988       0.00057728       0.00087432
O        3.66881580       2.31632046       3.90711876       27       0.00054171       0.00087483      -0.00035895
O        0.69835375       4.32593774       6.95462273       28       0.00054171      -0.00074828      -0.00057815
O        2.27210830      -0.12507002       0.32149358       29      -0.00054171       0.00074828       0.00057815
O       -3.40637450       0.92711734       5.56543602       30       0.00029988      -0.00057728      -0.00087432
O        5.06563752       0.77177513       1.97974090       31       0.00088605      -0.00037004       0.00051537
O        0.96090927       1.26811434       5.61779906       32       0.00064423      -0.00071203       0.00051537
O        3.40637450      -1.01793392       5.61786900       33      -0.00029988      -0.00104582       0.00006278
O        2.09517547       0.00004038       3.31656457       34       0.00088605      -0.00026130      -0.00057815
O        0.96090927      -2.07020204       7.00705572       35       0.00064423       0.00080234       0.00035895
O       -0.69835375       1.88454726       3.36899755       36      -0.00054171      -0.00087483       0.00035895
O       -0.96090927      -0.80208770       5.34873846       37      -0.00064423       0.00009031       0.00087432
O       -0.43591245       5.21880164       1.65824731       38       0.00029988       0.00104582      -0.00006278
O        3.84574862       4.97268323       5.29630547       39      -0.00088605      -0.00063134      -0.00006278
