40
Lattice="8.919011298456958 6.990497645800596e-10 2.0783695020354568e-15 -2.973003766811389 8.408924493924784 -1.210790865438555e-09 -2.9730037658227815 -4.20446224626334 7.2823422310512615" Properties=species:S:1:pos:R:3:spacegroup_kinds:I:1:forces:R:3 spacegroup="P 1" unit_cell=conventional occupancy="_JSON {\"0\": {\"In\": 1}, \"1\": {\"In\": 1}, \"2\": {\"In\": 1}, \"3\": {\"In\": 1}, \"4\": {\"In\": 1}, \"5\": {\"In\": 1}, \"6\": {\"In\": 1}, \"7\": {\"In\": 1}, \"8\": {\"In\": 1}, \"9\": {\"In\": 1}, \"10\": {\"In\": 1}, \"11\": {\"In\": 1}, \"12\": {\"In\": 1}, \"13\": {\"In\": 1}, \"14\": {\"In\": 1}, \"15\": {\"In\": 1}, \"16\": {\"O\": 1}, \"17\": {\"O\": 1}, \"18\": {\"O\": 1}, \"19\": {\"O\": 1}, \"20\": {\"O\": 1}, \"21\": {\"O\": 1}, \"22\": {\"O\": 1}, \"23\": {\"O\": 1}, \"24\": {\"O\": 1}, \"25\": {\"O\": 1}, \"26\": {\"O\": 1}, \"27\": {\"O\": 1}, \"28\": {\"O\": 1}, \"29\": {\"O\": 1}, \"30\": {\"O\": 1}, \"31\": {\"O\": 1}, \"32\": {\"O\": 1}, \"33\": {\"O\": 1}, \"34\": {\"O\": 1}, \"35\": {\"O\": 1}, \"36\": {\"O\": 1}, \"37\": {\"O\": 1}, \"38\": {\"O\": 1}, \"39\": {\"O\": 1}}" n_minim_iter=6 energy=-45151.91694706089 stress="0.002404654954847792 1.1116952247395919e-18 -2.6020852139652106e-18 1.1116952247395919e-18 0.0024046549548477993 2.3852447794681098e-18 -2.6020852139652106e-18 2.3852447794681098e-18 0.0024046549548477868" pbc="T T T"
In      -4.25495230       3.00870562       5.71228234        0      -0.01585574       0.01119716      -0.01940720
In       7.22795606       1.19575662       1.57005989        1       0.01585574      -0.01119716       0.01940720
In       1.28194853      -0.90647450       5.21123101        2       0.01585651      -0.01118713       0.01942186
In      -1.48650188      -2.10223113       3.64117112        3       0.00000000       0.00000000       0.00000000
In      -1.28194853       4.05982118       3.39064545        4      -0.01580509       0.01118456       0.01943368
In       4.66405900      -2.86406456       5.46175668        5      -0.01587399      -0.02243725       0.00001286
In      -1.28194853       1.34039768       5.46175668        6      -0.01582797      -0.02240999       0.00000566
In      -1.69105524       7.06852681       1.82058556        7       0.01587399       0.02243725      -0.00001286
In       4.25495230       0.14464106       3.89169679        8       0.01580509      -0.01118456      -0.01943368
In      -1.48650188       4.20446224       0.00000000        9       0.00000000       0.00000000       0.00000000
In       4.25495230       6.45133443       0.25052567       10       0.01583620      -0.01122698      -0.01942546
In      -1.28194853      -2.24687219       7.03181657       11      -0.01583620       0.01122698       0.01942546
In       4.25495230       2.86406456       1.82058556       12       0.01582797       0.02240999      -0.00000566
In       1.69105523       5.11093675       2.07111123       13      -0.01585651       0.01118713      -0.01942186
In       4.45950565      -0.00000000       0.00000000       14       0.00000000       0.00000000       0.00000000
In       1.48650188       2.10223112       3.64117112       15       0.00000000       0.00000000       0.00000000
O        0.87917078       4.20464138       3.96562769       16      -0.00418910       0.00621590      -0.02057166
O       -2.09383298       3.43424475       5.29937326       17      -0.00418653      -0.02093649       0.00489641
O       -0.43294221       2.25981762       0.05119849       18      -0.01525667      -0.01310517      -0.00865742
O       -0.87917078      -0.77003837       1.98265871       19       0.00419193      -0.01469848      -0.01568502
O        3.93578133       5.00406007       1.93146022       20      -0.01834302       0.00969512      -0.00702528
O        2.01022620       2.93156754       1.65820214       21       0.01833968       0.01092539       0.00489487
O        2.01022620       6.27695478       0.27325808       22       0.01834097      -0.00123207      -0.01191501
O       -2.27489055       5.96160265       3.69236961       23       0.00726954       0.01875748      -0.00865973
O        3.40594597       1.94464463       7.23114374       24       0.01525667       0.01310517       0.00865742
O        5.24789432      -1.75714041       3.58997263       25      -0.00726954      -0.01875748       0.00865973
O        6.37894974       3.27647912       1.70971090       26       0.01525718      -0.01406008       0.00701346
O        3.67111698       2.31911567       3.91442920       27       0.00726182      -0.01688109      -0.01191192
O        0.69811321       4.33266841       6.95788566       28       0.00726902      -0.00187948       0.02057268
O        2.27489055      -0.12820617       0.32445657       29      -0.00726902       0.00187948      -0.02057268
O       -3.40594597       0.92798312       5.57263134       30      -0.01525718       0.01406008      -0.00701346
O        5.06683675       0.77021749       1.98296898       31       0.00418653       0.02093649      -0.00489641
O        0.96277756       1.27289470       5.62414009       32      -0.01833968      -0.01092539      -0.00489487
O        3.40594597      -1.01666151       5.62382983       33       0.01525590       0.00095362      -0.01567756
O        2.09383298      -0.00017913       3.31671455       34       0.00418910      -0.00621590       0.02057166
O        0.96277756      -2.07249253       7.00908415       35      -0.01834097       0.00123207       0.01191501
O       -0.69811322       1.88534657       3.36791304       36      -0.00726182       0.01688109       0.01191192
O       -0.96277756      -0.79959783       5.35088201       37       0.01834302      -0.00969512       0.00702528
O       -0.43294221       5.22112375       1.65851241       38      -0.01525590      -0.00095362       0.01567756
O        3.85217455       4.97450061       5.29968352       39      -0.00419193       0.01469848       0.01568502
