40
Lattice="4.8154199289641655 -3.175463035169998e-42 0.0 -2.0738032426952032e-42 4.773972150887104 0.0 0.0 0.0 15.118708398054299" Properties=species:S:1:pos:R:3:spacegroup_kinds:I:1:forces:R:3 spacegroup="P 1" unit_cell=conventional occupancy="_JSON {\"0\": {\"In\": 1}, \"1\": {\"In\": 1}, \"2\": {\"In\": 1}, \"3\": {\"In\": 1}, \"4\": {\"In\": 1}, \"5\": {\"In\": 1}, \"6\": {\"In\": 1}, \"7\": {\"In\": 1}, \"8\": {\"In\": 1}, \"9\": {\"In\": 1}, \"10\": {\"In\": 1}, \"11\": {\"In\": 1}, \"12\": {\"In\": 1}, \"13\": {\"In\": 1}, \"14\": {\"In\": 1}, \"15\": {\"In\": 1}, \"16\": {\"O\": 1}, \"17\": {\"O\": 1}, \"18\": {\"O\": 1}, \"19\": {\"O\": 1}, \"20\": {\"O\": 1}, \"21\": {\"O\": 1}, \"22\": {\"O\": 1}, \"23\": {\"O\": 1}, \"24\": {\"O\": 1}, \"25\": {\"O\": 1}, \"26\": {\"O\": 1}, \"27\": {\"O\": 1}, \"28\": {\"O\": 1}, \"29\": {\"O\": 1}, \"30\": {\"O\": 1}, \"31\": {\"O\": 1}, \"32\": {\"O\": 1}, \"33\": {\"O\": 1}, \"34\": {\"O\": 1}, \"35\": {\"O\": 1}, \"36\": {\"O\": 1}, \"37\": {\"O\": 1}, \"38\": {\"O\": 1}, \"39\": {\"O\": 1}}" n_minim_iter=40 energy=-45174.53407266688 stress="0.00017657939392608623 3.0489616714935437e-13 2.823000265254691e-16 3.0489616714935437e-13 0.00018054173710662123 2.918894429852084e-13 2.823000265254691e-16 2.918894429852084e-13 0.00037796365689652826" free_energy=-45174.53407266688 pbc="T T T"
In       2.48638199       3.93809420       8.65349253        0       0.00051320       0.00391213       0.00228532
In       0.07867203       3.22286403       6.46521587        1       0.00051320      -0.00391213      -0.00228532
In       2.32903794       1.55110812      14.02457007        2      -0.00051320       0.00391213      -0.00228532
In       4.73674790       0.83587795       1.09413833        3      -0.00051320      -0.00391213       0.00228532
In       2.32903794       0.83587795       6.46521587        4      -0.00051320      -0.00391213      -0.00228532
In       4.73674790       1.55110812       8.65349253        5      -0.00051320       0.00391213       0.00228532
In       2.48638199       3.22286403       1.09413833        6       0.00051320      -0.00391213       0.00228532
In       0.07867203       3.93809420      14.02457007        7       0.00051320       0.00391213      -0.00228532
In       2.51499427       3.58825528      12.51533183        8       0.00134857       0.00203774      -0.00067127
In       4.92270423       3.57270294       2.60337657        9       0.00134857      -0.00203774       0.00067127
In       2.30042566       1.20126921      10.16273077       10      -0.00134857       0.00203774       0.00067127
In      -0.10728431       1.18571687       4.95597763       11      -0.00134857      -0.00203774      -0.00067127
In       2.30042566       1.18571687       2.60337657       12      -0.00134857      -0.00203774       0.00067127
In      -0.10728431       1.20126921      12.51533183       13      -0.00134857       0.00203774      -0.00067127
In       2.51499427       3.57270294       4.95597763       14       0.00134857      -0.00203774      -0.00067127
In       4.92270423       3.58825528      10.16273077       15       0.00134857       0.00203774       0.00067127
O        4.02183932       4.44875771      11.64656284       16      -0.00674701       0.00359892       0.00374384
O        1.61412936       2.71220052       3.47214556       17      -0.00674701      -0.00359892      -0.00374384
O        0.79358060       2.06177163      11.03149975       18       0.00674701       0.00359892      -0.00374384
O        3.20129057       0.32521444       4.08720864       19       0.00674701      -0.00359892       0.00374384
O        0.79358060       0.32521444       3.47214556       20       0.00674701      -0.00359892      -0.00374384
O        3.20129057       2.06177163      11.64656284       21       0.00674701       0.00359892       0.00374384
O        4.02183932       2.71220052       4.08720864       22      -0.00674701      -0.00359892       0.00374384
O        1.61412936       4.44875771      11.03149975       23      -0.00674701       0.00359892      -0.00374384
O        3.36587297       2.53609818       9.46936952       24      -0.00665406      -0.00273231       0.00165282
O        0.95816300       4.62486005       5.64933888       25      -0.00665406       0.00273231      -0.00165282
O        1.44954696       0.14911210      13.20869307       26       0.00665406      -0.00273231      -0.00165282
O        3.85725693       2.23787398       1.91001532       27       0.00665406       0.00273231       0.00165282
O        1.44954696       2.23787398       5.64933888       28       0.00665406       0.00273231      -0.00165282
O        3.85725693       0.14911210       9.46936952       29       0.00665406      -0.00273231       0.00165282
O        3.36587297       4.62486005       1.91001532       30      -0.00665406       0.00273231       0.00165282
O        0.95816300       2.53609818      13.20869307       31      -0.00665406      -0.00273231      -0.00165282
O        3.26509002       3.16344042      14.38721105       32      -0.00279804      -0.00681805      -0.00719711
O        0.85738005       3.99751781       0.73149735       33      -0.00279804       0.00681805       0.00719711
O        1.55032991       0.77645434       8.29085155       34       0.00279804      -0.00681805       0.00719711
O        3.95803988       1.61053173       6.82785685       35       0.00279804       0.00681805      -0.00719711
O        1.55032991       1.61053173       0.73149735       36       0.00279804       0.00681805       0.00719711
O        3.95803988       0.77645434      14.38721105       37       0.00279804      -0.00681805      -0.00719711
O        3.26509002       3.99751781       6.82785685       38      -0.00279804       0.00681805      -0.00719711
O        0.85738005       3.16344042       8.29085155       39      -0.00279804      -0.00681805       0.00719711
