40
Lattice="8.91968234 0.0 0.0 -2.9732274460075483 8.409557158424889 0.0 -2.9732274460075483 -4.204778577814244 7.282890134580483" Properties=species:S:1:pos:R:3:spacegroup_kinds:I:1:forces:R:3 spacegroup="P 1" unit_cell=conventional occupancy="_JSON {\"0\": {\"In\": 1}, \"1\": {\"In\": 1}, \"2\": {\"In\": 1}, \"3\": {\"In\": 1}, \"4\": {\"In\": 1}, \"5\": {\"In\": 1}, \"6\": {\"In\": 1}, \"7\": {\"In\": 1}, \"8\": {\"In\": 1}, \"9\": {\"In\": 1}, \"10\": {\"In\": 1}, \"11\": {\"In\": 1}, \"12\": {\"In\": 1}, \"13\": {\"In\": 1}, \"14\": {\"In\": 1}, \"15\": {\"In\": 1}, \"16\": {\"O\": 1}, \"17\": {\"O\": 1}, \"18\": {\"O\": 1}, \"19\": {\"O\": 1}, \"20\": {\"O\": 1}, \"21\": {\"O\": 1}, \"22\": {\"O\": 1}, \"23\": {\"O\": 1}, \"24\": {\"O\": 1}, \"25\": {\"O\": 1}, \"26\": {\"O\": 1}, \"27\": {\"O\": 1}, \"28\": {\"O\": 1}, \"29\": {\"O\": 1}, \"30\": {\"O\": 1}, \"31\": {\"O\": 1}, \"32\": {\"O\": 1}, \"33\": {\"O\": 1}, \"34\": {\"O\": 1}, \"35\": {\"O\": 1}, \"36\": {\"O\": 1}, \"37\": {\"O\": 1}, \"38\": {\"O\": 1}, \"39\": {\"O\": 1}}" bulk_struct_test=bulk_In2O3_Ia3 vacancies=inequivalent n_minim_iter=3 energy=-45151.91838681532 stress="0.0024808620420002972 0.0 0.0 0.0 0.0024808620420002972 0.0 0.0 0.0 0.0024817801996768335" pbc="T T T"
In      -4.25899198       3.01156033       5.70815900        0       0.00031213      -0.00029645       0.00045663
In       7.23221943       1.19321825       1.57473114        1      -0.00031213       0.00029645      -0.00045663
In       1.28576228      -0.90917215       5.21618003        2      -0.00033887       0.00038232      -0.00048105
In      -1.48661372      -2.10238929       3.64144507        3       0.00000000       0.00000000       0.00000000
In      -1.28576372       4.06275917       3.39545584        4       0.00047668      -0.00039235      -0.00047565
In       4.66069338      -2.86953907       5.46216495        5       0.00033553       0.00048517       0.00009950
In      -1.28576844       1.33524136       5.46216952        6       0.00051756       0.00052296      -0.00004988
In      -1.68746593       7.07431765       1.82072518        7      -0.00033553      -0.00048517      -0.00009950
In       4.25899116       0.14201942       3.88743429        8      -0.00047668       0.00039235       0.00047565
In      -1.48661372       4.20477858       0.00000000        9       0.00000000       0.00000000       0.00000000
In       4.25899066       6.44919093       0.24599296       10      -0.00034761       0.00023808       0.00035224
In      -1.28576322      -2.24441235       7.03689718       11       0.00034761      -0.00023808      -0.00035224
In       4.25899588       2.86953723       1.82072061       12      -0.00051756      -0.00052296       0.00004988
In       1.68746517       5.11395073       2.06671010       13       0.00033887      -0.00038232       0.00048105
In       4.45984117       0.00000000       0.00000000       14       0.00000000       0.00000000       0.00000000
In       1.48661372       2.10238929       3.64144507       15       0.00000000       0.00000000       0.00000000
O        0.87561762       4.20488570       3.96241162       16       0.00215613       0.00304470       0.00582921
O       -2.09761293       3.43148712       5.30158777       17       0.00218312       0.00362397      -0.00548442
O       -0.43708301       2.25731917       0.05242367       18       0.00686279       0.00026457       0.00024374
O       -0.87561160      -0.77317212       1.98110128       19      -0.00221321       0.00648612       0.00043477
O        3.93444248       5.00821645       1.92868053       20       0.00267652      -0.00634188       0.00014347
O        2.01200632       2.93620483       1.66014512       21      -0.00259707      -0.00323239      -0.00554458
O        2.01201304       6.27678520       0.26854252       22      -0.00268012      -0.00307324       0.00556207
O       -2.27390965       5.96681605       3.69386467       23       0.00197718      -0.00656377       0.00031290
O        3.41031045       1.94745941       7.23046647       24      -0.00686279      -0.00026457      -0.00024374
O        5.24713710      -1.76203746       3.58902546       25      -0.00197718       0.00656377      -0.00031290
O        6.38353895       3.27644441       1.71275974       26      -0.00685688       0.00040135      -0.00007430
O        3.67253250       2.31796590       3.90998851       27       0.00215613       0.00351007       0.00557158
O        0.69931313       4.32955330       6.96192636       28       0.00203503       0.00309587      -0.00585363
O        2.27391431      -0.12477472       0.32096378       29      -0.00203503      -0.00309587       0.00585363
O       -3.41031150       0.92833417       5.57013040       30       0.00685688      -0.00040135       0.00007430
O        5.07084038       0.77329146       1.98130237       31      -0.00218312      -0.00362397       0.00548442
O        0.96122113       1.26857375       5.62274502       32       0.00259707       0.00323239       0.00554458
O        3.41031171      -1.01912638       5.62255292       33      -0.00688953      -0.00012830       0.00035044
O        2.09760983      -0.00010712       3.32047851       34      -0.00215613      -0.00304470      -0.00582921
O        0.96121441      -2.07200662       7.01434761       35       0.00268012       0.00307324      -0.00556207
O       -0.69930505       1.88681268       3.37290163       36      -0.00215613      -0.00351007      -0.00557158
O       -0.96121503      -0.80343787       5.35420961       37      -0.00267652       0.00634188      -0.00014347
O       -0.43708427       5.22390496       1.66033721       38       0.00688953       0.00012830      -0.00035044
O        3.84883904       4.97795070       5.30178885       39       0.00221321      -0.00648612      -0.00043477
