1
Lattice="3.8533860170467 0.6445982802773138 -3.864172118017166e-10 0.9097446408041193 3.7995335803010972 -8.116951529400015e-10 -2.381565328780348 -2.2220659298630374 2.157466182214853" Properties=species:S:1:pos:R:3:spacegroup_kinds:I:1:forces:R:3 spacegroup="P 1" unit_cell=conventional occupancy="_JSON {\"0\": {\"In\": 1}}" n_minim_iter=7 energy=-1970.3403642138821 stress="-0.002516379262830127 -0.0006892258671272224 1.676436727269798e-13 -0.0006892258671272224 -0.0024207475998068457 1.564321839430739e-13 1.676436727269798e-13 1.564321839430739e-13 -0.0017776809163987206" free_energy=-1970.3403642138821 pbc="T T T"
In       0.00000000       0.00000000       0.00000000        0       0.00000000      -0.00000000      -0.00000000
