10
Lattice="6.369526429955636 0.08670280997826921 0.05986707194452433 3.5675822810832436 5.2773801252953545 0.05986707194452928 3.567582281083251 1.9257922792858801 4.913822254641331" Properties=species:S:1:pos:R:3:spacegroup_kinds:I:1:forces:R:3 spacegroup="P 1" unit_cell=conventional occupancy="_JSON {\"0\": {\"In\": 1}, \"1\": {\"In\": 1}, \"2\": {\"In\": 1}, \"3\": {\"In\": 1}, \"4\": {\"O\": 1}, \"5\": {\"O\": 1}, \"6\": {\"O\": 1}, \"7\": {\"O\": 1}, \"8\": {\"O\": 1}, \"9\": {\"O\": 1}}" n_minim_iter=6 energy=-11285.970250309132 stress="0.1067860887404431 -1.328394216983301e-06 -9.172370977535024e-07 -1.328394216983301e-06 0.10678783255814095 -4.951278909491647e-07 -9.172370977535024e-07 -4.951278909491647e-07 0.1067882077496097" free_energy=-11285.970250309132 pbc="T T T"
In      11.48329729       6.19872046       4.28012937        0      -0.00011829      -0.00006385      -0.00004409
In       8.77373921       4.73609238       3.27020523        1       0.00011829       0.00006385       0.00004409
In       4.73095179       2.55378285       1.76335117        2      -0.00011829      -0.00006385      -0.00004409
In       2.02139372       1.09115477       0.75342703        3       0.00011829       0.00006385       0.00004409
O        6.56093597       2.55087691       0.29618558        4       0.00000000       0.00024436      -0.00035389
O        7.77201630       5.56547255       1.31825617        5      -0.00020428       0.00037844      -0.00000000
O        8.91743792       2.45281078       2.75309671        6       0.00020428      -0.00013408      -0.00035389
O        4.58725308       4.83706445       2.28045969        7      -0.00020428       0.00013408       0.00035389
O        6.94375503       4.73899832       4.73737082        8       0.00000000      -0.00024436       0.00035389
O        5.73267471       1.72440268       3.71530023        9       0.00020428      -0.00037844       0.00000000
