10
Lattice="6.042585761758214 0.026507310655757517 0.01830292552780904 3.337859056611576 5.037086682192129 0.018302925527812857 3.3378590566115793 1.8017869509698328 4.703843218509204" Properties=species:S:1:pos:R:3:spacegroup_kinds:I:1:forces:R:3 spacegroup="P 1" unit_cell=conventional occupancy="_JSON {\"0\": {\"In\": 1}, \"1\": {\"In\": 1}, \"2\": {\"In\": 1}, \"3\": {\"In\": 1}, \"4\": {\"O\": 1}, \"5\": {\"O\": 1}, \"6\": {\"O\": 1}, \"7\": {\"O\": 1}, \"8\": {\"O\": 1}, \"9\": {\"O\": 1}}" n_minim_iter=6 energy=-11287.53997914513 stress="0.04159923498075848 -1.837634563109912e-06 -1.2688616469457642e-06 -1.837634563109912e-06 0.04160164728764774 -6.849359017441574e-07 -1.2688616469457642e-06 -6.849359017441574e-07 0.04160216631088948" free_energy=-11287.53997914513 pbc="T T T"
In      10.87671319       5.87128443       4.05403939        0       0.00016691       0.00009010       0.00006221
In       8.20074263       4.42678700       3.05663422        1      -0.00016691      -0.00009010      -0.00006221
In       4.51756125       2.43859396       1.68381486        2       0.00016691       0.00009010       0.00006221
In       1.84159070       0.99409653       0.68640968        3      -0.00016691      -0.00009010      -0.00006221
O        6.20086885       2.38032252       0.25184973        4      -0.00000000       0.00006757      -0.00009786
O        7.32579019       5.25593213       1.20341520        5      -0.00005649       0.00010465       0.00000000
O        8.41380658       2.27342610       2.60377134        6       0.00005649      -0.00003708      -0.00009786
O        4.30449731       4.59195485       2.13667773        7      -0.00005649       0.00003708       0.00009786
O        6.51743503       4.48505843       4.48859934        8       0.00000000      -0.00006757       0.00009786
O        5.39251370       1.60944882       3.53703388        9       0.00005649      -0.00010465       0.00000000
