10
Lattice="5.08624911895635 -0.2695432037941652 -0.1861157946063008 2.565596542679476 4.4000338656636435 -0.1861157946062911 2.5655965426794776 1.3849171860317755 4.180543205831347" Properties=species:S:1:pos:R:3:spacegroup_kinds:I:1:forces:R:3 spacegroup="P 1" unit_cell=conventional occupancy="_JSON {\"0\": {\"In\": 1}, \"1\": {\"In\": 1}, \"2\": {\"In\": 1}, \"3\": {\"In\": 1}, \"4\": {\"O\": 1}, \"5\": {\"O\": 1}, \"6\": {\"O\": 1}, \"7\": {\"O\": 1}, \"8\": {\"O\": 1}, \"9\": {\"O\": 1}}" n_minim_iter=7 energy=-11283.030092478375 stress="-0.36660984277271513 -0.00011511762525003506 -7.948710431785577e-05 -0.00011511762525003506 -0.3664587251152822 -4.290739095351753e-05 -7.948710431785577e-05 -4.290739095351753e-05 -0.3664262112081605" free_energy=-11283.030092478375 pbc="T T T"
In       8.90378775       4.80629299       3.31867777        0       0.00320357       0.00172930       0.00119405
In       6.42237554       3.46681878       2.39378965        1      -0.00320357      -0.00172930      -0.00119405
In       3.79506665       2.04858907       1.41452196        2       0.00320357       0.00172930       0.00119405
In       1.31365444       0.70911485       0.48963384        3      -0.00320357      -0.00172930      -0.00119405
O        5.09748510       1.88996776      -0.07638990        4       0.00000000      -0.00298090       0.00431710
O        5.84031829       4.44439721       0.76596211        5       0.00249205      -0.00461658       0.00000000
O        6.92024846       1.58212643       2.01388170        6      -0.00249205       0.00163568       0.00431710
O        3.29719373       3.93328142       1.79442991        7       0.00249205      -0.00163568      -0.00431710
O        5.11995709       3.62544009       3.88470151        8       0.00000000       0.00298090      -0.00431710
O        4.37712390       1.07101063       3.04234951        9      -0.00249205       0.00461658      -0.00000000
