10
Lattice="6.250624054346766 0.09861147429540056 0.06808983731529175 3.5122936528068807 5.171442602223637 0.06808983731528927 3.5122936528068767 1.8959473016292996 4.811843580529596" Properties=species:S:1:pos:R:3:spacegroup_kinds:I:1:forces:R:3 spacegroup="P 1" unit_cell=conventional occupancy="_JSON {\"0\": {\"In\": 1}, \"1\": {\"In\": 1}, \"2\": {\"In\": 1}, \"3\": {\"In\": 1}, \"4\": {\"O\": 1}, \"5\": {\"O\": 1}, \"6\": {\"O\": 1}, \"7\": {\"O\": 1}, \"8\": {\"O\": 1}, \"9\": {\"O\": 1}}" n_minim_iter=6 energy=-11286.919483082385 stress="0.08159239665195046 -4.468043432384584e-06 -3.085122068603231e-06 -4.468043432384584e-06 0.08159826195875247 -1.6653585767737827e-06 -3.085122068603231e-06 -1.6653585767737827e-06 0.08159952391734614" free_energy=-11286.919483082385 pbc="T T T"
In      11.29492752       6.09703786       4.20991896        0      -0.00017809      -0.00009613      -0.00006638
In       8.61788953       4.65196422       3.21211593        1       0.00017809       0.00009613       0.00006638
In       4.65732184       2.51403717       1.73590733        2      -0.00017809      -0.00009613      -0.00006638
In       1.98028385       1.06896353       0.73810430        3       0.00017809       0.00009613       0.00006638
O        6.44411487       2.49565023       0.32266917        4      -0.00000000       0.00014831      -0.00021479
O        7.65280873       5.44069882       1.30509565        5      -0.00012399       0.00022969      -0.00000000
O        8.74771467       2.42945245       2.72859096        6       0.00012399      -0.00008138      -0.00021479
O        4.52749670       4.73654894       2.21943230        7      -0.00012399       0.00008138       0.00021479
O        6.83109650       4.67035116       4.62535409        8      -0.00000000      -0.00014831       0.00021479
O        5.62240264       1.72530257       3.64292761        9       0.00012399      -0.00022969       0.00000000
