10
Lattice="5.98171118304088 0.012113649523102185 0.008364304775037862 3.2924226729463175 4.994093347194275 0.008364304775027073 3.2924226729463184 1.7772602463370815 4.667160200686744" Properties=species:S:1:pos:R:3:spacegroup_kinds:I:1:forces:R:3 spacegroup="P 1" unit_cell=conventional occupancy="_JSON {\"0\": {\"In\": 1}, \"1\": {\"In\": 1}, \"2\": {\"In\": 1}, \"3\": {\"In\": 1}, \"4\": {\"O\": 1}, \"5\": {\"O\": 1}, \"6\": {\"O\": 1}, \"7\": {\"O\": 1}, \"8\": {\"O\": 1}, \"9\": {\"O\": 1}}" n_minim_iter=6 energy=-11287.645503850083 stress="0.02276962050681497 -1.1901000919930524e-06 -8.217464453629486e-07 -1.1901000919930524e-06 0.022771182779776647 -4.4358163664178036e-07 -8.217464453629486e-07 -4.4358163664178036e-07 0.022771518911929804" free_energy=-11287.645503850083 pbc="T T T"
In      10.76290572       5.80985080       4.01162033        0       0.00001406       0.00000759       0.00000524
In       8.08692908       4.36535008       3.01421289        1      -0.00001406      -0.00000759      -0.00000524
In       4.47962746       2.41811717       1.66967593        2       0.00001406       0.00000759       0.00000524
In       1.80365082       0.97361646       0.67226848        3      -0.00001406      -0.00000759      -0.00000524
O        6.13249473       2.35269232       0.23267511        4       0.00000000      -0.00001302       0.00001886
O        7.23466021       5.20682998       1.17933651        5       0.00001089      -0.00002017       0.00000000
O        8.32275193       2.23346277       2.56625521        6      -0.00001089       0.00000715       0.00001886
O        4.24380461       4.55000448       2.11763361        7       0.00001089      -0.00000715      -0.00001886
O        6.43406181       4.43077493       4.45121371        8       0.00000000       0.00001302      -0.00001886
O        5.33189633       1.57663727       3.50455231        9      -0.00001089       0.00002017      -0.00000000
