10
Lattice="6.407153260628821 0.08165340511743496 0.05638052884222363 3.5840076174249362 5.311607062085247 0.05638052884221442 3.584007617424933 1.9346587281633825 4.947064174999922" Properties=species:S:1:pos:R:3:spacegroup_kinds:I:1:forces:R:3 spacegroup="P 1" unit_cell=conventional occupancy="_JSON {\"0\": {\"In\": 1}, \"1\": {\"In\": 1}, \"2\": {\"In\": 1}, \"3\": {\"In\": 1}, \"4\": {\"O\": 1}, \"5\": {\"O\": 1}, \"6\": {\"O\": 1}, \"7\": {\"O\": 1}, \"8\": {\"O\": 1}, \"9\": {\"O\": 1}}" n_minim_iter=5 energy=-11285.602095138924 stress="0.11207574938247036 -0.000191633304960661 -0.0001323201038636968 -0.000191633304960661 0.1123273109917676 -7.142681372949559e-05 -0.0001323201038636968 -7.142681372949559e-05 0.11238143604927489" free_energy=-11285.602095138924 pbc="T T T"
In      11.53725110       6.22784490       4.30023939        0      -0.00721133      -0.00389270      -0.00268785
In       8.82550165       4.76403391       3.28949847        1       0.00721133       0.00389270       0.00268785
In       4.74966686       2.56388530       1.77032677        2      -0.00721133      -0.00389270      -0.00268785
In       2.03791740       1.10007431       0.75958585        3       0.00721133       0.00389270       0.00268785
O        6.59736876       2.57088163       0.28215551        4       0.00000000      -0.00550273       0.00796935
O        7.80577828       5.60973423       1.32133684        5       0.00460031      -0.00852219       0.00000000
O        8.97296685       2.45708680       2.75568760        6      -0.00460031       0.00301947       0.00796935
O        4.60220165       4.87083241       2.30413764        7       0.00460031      -0.00301947      -0.00796935
O        6.97779975       4.75703758       4.77766973        8       0.00000000       0.00550273      -0.00796935
O        5.76939022       1.71818497       3.73848840        9      -0.00460031       0.00852219       0.00000000
