10
Lattice="5.564355531617547 -0.05582283140106264 -0.03854488066155995 3.006615272776419 4.682460173056041 -0.03854488066155311 3.0066152727764153 1.6229805013320249 4.392363062450246" Properties=species:S:1:pos:R:3:spacegroup_kinds:I:1:forces:R:3 spacegroup="P 1" unit_cell=conventional occupancy="_JSON {\"0\": {\"In\": 1}, \"1\": {\"In\": 1}, \"2\": {\"In\": 1}, \"3\": {\"In\": 1}, \"4\": {\"O\": 1}, \"5\": {\"O\": 1}, \"6\": {\"O\": 1}, \"7\": {\"O\": 1}, \"8\": {\"O\": 1}, \"9\": {\"O\": 1}}" n_minim_iter=4 energy=-11286.940095746982 stress="-0.12241961667773345 -2.5896410013294615e-05 -1.7881110224828312e-05 -2.5896410013294615e-05 -0.12238562184295441 -9.65227868078107e-06 -1.7881110224828312e-05 -9.65227868078107e-06 -0.12237830764040901" free_energy=-11286.940095746982 pbc="T T T"
In       9.96884686       5.38121529       3.71565354        0       0.00790113       0.00426506       0.00294496
In       7.39753226       3.99321148       2.75725641        1      -0.00790113      -0.00426506      -0.00294496
In       4.18005383       2.25640637       1.55801689        2       0.00790113       0.00426506       0.00294496
In       1.60873922       0.86840256       0.59961976        3      -0.00790113      -0.00426506      -0.00294496
O        5.67657429       2.18081281       0.12350980        4      -0.00000000      -0.00447973       0.00648780
O        6.63955538       4.87669267       1.04027345        5       0.00374508      -0.00693786       0.00000000
O        7.72020847       1.99133353       2.31969134        6      -0.00374508       0.00245813       0.00648780
O        3.85737762       4.25828433       1.99558197        7       0.00374508      -0.00245813      -0.00648780
O        5.90101180       4.06880504       4.19176350        8      -0.00000000       0.00447973      -0.00648780
O        4.93803070       1.37292518       3.27499986        9      -0.00374508       0.00693786       0.00000000
