10
Lattice="6.466919236636887 0.1412931975842005 0.097560967483825 3.6666616779388064 5.328846058989015 0.09756096748381766 3.6666616779388037 1.9792756533099203 4.948594381336354" Properties=species:S:1:pos:R:3:spacegroup_kinds:I:1:forces:R:3 spacegroup="P 1" unit_cell=conventional occupancy="_JSON {\"0\": {\"In\": 1}, \"1\": {\"In\": 1}, \"2\": {\"In\": 1}, \"3\": {\"In\": 1}, \"4\": {\"O\": 1}, \"5\": {\"O\": 1}, \"6\": {\"O\": 1}, \"7\": {\"O\": 1}, \"8\": {\"O\": 1}, \"9\": {\"O\": 1}}" n_minim_iter=2 energy=-11285.129191367678 stress="0.13639292349191215 0.0004408649147504271 0.00030441102929567654 0.0004408649147504271 0.13581418959947797 0.000164322043191987 0.00030441102929567654 0.000164322043191987 0.1356896713753716" free_energy=-11285.129191367678 pbc="T T T"
In      11.79885168       6.36905772       4.39774486        0       0.00481186       0.00259746       0.00179351
In       8.90151222       4.80506466       3.31782962        1      -0.00481186      -0.00259746      -0.00179351
In       4.89873038       2.64435027       1.82588670        2       0.00481186       0.00259746       0.00179351
In       2.00139093       1.08035720       0.74597146        3      -0.00481186      -0.00259746      -0.00179351
O        6.68352027       2.60488935       0.36164268        4       0.00000000       0.00078726      -0.00114015
O        7.95514855       5.63799255       1.38349005        5      -0.00065815       0.00121924      -0.00000000
O        9.07855368       2.55395798       2.83593987        6       0.00065815      -0.00043199      -0.00114015
O        4.72168893       4.89545694       2.30777645        7      -0.00065815       0.00043199       0.00114015
O        7.11672233       4.84452558       4.78207364        8       0.00000000      -0.00078726       0.00114015
O        5.84509406       1.81142237       3.76022627        9       0.00065815      -0.00121924       0.00000000
