10
Lattice="5.174175098266002 -0.23669709347349904 -0.16343601698250523 2.641302960327269 4.4555170444451475 -0.16343601698249044 2.6413029603272715 1.4257837514286043 4.224391572658781" Properties=species:S:1:pos:R:3:spacegroup_kinds:I:1:forces:R:3 spacegroup="P 1" unit_cell=conventional occupancy="_JSON {\"0\": {\"In\": 1}, \"1\": {\"In\": 1}, \"2\": {\"In\": 1}, \"3\": {\"In\": 1}, \"4\": {\"O\": 1}, \"5\": {\"O\": 1}, \"6\": {\"O\": 1}, \"7\": {\"O\": 1}, \"8\": {\"O\": 1}, \"9\": {\"O\": 1}}" n_minim_iter=6 energy=-11284.123340137367 stress="-0.30141885414696584 6.197450628531178e-05 4.279252779209562e-05 6.197450628531178e-05 -0.301500209559525 2.309954201550549e-05 4.279252779209562e-05 2.309954201550549e-05 -0.3015177136899793" free_energy=-11284.123340137367 pbc="T T T"
In       9.11154503       4.91844103       3.39611442        0       0.00164096       0.00088580       0.00061163
In       6.57362649       3.54846452       2.45016489        1      -0.00164096      -0.00088580      -0.00061163
In       3.88315452       2.09613918       1.44735465        2       0.00164096       0.00088580       0.00061163
In       1.34523598       0.72616267       0.50140512        3      -0.00164096      -0.00088580      -0.00061163
O        5.20128280       1.94958832      -0.05853191        4      -0.00000000      -0.00080482       0.00116558
O        5.97285795       4.53773964       0.81094387        5       0.00067283      -0.00124644       0.00000000
O        7.07101060       1.64530146       2.05366387        6      -0.00067283       0.00044162       0.00116558
O        3.38577040       3.99930224       1.84385566        7       0.00067283      -0.00044162      -0.00116558
O        5.25549821       3.69501538       3.95605145        8      -0.00000000       0.00080482      -0.00116558
O        4.48392305       1.10686406       3.08657567        9      -0.00067283       0.00124644      -0.00000000
