10
Lattice="6.2807479060820235 0.08458619712671243 0.058405580513107694 3.517098066697239 5.2043222684354 0.05840558051311551 3.5170980666972453 1.8985407395510014 4.846021517268858" Properties=species:S:1:pos:R:3:spacegroup_kinds:I:1:forces:R:3 spacegroup="P 1" unit_cell=conventional occupancy="_JSON {\"0\": {\"In\": 1}, \"1\": {\"In\": 1}, \"2\": {\"In\": 1}, \"3\": {\"In\": 1}, \"4\": {\"O\": 1}, \"5\": {\"O\": 1}, \"6\": {\"O\": 1}, \"7\": {\"O\": 1}, \"8\": {\"O\": 1}, \"9\": {\"O\": 1}}" n_minim_iter=5 energy=-11286.6332006063 stress="0.09169733562371257 -4.576050515803689e-05 -3.1596986315340626e-05 -4.576050515803689e-05 0.09175740653213972 -1.7056153794240337e-05 -3.1596986315340626e-05 -1.7056153794240337e-05 0.09177033116468798" free_energy=-11286.6332006063 pbc="T T T"
In      11.33756487       6.12005363       4.22581103        0      -0.00145580      -0.00078585      -0.00054262
In       8.63485120       4.66112019       3.21843799        1       0.00145580       0.00078585       0.00054262
In       4.68009285       2.52632903       1.74439469        2      -0.00145580      -0.00078585      -0.00054262
In       1.97737918       1.06739559       0.73702165        3       0.00145580       0.00078585       0.00054262
O        6.46910997       2.50419626       0.30676195        4      -0.00000000      -0.00234095       0.00339029
O        7.67168153       5.47127985       1.29911375        5       0.00195705      -0.00362548       0.00000000
O        8.78363647       2.42350333       2.72977271        6      -0.00195705       0.00128453       0.00339029
O        4.53130758       4.76394589       2.23305997        7       0.00195705      -0.00128453      -0.00339029
O        6.84583408       4.68325295       4.65607073        8       0.00000000       0.00234095      -0.00339029
O        5.64326252       1.71616937       3.66371893        9      -0.00195705       0.00362548       0.00000000
