10
Lattice="6.197023050829651 0.04404022731863814 0.03040915811147819 3.4372597766770303 5.156576331421311 0.030409158111472802 3.4372597766770285 1.8554437762861058 4.811292193549742" Properties=species:S:1:pos:R:3:spacegroup_kinds:I:1:forces:R:3 spacegroup="P 1" unit_cell=conventional occupancy="_JSON {\"0\": {\"In\": 1}, \"1\": {\"In\": 1}, \"2\": {\"In\": 1}, \"3\": {\"In\": 1}, \"4\": {\"O\": 1}, \"5\": {\"O\": 1}, \"6\": {\"O\": 1}, \"7\": {\"O\": 1}, \"8\": {\"O\": 1}, \"9\": {\"O\": 1}}" n_minim_iter=3 energy=-11286.747855628219 stress="0.10346563334419559 -0.0001340491342113526 -9.255904329806414e-05 -0.0001340491342113526 0.10364160284106215 -4.996366640737422e-05 -9.255904329806414e-05 -4.996366640737422e-05 0.10367946378090219" free_energy=-11286.747855628219 pbc="T T T"
In      11.19008021       6.04044095       4.17083959        0       0.00126520       0.00068296       0.00047157
In       8.41723370       4.54364957       3.13732618        1      -0.00126520      -0.00068296      -0.00047157
In       4.65430891       2.51241078       1.73478434        2       0.00126520       0.00068296       0.00047157
In       1.88146240       1.01561940       0.70127092        3      -0.00126520      -0.00068296      -0.00047157
O        6.36639718       2.45022362       0.27131775        4       0.00000000      -0.00186052       0.00269451
O        7.52976224       5.39296648       1.24843679        5       0.00155540      -0.00288143      -0.00000000
O        8.64029190       2.34930240       2.67696384        6      -0.00155540       0.00102091       0.00269451
O        4.43125071       4.70675795       2.19514667        7       0.00155540      -0.00102091      -0.00269451
O        6.70514543       4.60583672       4.60079277        8      -0.00000000       0.00186052      -0.00269451
O        5.54178037       1.66309386       3.62367373        9      -0.00155540       0.00288143       0.00000000
