10
Lattice="6.233489567947141 0.08135324950233618 0.056173275607774124 3.488463623833167 5.166588051132313 0.05617327560777837 3.488463623833166 1.8830837760825678 4.811526059292444" Properties=species:S:1:pos:R:3:spacegroup_kinds:I:1:forces:R:3 spacegroup="P 1" unit_cell=conventional occupancy="_JSON {\"0\": {\"In\": 1}, \"1\": {\"In\": 1}, \"2\": {\"In\": 1}, \"3\": {\"In\": 1}, \"4\": {\"O\": 1}, \"5\": {\"O\": 1}, \"6\": {\"O\": 1}, \"7\": {\"O\": 1}, \"8\": {\"O\": 1}, \"9\": {\"O\": 1}}" n_minim_iter=3 energy=-11286.910827865246 stress="0.07976980897675395 6.469247794026315e-05 4.466924683977437e-05 6.469247794026315e-05 0.0796848856177559 2.4112601374498453e-05 4.466924683977437e-05 2.4112601374498453e-05 0.07966661382425326" free_energy=-11286.910827865246 pbc="T T T"
In      11.24692806       6.07112760       4.19202829        0       0.00654163       0.00353119       0.00243824
In       8.56869717       4.62541003       3.19378063        1      -0.00654163      -0.00353119      -0.00243824
In       4.64171965       2.50561506       1.73009199        2       0.00654163       0.00353119       0.00243824
In       1.96348876       1.05989749       0.73184432        3      -0.00654163      -0.00353119      -0.00243824
O        6.41934899       2.48387950       0.30255945        4      -0.00000000      -0.00513861       0.00744202
O        7.61144416       5.42957500       1.28714143        5       0.00429590      -0.00795828       0.00000000
O        8.71571745       2.40257331       2.70832248        6      -0.00429590       0.00281967       0.00744202
O        4.49469937       4.72845178       2.21555014        7       0.00429590      -0.00281967      -0.00744202
O        6.79106783       4.64714559       4.62131317        8       0.00000000       0.00513861      -0.00744202
O        5.59897267       1.70145009       3.63673118        9      -0.00429590       0.00795828      -0.00000000
