10
Lattice="6.4008349680892795 0.07519470017420214 0.05192088383646425 3.575141122747252 5.309868970519922 0.0519208838364571 3.575141122747249 1.929872566093577 4.947018914549251" Properties=species:S:1:pos:R:3:spacegroup_kinds:I:1:forces:R:3 spacegroup="P 1" unit_cell=conventional occupancy="_JSON {\"0\": {\"In\": 1}, \"1\": {\"In\": 1}, \"2\": {\"In\": 1}, \"3\": {\"In\": 1}, \"4\": {\"O\": 1}, \"5\": {\"O\": 1}, \"6\": {\"O\": 1}, \"7\": {\"O\": 1}, \"8\": {\"O\": 1}, \"9\": {\"O\": 1}}" n_minim_iter=3 energy=-11285.604736662584 stress="0.11333875307581805 0.0002611020422913944 0.00018028729162584368 0.0002611020422913944 0.1129959981968496 9.731965457835133e-05 0.00018028729162584368 9.731965457835133e-05 0.11292225233656962" free_energy=-11285.604736662584 pbc="T T T"
In      11.52123679       6.21920032       4.29427043        0       0.00019599       0.00010580       0.00007305
In       8.80543904       4.75320404       3.28202060        1      -0.00019599      -0.00010580      -0.00007305
In       4.74567819       2.56173221       1.76884009        2       0.00019599       0.00010580       0.00007305
In       2.02988043       1.09573593       0.75659026        3      -0.00019599      -0.00010580      -0.00007305
O        6.58819679       2.56410195       0.27812567        4      -0.00000000      -0.00318301       0.00460981
O        7.79242771       5.60191837       1.31463606        5       0.00266101      -0.00492960      -0.00000000
O        8.95910700       2.44838576       2.75163513        6      -0.00266101       0.00174659       0.00460981
O        4.59201022       4.86655049       2.29922556        7       0.00266101      -0.00174659      -0.00460981
O        6.96292043       4.75083430       4.77273501        8       0.00000000       0.00318301      -0.00460981
O        5.75868952       1.71301788       3.73622463        9      -0.00266101       0.00492960      -0.00000000
