10
Lattice="5.9836375761546226 0.014047907271745347 0.009699882570342284 3.2950967760527505 4.994642451959406 0.009699882570344306 3.2950967760527496 1.7787037357118392 4.6672004811451675" Properties=species:S:1:pos:R:3:spacegroup_kinds:I:1:forces:R:3 spacegroup="P 1" unit_cell=conventional occupancy="_JSON {\"0\": {\"In\": 1}, \"1\": {\"In\": 1}, \"2\": {\"In\": 1}, \"3\": {\"In\": 1}, \"4\": {\"O\": 1}, \"5\": {\"O\": 1}, \"6\": {\"O\": 1}, \"7\": {\"O\": 1}, \"8\": {\"O\": 1}, \"9\": {\"O\": 1}}" n_minim_iter=4 energy=-11287.64724562973 stress="0.022744333859781956 -6.0861265870328285e-06 -4.2023853369132124e-06 -6.0861265870328285e-06 0.022752323263347203 -2.2684607322703003e-06 -4.2023853369132124e-06 -2.2684607322703003e-06 0.022754042234734907" free_energy=-11287.64724562973 pbc="T T T"
In      10.77283973       5.81521321       4.01532300        0       0.00134556       0.00072634       0.00050153
In       8.08790697       4.36587795       3.01457737        1      -0.00134556      -0.00072634      -0.00050153
In       4.48592417       2.42151616       1.67202288        2       0.00134556       0.00072634       0.00050153
In       1.80099141       0.97218090       0.67127725        3      -0.00134556      -0.00072634      -0.00050153
O        6.13527658       2.35799923       0.22915742        4       0.00000000      -0.00541927       0.00784849
O        7.23597175       5.21425409       1.18134995        5       0.00453054      -0.00839295       0.00000000
O        8.32967818       2.23429072       2.56275766        6      -0.00453054       0.00297367       0.00784849
O        4.24415296       4.55310339       2.12384259        7       0.00453054      -0.00297367      -0.00784849
O        6.43855456       4.42939488       4.45744283        8      -0.00000000       0.00541927      -0.00784849
O        5.33785939       1.57314002       3.50525030        9      -0.00453054       0.00839295       0.00000000
