10
Lattice="6.321705885311871 0.0816837774555822 0.05640150051492363 3.5371461673462226 5.240155964350118 0.05640150051491336 3.5371461673462177 1.9093627681413126 4.880240719432823" Properties=species:S:1:pos:R:3:spacegroup_kinds:I:1:forces:R:3 spacegroup="P 1" unit_cell=conventional occupancy="_JSON {\"0\": {\"In\": 1}, \"1\": {\"In\": 1}, \"2\": {\"In\": 1}, \"3\": {\"In\": 1}, \"4\": {\"O\": 1}, \"5\": {\"O\": 1}, \"6\": {\"O\": 1}, \"7\": {\"O\": 1}, \"8\": {\"O\": 1}, \"9\": {\"O\": 1}}" n_minim_iter=3 energy=-11286.317306266596 stress="0.10006657697352159 -0.0004695415384753773 -0.00032421183308281565 -0.0004695415384753773 0.10068295535536442 -0.0001750105810223157 -0.00032421183308281565 -0.0001750105810223157 0.1008155730264608" free_energy=-11286.317306266596 pbc="T T T"
In      11.39516298       6.15114528       4.24727938        0      -0.00079875      -0.00043117      -0.00029772
In       8.69883436       4.69565850       3.24228621        1       0.00079875       0.00043117       0.00029772
In       4.69716387       2.53554402       1.75075752        2      -0.00079875      -0.00043117      -0.00029772
In       2.00083525       1.08005725       0.74576435        3       0.00079875       0.00043117       0.00029772
O        6.50985250       2.52362305       0.29891749        4      -0.00000000       0.00017233      -0.00024958
O        7.71413850       5.51407759       1.30466243        5      -0.00014407       0.00026689       0.00000000
O        8.84271267       2.43294735       2.73903785        6       0.00014407      -0.00009456      -0.00024958
O        4.55328556       4.79825518       2.25400587        7      -0.00014407       0.00009456       0.00024958
O        6.88614573       4.70757947       4.69412623        8      -0.00000000      -0.00017233       0.00024958
O        5.68185973       1.71712493       3.68838129        9       0.00014407      -0.00026689       0.00000000
