10
Lattice="5.635691427844756 -0.03661774984531422 -0.025284041716586582 3.0618143813568497 4.731559090152322 -0.025284041716584455 3.0618143813568452 1.652777155971603 4.433578507150518" Properties=species:S:1:pos:R:3:spacegroup_kinds:I:1:forces:R:3 spacegroup="P 1" unit_cell=conventional occupancy="_JSON {\"0\": {\"In\": 1}, \"1\": {\"In\": 1}, \"2\": {\"In\": 1}, \"3\": {\"In\": 1}, \"4\": {\"O\": 1}, \"5\": {\"O\": 1}, \"6\": {\"O\": 1}, \"7\": {\"O\": 1}, \"8\": {\"O\": 1}, \"9\": {\"O\": 1}}" n_minim_iter=6 energy=-11287.278685900514 stress="-0.08597954617402206 4.739049018586078e-05 3.272246621751025e-05 4.739049018586078e-05 -0.08604175680132461 1.7663690935444164e-05 3.272246621751025e-05 1.7663690935444164e-05 -0.08605514180715662" free_energy=-11287.278685900514 pbc="T T T"
In      10.10659127       5.45557016       3.76699454        0       0.00381725       0.00206057       0.00142279
In       7.53238902       4.06600759       2.80752110        1      -0.00381725      -0.00206057      -0.00142279
In       4.22693118       2.28171092       1.57548932        2       0.00381725       0.00206057       0.00142279
In       1.65272893       0.89214834       0.61601589        3      -0.00381725      -0.00206057      -0.00142279
O        5.75767577       2.21119217       0.15250307        4       0.00000000      -0.00496002       0.00718337
O        6.75139005       4.92956468       1.07046857        5       0.00414660      -0.00768169      -0.00000000
O        7.82577586       2.04241636       2.36929233        6      -0.00414660       0.00272167       0.00718337
O        3.93354434       4.30530215       2.01371810        7       0.00414660      -0.00272167      -0.00718337
O        6.00164443       4.13652634       4.23050736        8      -0.00000000       0.00496002      -0.00718337
O        5.00793015       1.41815382       3.31254186        9      -0.00414660       0.00768169      -0.00000000
