10
Lattice="5.877464406393162 0.0036100066879552165 0.0024926588903206406 3.228111101437088 4.911608656778905 0.0024926588903208444 3.228111101437088 1.7425446551822634 4.592106699042341" Properties=species:S:1:pos:R:3:spacegroup_kinds:I:1:forces:R:3 spacegroup="P 1" unit_cell=conventional occupancy="_JSON {\"0\": {\"In\": 1}, \"1\": {\"In\": 1}, \"2\": {\"In\": 1}, \"3\": {\"In\": 1}, \"4\": {\"O\": 1}, \"5\": {\"O\": 1}, \"6\": {\"O\": 1}, \"7\": {\"O\": 1}, \"8\": {\"O\": 1}, \"9\": {\"O\": 1}}" n_minim_iter=4 energy=-11287.686681406765 stress="-1.9143655134107316e-05 1.0214395781246749e-05 7.052896827849162e-06 1.0214395781246749e-05 -3.255233617923796e-05 3.8071761884607725e-06 7.052896827849162e-06 3.8071761884607725e-06 -3.5437298213637696e-05" free_energy=-11287.686681406765 pbc="T T T"
In      10.57279539       5.70722863       3.94076117        0       0.00669827       0.00361575       0.00249662
In       7.92773453       4.27941636       2.95487686        1      -0.00669827      -0.00361575      -0.00249662
In       4.40595208       2.37834697       1.64221516        2       0.00669827       0.00361575       0.00249662
In       1.76089123       0.95053470       0.65633085        3      -0.00669827      -0.00361575      -0.00249662
O        6.02215386       2.31161216       0.21586408        4       0.00000000      -0.00000557       0.00000806
O        7.09667995       5.12154309       1.15176567        5       0.00000465      -0.00000862      -0.00000000
O        8.17573887       2.18339157       2.51191743        6      -0.00000465       0.00000305       0.00000806
O        4.15794775       4.47437176       2.08517459        7       0.00000465      -0.00000305      -0.00000806
O        6.31153276       4.34615117       4.38122794        8      -0.00000000       0.00000557      -0.00000806
O        5.23700667       1.53622024       3.44532636        9      -0.00000465       0.00000862       0.00000000
