10
Lattice="5.628522028946008 -0.04408362189850667 -0.03043912145909525 3.0516388693014984 4.72966212402308 -0.030439121459094824 3.051638869301496 1.6472843821516825 4.433631075298537" Properties=species:S:1:pos:R:3:spacegroup_kinds:I:1:forces:R:3 spacegroup="P 1" unit_cell=conventional occupancy="_JSON {\"0\": {\"In\": 1}, \"1\": {\"In\": 1}, \"2\": {\"In\": 1}, \"3\": {\"In\": 1}, \"4\": {\"O\": 1}, \"5\": {\"O\": 1}, \"6\": {\"O\": 1}, \"7\": {\"O\": 1}, \"8\": {\"O\": 1}, \"9\": {\"O\": 1}}" n_minim_iter=5 energy=-11287.28207233768 stress="-0.08673328943578794 7.971284523582556e-06 5.504059995162746e-06 7.971284523582556e-06 -0.0867437535311294 2.97110930543786e-06 5.504059995162746e-06 2.97110930543786e-06 -0.08674600494697707" free_energy=-11287.28207233768 pbc="T T T"
In      10.08411177       5.44343566       3.75861583        0      -0.00080346      -0.00043371      -0.00029947
In       7.51358789       4.05585868       2.80051342        1       0.00080346       0.00043371       0.00029947
In       4.21821189       2.27700422       1.57223941        2      -0.00080346      -0.00043371      -0.00029947
In       1.64768801       0.88942724       0.61413701        3       0.00080346       0.00043371       0.00029947
O        5.74721096       2.19944141       0.15359431        4       0.00000000      -0.00001254       0.00001815
O        6.73943559       4.91450379       1.06274909        5       0.00001048      -0.00001941      -0.00000000
O        7.80662520       2.03458479       2.37040985        6      -0.00001048       0.00000688       0.00001815
O        3.92517457       4.29827811       2.00234299        7       0.00001048      -0.00000688      -0.00001815
O        5.98458882       4.13342149       4.21915853        8       0.00000000       0.00001254      -0.00001815
O        4.99236419       1.41835911       3.31000375        9      -0.00001048       0.00001941       0.00000000
