10
Lattice="6.150190340951893 0.04208911104821182 0.029061939743778773 3.40993050273839 5.118494572596618 0.029061939743779224 3.4099305027383884 1.840691347161035 4.77615814756267" Properties=species:S:1:pos:R:3:spacegroup_kinds:I:1:forces:R:3 spacegroup="P 1" unit_cell=conventional occupancy="_JSON {\"0\": {\"In\": 1}, \"1\": {\"In\": 1}, \"2\": {\"In\": 1}, \"3\": {\"In\": 1}, \"4\": {\"O\": 1}, \"5\": {\"O\": 1}, \"6\": {\"O\": 1}, \"7\": {\"O\": 1}, \"8\": {\"O\": 1}, \"9\": {\"O\": 1}}" n_minim_iter=3 energy=-11287.066964285377 stress="0.08867340609683991 0.00010853252289998232 7.494018245629809e-05 0.00010853252289998232 0.08853093286410511 4.0452949088657727e-05 7.494018245629809e-05 4.0452949088657727e-05 0.08850027885522017" free_energy=-11287.066964285377 pbc="T T T"
In      11.10179020       5.99278171       4.13793156        0      -0.00137637      -0.00074297      -0.00051301
In       8.35328683       4.50913084       3.11349148        1       0.00137637       0.00074297       0.00051301
In       4.61676452       2.49214420       1.72079055        2      -0.00137637      -0.00074297      -0.00051301
In       1.86826116       1.00849333       0.69635047        3       0.00137637       0.00074297       0.00051301
O        6.31760801       2.43255853       0.26552194        4       0.00000000      -0.00389732       0.00564431
O        7.46981077       5.35461808       1.23763245        5       0.00325818      -0.00603586      -0.00000000
O        8.57533576       2.32889673       2.65360102        6      -0.00325818       0.00213854       0.00564431
O        4.39471560       4.67237831       2.18068102        7       0.00325818      -0.00213854      -0.00564431
O        6.65244334       4.56871651       4.56876009        8      -0.00000000       0.00389732      -0.00564431
O        5.50024059       1.64665696       3.59664958        9      -0.00325818       0.00603586       0.00000000
