10
Lattice="6.162571862850631 0.05494070318828033 0.03793578352627671 3.427468509390496 5.12179363727217 0.03793578352628255 3.4274685093904975 1.8501584190163403 4.776099141665333" Properties=species:S:1:pos:R:3:spacegroup_kinds:I:1:forces:R:3 spacegroup="P 1" unit_cell=conventional occupancy="_JSON {\"0\": {\"In\": 1}, \"1\": {\"In\": 1}, \"2\": {\"In\": 1}, \"3\": {\"In\": 1}, \"4\": {\"O\": 1}, \"5\": {\"O\": 1}, \"6\": {\"O\": 1}, \"7\": {\"O\": 1}, \"8\": {\"O\": 1}, \"9\": {\"O\": 1}}" n_minim_iter=5 energy=-11287.160389813354 stress="0.07025145942634672 -2.2794582110010353e-05 -1.5739338345684704e-05 -2.2794582110010353e-05 0.070281382418022 -8.496145714335715e-06 -1.5739338345684704e-05 -8.496145714335715e-06 0.07028782053850355" free_energy=-11287.160389813354 pbc="T T T"
In      11.11099348       5.99774967       4.14136187        0      -0.00473186      -0.00255427      -0.00176369
In       8.41526986       4.54258948       3.13659420        1       0.00473186       0.00255427       0.00176369
In       4.60223904       2.48430329       1.71537651        2      -0.00473186      -0.00255427      -0.00176369
In       1.90651542       1.02914310       0.71060885        3       0.00473186       0.00255427       0.00176369
O        6.33566316       2.43931672       0.28317490        4       0.00000000       0.00315206      -0.00456499
O        7.50171117       5.35969394       1.25092846        5      -0.00263514       0.00488166      -0.00000000
O        8.59708365       2.34979236       2.67122447        6       0.00263514      -0.00172960      -0.00456499
O        4.42042524       4.67710041       2.18074624        7      -0.00263514       0.00172960       0.00456499
O        6.68184573       4.58757605       4.56879581        8      -0.00000000      -0.00315206       0.00456499
O        5.51579772       1.66719884       3.60104225        9       0.00263514      -0.00488166      -0.00000000
