10
Lattice="6.229970666997205 0.0778429022674984 0.053749430169417994 3.483598058219184 5.165572436608605 0.053749430169411395 3.4835980582191826 1.880457328265687 4.81143511186278" Properties=species:S:1:pos:R:3:spacegroup_kinds:I:1:forces:R:3 spacegroup="P 1" unit_cell=conventional occupancy="_JSON {\"0\": {\"In\": 1}, \"1\": {\"In\": 1}, \"2\": {\"In\": 1}, \"3\": {\"In\": 1}, \"4\": {\"O\": 1}, \"5\": {\"O\": 1}, \"6\": {\"O\": 1}, \"7\": {\"O\": 1}, \"8\": {\"O\": 1}, \"9\": {\"O\": 1}}" n_minim_iter=4 energy=-11286.914215483639 stress="0.08123161581044284 -0.00026425478612419206 -0.00018246421602468227 -0.00026425478612419206 0.08157850937368294 -9.849476495712345e-05 -0.00018246421602468227 -9.849476495712345e-05 0.08165314569789334" free_energy=-11286.914215483639 pbc="T T T"
In      11.24769933       6.07154393       4.19231576        0      -0.00777997      -0.00419965      -0.00289980
In       8.54805086       4.61426508       3.18608520        1       0.00777997       0.00419965       0.00289980
In       4.64911594       2.50960760       1.73284878        2      -0.00777997      -0.00419965      -0.00289980
In       1.94946746       1.05232875       0.72661821        3       0.00777997       0.00419965       0.00289980
O        6.41427703       2.47714516       0.30473434        4       0.00000000      -0.00205619       0.00297789
O        7.60660716       5.42058184       1.28348293        5       0.00171899      -0.00318447      -0.00000000
O        8.70554496       2.39946782       2.71045190        6      -0.00171899       0.00112828       0.00297789
O        4.49162183       4.72440486       2.20848208        7       0.00171899      -0.00112828      -0.00297789
O        6.78288976       4.64672752       4.61419964        8       0.00000000       0.00205619      -0.00297789
O        5.59055963       1.70329084       3.63545105        9      -0.00171899       0.00318447      -0.00000000
