10
Lattice="5.69945831069122 -0.024364165933714033 -0.016823114212646526 3.1070487202562007 4.778144712944883 -0.016823114212641464 3.1070487202561967 1.6771947961961495 4.474144335024021" Properties=species:S:1:pos:R:3:spacegroup_kinds:I:1:forces:R:3 spacegroup="P 1" unit_cell=conventional occupancy="_JSON {\"0\": {\"In\": 1}, \"1\": {\"In\": 1}, \"2\": {\"In\": 1}, \"3\": {\"In\": 1}, \"4\": {\"O\": 1}, \"5\": {\"O\": 1}, \"6\": {\"O\": 1}, \"7\": {\"O\": 1}, \"8\": {\"O\": 1}, \"9\": {\"O\": 1}}" n_minim_iter=5 energy=-11287.51145861143 stress="-0.05397829763543742 -2.670940077590728e-06 -1.8442460983246684e-06 -2.670940077590728e-06 -0.053974791430303266 -9.955292702610027e-07 -1.8442460983246684e-06 -9.955292702610027e-07 -0.05397403704819415" free_energy=-11287.51145861143 pbc="T T T"
In      10.23020321       5.52229628       3.81306798        0       0.00006040       0.00003261       0.00002251
In       7.64013043       4.12416674       2.84767918        1      -0.00006040      -0.00003261      -0.00002251
In       4.27342533       2.30680861       1.59281893        2       0.00006040       0.00003261       0.00002251
In       1.68335255       0.90867907       0.62743013        3      -0.00006040      -0.00003261      -0.00002251
O        5.82811810       2.23764299       0.17181536        4      -0.00000000       0.00000796      -0.00001153
O        6.84485935       4.97903935       1.09330141        5      -0.00000666       0.00001233       0.00000000
O        7.91842557       2.08183516       2.40888753        6       0.00000666      -0.00000437      -0.00001153
O        3.99513019       4.34914020       2.03161058        7      -0.00000666       0.00000437       0.00001153
O        6.08543766       4.19333236       4.26868275        8      -0.00000000      -0.00000796       0.00001153
O        5.06869641       1.45193601       3.34719670        9       0.00000666      -0.00001234      -0.00000000
