10
Lattice="6.113797700553826 0.051961101835585395 0.03587841066151424 3.398214099440531 5.082653166778619 0.03587841066151593 3.3982140994405357 1.8343667953401486 4.740226675410135" Properties=species:S:1:pos:R:3:spacegroup_kinds:I:1:forces:R:3 spacegroup="P 1" unit_cell=conventional occupancy="_JSON {\"0\": {\"In\": 1}, \"1\": {\"In\": 1}, \"2\": {\"In\": 1}, \"3\": {\"In\": 1}, \"4\": {\"O\": 1}, \"5\": {\"O\": 1}, \"6\": {\"O\": 1}, \"7\": {\"O\": 1}, \"8\": {\"O\": 1}, \"9\": {\"O\": 1}}" n_minim_iter=5 energy=-11287.377408923727 stress="0.056372625305800776 -4.099674249029601e-05 -2.83076741104765e-05 -4.099674249029601e-05 0.05642644270749575 -1.5280573433433143e-05 -2.83076741104765e-05 -1.5280573433433143e-05 0.0564380218592006" free_energy=-11287.377408923727 pbc="T T T"
In      11.02299049       5.95024538       4.10856082        0      -0.00388410      -0.00209665      -0.00144771
In       8.34234837       4.50322623       3.10941443        1       0.00388410       0.00209665       0.00144771
In       4.56787754       2.46575485       1.70256907        2      -0.00388410      -0.00209665      -0.00144771
In       1.88723542       1.01873569       0.70342268        3       0.00388410       0.00209665       0.00144771
O        6.28445533       2.41873476       0.27883201        4       0.00000000       0.00330483      -0.00478624
O        7.43973367       5.31700980       1.23887429        5      -0.00276286       0.00511827      -0.00000000
O        8.52739109       2.32846076       2.64894535        6       0.00276286      -0.00181344      -0.00478624
O        4.38283482       4.64052032       2.16303815        7      -0.00276286       0.00181344       0.00478624
O        6.62577058       4.55024632       4.53315149        8       0.00000000      -0.00330483       0.00478624
O        5.47049224       1.65197127       3.57310921        9       0.00276286      -0.00511827      -0.00000000
