10
Lattice="5.49116293518897 -0.07589792226772306 -0.052406448810373735 2.949670020112876 4.632286438449692 -0.05240644881038812 2.949670020112872 1.5922412725543684 4.350355366369086" Properties=species:S:1:pos:R:3:spacegroup_kinds:I:1:forces:R:3 spacegroup="P 1" unit_cell=conventional occupancy="_JSON {\"0\": {\"In\": 1}, \"1\": {\"In\": 1}, \"2\": {\"In\": 1}, \"3\": {\"In\": 1}, \"4\": {\"O\": 1}, \"5\": {\"O\": 1}, \"6\": {\"O\": 1}, \"7\": {\"O\": 1}, \"8\": {\"O\": 1}, \"9\": {\"O\": 1}}" n_minim_iter=6 energy=-11286.44890351187 stress="-0.16383933128927827 5.6401362175480935e-05 3.894434762991985e-05 5.6401362175480935e-05 -0.1639133707022802 2.1022283052392024e-05 3.894434762991985e-05 2.1022283052392024e-05 -0.16392930074769752" free_energy=-11286.44890351187 pbc="T T T"
In       9.81927564       5.30047627       3.65990438        0      -0.00226373      -0.00122197      -0.00084375
In       7.26647883       3.92246842       2.70840932        1       0.00226373       0.00122197       0.00084375
In       4.12402416       2.22616138       1.53713315        2      -0.00226373      -0.00122197      -0.00084375
In       1.57122734       0.84815353       0.58563809        3       0.00226373       0.00122197       0.00084375
O        5.59320722       2.14578176       0.09877917        4      -0.00000000       0.00081966      -0.00118708
O        6.52750375       4.81671385       1.00897917        5      -0.00068524       0.00126943       0.00000000
O        7.60858070       1.94054025       2.27395686        6       0.00068524      -0.00044977      -0.00118708
O        3.78192228       4.20808955       1.97158562        7      -0.00068524       0.00044977       0.00118708
O        5.79729577       4.00284804       4.14676330        8      -0.00000000      -0.00081966       0.00118708
O        4.86299923       1.33191595       3.23656330        9       0.00068524      -0.00126943      -0.00000000
