10
Lattice="5.69626948410514 -0.027699729489491735 -0.019126273976665116 3.102510393683514 4.777309134611973 -0.019126273976664977 3.102510393683513 1.6747449930561182 4.4741789850470575" Properties=species:S:1:pos:R:3:spacegroup_kinds:I:1:forces:R:3 spacegroup="P 1" unit_cell=conventional occupancy="_JSON {\"0\": {\"In\": 1}, \"1\": {\"In\": 1}, \"2\": {\"In\": 1}, \"3\": {\"In\": 1}, \"4\": {\"O\": 1}, \"5\": {\"O\": 1}, \"6\": {\"O\": 1}, \"7\": {\"O\": 1}, \"8\": {\"O\": 1}, \"9\": {\"O\": 1}}" n_minim_iter=6 energy=-11287.514767648288 stress="-0.05408594920074333 1.057589824506287e-05 7.30250794022186e-06 1.057589824506287e-05 -0.05409983243228582 3.9419176897930986e-06 7.30250794022186e-06 3.9419176897930986e-06 -0.054102819496496084" free_energy=-11287.514767648288 pbc="T T T"
In      10.21777640       5.51558825       3.80843618        0      -0.00536867      -0.00289803      -0.00200105
In       7.63415902       4.12094336       2.84545348        1       0.00536867       0.00289803       0.00200105
In       4.26713126       2.30341105       1.59047296        2      -0.00536867      -0.00289803      -0.00200105
In       1.68351388       0.90876616       0.62749026        3       0.00536867       0.00289803       0.00200105
O        5.82345731       2.22841326       0.17807530        4      -0.00000000       0.00204778      -0.00296571
O        6.84286744       4.96615068       1.08985534        5      -0.00171195       0.00317144      -0.00000000
O        7.90655758       2.08052838       2.41516479        6       0.00171195      -0.00112366      -0.00296571
O        3.99473270       4.34382603       2.02076165        7      -0.00171195       0.00112366       0.00296571
O        6.07783297       4.19594115       4.25785115        8       0.00000000      -0.00204778       0.00296571
O        5.05842284       1.45820373       3.34607110        9       0.00171195      -0.00317144       0.00000000
