10
Lattice="5.181549938181732 -0.22824409115477065 -0.1575993376627674 2.652416448180017 4.457044100347481 -0.15759933766276898 2.652416448180014 1.4317828475717658 4.223751595569193" Properties=species:S:1:pos:R:3:spacegroup_kinds:I:1:forces:R:3 spacegroup="P 1" unit_cell=conventional occupancy="_JSON {\"0\": {\"In\": 1}, \"1\": {\"In\": 1}, \"2\": {\"In\": 1}, \"3\": {\"In\": 1}, \"4\": {\"O\": 1}, \"5\": {\"O\": 1}, \"6\": {\"O\": 1}, \"7\": {\"O\": 1}, \"8\": {\"O\": 1}, \"9\": {\"O\": 1}}" n_minim_iter=6 energy=-11284.160065536615 stress="-0.3000022953653442 2.4405500173792576e-05 1.685165463038711e-05 2.4405500173792576e-05 -0.30003433304762084 9.096576936041905e-06 1.685165463038711e-05 9.096576936041905e-06 -0.3000412261555232" free_energy=-11284.160065536615 pbc="T T T"
In       9.12162925       4.92388453       3.39987307        0      -0.00084736      -0.00045741      -0.00031583
In       6.60794499       3.56698976       2.46295630        1       0.00084736       0.00045741       0.00031583
In       3.87843783       2.09359310       1.44559661        2      -0.00084736      -0.00045741      -0.00031583
In       1.36475357       0.73669833       0.50867984        3       0.00084736       0.00045741       0.00031583
O        5.21237067       1.95303455      -0.04593972        4       0.00000000       0.00037522      -0.00054341
O        5.99349455       4.53932922       0.81953889        5      -0.00031368       0.00058111      -0.00000000
O        7.08366324       1.65914248       2.06593608        6       0.00031368      -0.00020589      -0.00054341
O        3.40271958       4.00144038       1.84261684        7      -0.00031368       0.00020589       0.00054341
O        5.27401215       3.70754830       3.95449264        8      -0.00000000      -0.00037522       0.00054341
O        4.49288828       1.12125364       3.08901403        9       0.00031368      -0.00058111      -0.00000000
