10
Lattice="5.295122723875102 -0.1664909030499477 -0.11495962903047333 2.7663622899122546 4.51810619205087 -0.1149596290304746 2.766362289912252 1.493291175894917 4.265745039609085" Properties=species:S:1:pos:R:3:spacegroup_kinds:I:1:forces:R:3 spacegroup="P 1" unit_cell=conventional occupancy="_JSON {\"0\": {\"In\": 1}, \"1\": {\"In\": 1}, \"2\": {\"In\": 1}, \"3\": {\"In\": 1}, \"4\": {\"O\": 1}, \"5\": {\"O\": 1}, \"6\": {\"O\": 1}, \"7\": {\"O\": 1}, \"8\": {\"O\": 1}, \"9\": {\"O\": 1}}" n_minim_iter=6 energy=-11285.057865603128 stress="-0.2490505871049539 -1.5382221476175896e-05 -1.0621207070352187e-05 -1.5382221476175896e-05 -0.24903039449710057 -5.733361683257816e-06 -1.0621207070352187e-05 -5.733361683257816e-06 -0.24902604992878744" free_energy=-11285.057865603128 pbc="T T T"
In       9.38310457       5.06502974       3.49733186        0      -0.00059799      -0.00032280      -0.00022289
In       6.85866640       3.70232997       2.55640682        1       0.00059799       0.00032280       0.00022289
In       3.96918092       2.14257650       1.47941897        2      -0.00059799      -0.00032280      -0.00022289
In       1.44474274       0.77987674       0.53849393        3       0.00059799       0.00032280       0.00022289
O        5.35452319       2.02868647       0.00908917        4       0.00000000       0.00045003      -0.00065176
O        6.19371146       4.64479578       0.89399682        5      -0.00037623       0.00069697      -0.00000000
O        7.28169721       1.76757054       2.14196169        6       0.00037623      -0.00024694      -0.00065176
O        3.54615010       4.07733593       1.89386410        7      -0.00037623       0.00024694       0.00065176
O        5.47332412       3.81622000       4.02673662        8      -0.00000000      -0.00045003       0.00065176
O        4.63413585       1.20011069       3.14182897        9       0.00037623      -0.00069697      -0.00000000
