10
Lattice="6.235357055547668 0.08344997714793709 0.05762103658389556 3.491241229841485 5.166998759812989 0.057621036583900956 3.4912412298414903 1.884583136653486 4.811397174294305" Properties=species:S:1:pos:R:3:spacegroup_kinds:I:1:forces:R:3 spacegroup="P 1" unit_cell=conventional occupancy="_JSON {\"0\": {\"In\": 1}, \"1\": {\"In\": 1}, \"2\": {\"In\": 1}, \"3\": {\"In\": 1}, \"4\": {\"O\": 1}, \"5\": {\"O\": 1}, \"6\": {\"O\": 1}, \"7\": {\"O\": 1}, \"8\": {\"O\": 1}, \"9\": {\"O\": 1}}" n_minim_iter=4 energy=-11286.919821864429 stress="0.08149697203195166 0.00012026332895726522 8.304013905198549e-05 0.00012026332895726522 0.08133909948928603 4.4825331604700633e-05 8.304013905198549e-05 4.4825331604700633e-05 0.08130513222350812" free_energy=-11286.919821864429 pbc="T T T"
In      11.26251216       6.07953994       4.19783690        0      -0.00282486      -0.00152487      -0.00105290
In       8.56424713       4.62300788       3.19212198        1       0.00282486       0.00152487       0.00105290
In       4.65359240       2.51202400       1.73451727        2      -0.00282486      -0.00152487      -0.00105290
In       1.95532737       1.05549195       0.72880236        3       0.00282486       0.00152487       0.00105290
O        6.42213841       2.48312784       0.30803259        4      -0.00000000      -0.00278556       0.00403421
O        7.61796463       5.42749133       1.28928085        5       0.00232875      -0.00431406      -0.00000000
O        8.71755342       2.40691042       2.71373118        6      -0.00232875       0.00152850       0.00403421
O        4.50028610       4.72812147       2.21290808        7       0.00232875      -0.00152850      -0.00403421
O        6.79570111       4.65190404       4.61860666        8      -0.00000000       0.00278556      -0.00403421
O        5.59987490       1.70754055       3.63735840        9      -0.00232875       0.00431406      -0.00000000
