10
Lattice="5.07512602328523 -0.28218560969227485 -0.19484519822821353 2.548923942731014 4.397672066527572 -0.19484519822819632 2.548923942731021 1.3759172634717047 4.181427500276666" Properties=species:S:1:pos:R:3:spacegroup_kinds:I:1:forces:R:3 spacegroup="P 1" unit_cell=conventional occupancy="_JSON {\"0\": {\"In\": 1}, \"1\": {\"In\": 1}, \"2\": {\"In\": 1}, \"3\": {\"In\": 1}, \"4\": {\"O\": 1}, \"5\": {\"O\": 1}, \"6\": {\"O\": 1}, \"7\": {\"O\": 1}, \"8\": {\"O\": 1}, \"9\": {\"O\": 1}}" n_minim_iter=6 energy=-11283.009065690965 stress="-0.3753245360786476 7.959215729587818e-05 5.495726596932141e-05 7.959215729587818e-05 -0.3754290186056348 2.9666106215609974e-05 5.495726596932141e-05 2.9666106215609974e-05 -0.37545149867592814" free_energy=-11283.009065690965 pbc="T T T"
In       8.87689910       4.79177841       3.30865566        0      -0.00112742      -0.00060858      -0.00042022
In       6.38256175       3.44532717       2.37894999        1       0.00112742       0.00060858       0.00042022
In       3.79041214       2.04607655       1.41278711        2      -0.00112742      -0.00060858      -0.00042022
In       1.29607480       0.69962531       0.48308144        3       0.00112742       0.00060858       0.00042022
O        5.08080648       1.88179892      -0.09091342        4      -0.00000000       0.00144792      -0.00209695
O        5.81183110       4.43732655       0.75308908        5      -0.00121046       0.00224242      -0.00000000
O        6.89870580       1.56302517       1.99980033        6       0.00121046      -0.00079450      -0.00209695
O        3.27426809       3.92837855       1.79193677        7      -0.00121046       0.00079450       0.00209695
O        5.09216741       3.60960479       3.88265052        8       0.00000000      -0.00144792       0.00209695
O        4.36114279       1.05407717       3.03864802        9       0.00121046      -0.00224242      -0.00000000
