10
Lattice="5.108805146858427 -0.24424940676849938 -0.16865078318780752 2.599119268362058 4.4050115584528315 -0.1686507831878069 2.599119268362062 1.4030128601364835 4.1790100300267845" Properties=species:S:1:pos:R:3:spacegroup_kinds:I:1:forces:R:3 spacegroup="P 1" unit_cell=conventional occupancy="_JSON {\"0\": {\"In\": 1}, \"1\": {\"In\": 1}, \"2\": {\"In\": 1}, \"3\": {\"In\": 1}, \"4\": {\"O\": 1}, \"5\": {\"O\": 1}, \"6\": {\"O\": 1}, \"7\": {\"O\": 1}, \"8\": {\"O\": 1}, \"9\": {\"O\": 1}}" n_minim_iter=6 energy=-11283.03322723501 stress="-0.3692813389238347 -7.605080280686102e-05 -5.251201038411654e-05 -7.605080280686102e-05 -0.3691815052204221 -2.8346150808538183e-05 -5.251201038411654e-05 -2.8346150808538183e-05 -0.3691600253741078" free_energy=-11283.03322723501 pbc="T T T"
In       8.99308457       4.85449570       3.35196107        0      -0.00084535      -0.00045632      -0.00031508
In       6.46748094       3.49116681       2.41060163        1       0.00084535       0.00045632       0.00031508
In       3.83956273       2.07260820       1.43110683        2      -0.00084535      -0.00045632      -0.00031508
In       1.31395910       0.70927931       0.48974739        3       0.00084535       0.00045632       0.00031508
O        5.13116349       1.92033593      -0.06746111        4       0.00000000       0.00201643      -0.00292031
O        5.88605176       4.48034325       0.79177633        5      -0.00168575       0.00312290       0.00000000
O        6.97539448       1.61282393       2.02204390        6       0.00168575      -0.00110646      -0.00292031
O        3.33164919       3.95095108       1.81966456        7      -0.00168575       0.00110646       0.00292031
O        5.17588018       3.64343908       3.90916957        8      -0.00000000      -0.00201643       0.00292031
O        4.42099191       1.08343176       3.04993213        9       0.00168575      -0.00312290      -0.00000000
