40
Lattice="5.57522359261276 1.3433168156464863e-42 0.0 1.2038573178526406e-43 5.726507098131666 0.0 0.0 0.0 15.926527855906718" Properties=species:S:1:pos:R:3:spacegroup_kinds:I:1:forces:R:3 spacegroup="P 1" unit_cell=conventional occupancy="_JSON {\"0\": {\"In\": 1}, \"1\": {\"In\": 1}, \"2\": {\"In\": 1}, \"3\": {\"In\": 1}, \"4\": {\"In\": 1}, \"5\": {\"In\": 1}, \"6\": {\"In\": 1}, \"7\": {\"In\": 1}, \"8\": {\"In\": 1}, \"9\": {\"In\": 1}, \"10\": {\"In\": 1}, \"11\": {\"In\": 1}, \"12\": {\"In\": 1}, \"13\": {\"In\": 1}, \"14\": {\"In\": 1}, \"15\": {\"In\": 1}, \"16\": {\"O\": 1}, \"17\": {\"O\": 1}, \"18\": {\"O\": 1}, \"19\": {\"O\": 1}, \"20\": {\"O\": 1}, \"21\": {\"O\": 1}, \"22\": {\"O\": 1}, \"23\": {\"O\": 1}, \"24\": {\"O\": 1}, \"25\": {\"O\": 1}, \"26\": {\"O\": 1}, \"27\": {\"O\": 1}, \"28\": {\"O\": 1}, \"29\": {\"O\": 1}, \"30\": {\"O\": 1}, \"31\": {\"O\": 1}, \"32\": {\"O\": 1}, \"33\": {\"O\": 1}, \"34\": {\"O\": 1}, \"35\": {\"O\": 1}, \"36\": {\"O\": 1}, \"37\": {\"O\": 1}, \"38\": {\"O\": 1}, \"39\": {\"O\": 1}}" n_minim_iter=22 energy=-45150.25778329047 stress="-0.00499940650387942 -1.2904074566633689e-12 7.348661460123327e-14 -1.2904074566633689e-12 -0.005014765705660822 1.3293991666944484e-12 7.348661460123327e-14 1.3293991666944484e-12 -0.0051023246064004464" free_energy=-45150.25778329047 pbc="T T T"
In       2.79818494       4.54791774       9.08316756        0       0.00185901       0.00222208       0.00699515
In       0.01057314       4.04184291       6.84336030        1       0.00185901      -0.00222208      -0.00699515
In       2.77703866       1.68466419      14.80662423        2      -0.00185901       0.00222208      -0.00699515
In       5.56465045       1.17858936       1.11990363        3      -0.00185901      -0.00222208       0.00699515
In       2.77703866       1.17858936       6.84336030        4      -0.00185901      -0.00222208      -0.00699515
In       5.56465045       1.68466419       9.08316756        5      -0.00185901       0.00222208       0.00699515
In       2.79818494       4.04184291       1.11990363        6       0.00185901      -0.00222208       0.00699515
In       0.01057314       4.54791774      14.80662423        7       0.00185901       0.00222208      -0.00699515
In       2.78276030       4.24377108      13.00543904        8       0.00007811      -0.00164075       0.00186449
In       5.57037210       4.34598957       2.92108882        9       0.00007811       0.00164075      -0.00186449
In       2.79246329       1.38051753      10.88435274       10      -0.00007811      -0.00164075      -0.00186449
In       0.00485149       1.48273602       5.04217511       11      -0.00007811       0.00164075       0.00186449
In       2.79246329       1.48273602       2.92108882       12      -0.00007811       0.00164075      -0.00186449
In       0.00485149       1.38051753      13.00543904       13      -0.00007811      -0.00164075       0.00186449
In       2.78276030       4.34598957       5.04217511       14       0.00007811       0.00164075       0.00186449
In       5.57037210       4.24377108      10.88435274       15       0.00007811      -0.00164075      -0.00186449
O        4.79117935       5.00801110      12.72200933       16       0.00007450      -0.00404169      -0.00248316
O        2.00356755       3.58174955       3.20451852       17       0.00007450       0.00404169       0.00248316
O        0.78404424       2.14475755      11.16778245       18      -0.00007450      -0.00404169       0.00248316
O        3.57165604       0.71849600       4.75874541       19      -0.00007450       0.00404169      -0.00248316
O        0.78404424       0.71849600       3.20451852       20      -0.00007450       0.00404169       0.00248316
O        3.57165604       2.14475755      12.72200933       21      -0.00007450      -0.00404169      -0.00248316
O        4.79117935       3.58174955       4.75874541       22       0.00007450       0.00404169      -0.00248316
O        2.00356755       5.00801110      11.16778245       23       0.00007450      -0.00404169       0.00248316
O        3.93554115       2.99488581       9.97751758       24      -0.00199159       0.00321264       0.00166238
O        1.14792936       5.59487484       5.94901028       25      -0.00199159      -0.00321264      -0.00166238
O        1.63968244       0.13163226      13.91227421       26       0.00199159       0.00321264      -0.00166238
O        4.42729424       2.73162129       2.01425365       27       0.00199159      -0.00321264       0.00166238
O        1.63968244       2.73162129       5.94901028       28       0.00199159      -0.00321264      -0.00166238
O        4.42729424       0.13163226       9.97751758       29       0.00199159       0.00321264       0.00166238
O        3.93554115       5.59487484       2.01425365       30      -0.00199159      -0.00321264       0.00166238
O        1.14792936       2.99488581      13.91227421       31      -0.00199159       0.00321264      -0.00166238
O        3.60895381       3.75501161      15.08051282       32       0.00473187      -0.00054848      -0.00054087
O        0.82134201       4.83474903       0.84601504       33       0.00473187       0.00054848       0.00054087
O        1.96626978       0.89175806       8.80927896       34      -0.00473187      -0.00054848       0.00054087
O        4.75388158       1.97149548       7.11724889       35      -0.00473187       0.00054848      -0.00054087
O        1.96626978       1.97149548       0.84601504       36      -0.00473187       0.00054848       0.00054087
O        4.75388158       0.89175806      15.08051282       37      -0.00473187      -0.00054848      -0.00054087
O        3.60895381       4.83474903       7.11724889       38       0.00473187       0.00054848      -0.00054087
O        0.82134201       3.75501161       8.80927896       39       0.00473187      -0.00054848       0.00054087
