40
Lattice="5.494377427322463 1.1431666403957803e-41 0.0 -1.096134844519189e-41 5.594284192557681 0.0 0.0 0.0 15.236830337989874" Properties=species:S:1:pos:R:3:spacegroup_kinds:I:1:forces:R:3 spacegroup="P 1" unit_cell=conventional occupancy="_JSON {\"0\": {\"In\": 1}, \"1\": {\"In\": 1}, \"2\": {\"In\": 1}, \"3\": {\"In\": 1}, \"4\": {\"In\": 1}, \"5\": {\"In\": 1}, \"6\": {\"In\": 1}, \"7\": {\"In\": 1}, \"8\": {\"In\": 1}, \"9\": {\"In\": 1}, \"10\": {\"In\": 1}, \"11\": {\"In\": 1}, \"12\": {\"In\": 1}, \"13\": {\"In\": 1}, \"14\": {\"In\": 1}, \"15\": {\"In\": 1}, \"16\": {\"O\": 1}, \"17\": {\"O\": 1}, \"18\": {\"O\": 1}, \"19\": {\"O\": 1}, \"20\": {\"O\": 1}, \"21\": {\"O\": 1}, \"22\": {\"O\": 1}, \"23\": {\"O\": 1}, \"24\": {\"O\": 1}, \"25\": {\"O\": 1}, \"26\": {\"O\": 1}, \"27\": {\"O\": 1}, \"28\": {\"O\": 1}, \"29\": {\"O\": 1}, \"30\": {\"O\": 1}, \"31\": {\"O\": 1}, \"32\": {\"O\": 1}, \"33\": {\"O\": 1}, \"34\": {\"O\": 1}, \"35\": {\"O\": 1}, \"36\": {\"O\": 1}, \"37\": {\"O\": 1}, \"38\": {\"O\": 1}, \"39\": {\"O\": 1}}" n_minim_iter=16 energy=-45150.1618558913 stress="0.017625085185888623 -8.722405570111732e-13 -2.6391310231431714e-12 -8.722405570111732e-13 0.01741219858106912 1.9664494242089536e-12 -2.6391310231431714e-12 1.9664494242089536e-12 0.017557204863700413" free_energy=-45150.1618558913 pbc="T T T"
In       2.76723479       4.40723376       8.68704601        0      -0.00003543       0.00641253      -0.00482175
In       0.02004608       3.98419253       6.54978433        1      -0.00003543      -0.00641253       0.00482175
In       2.72714264       1.61009166      14.16819950        2       0.00003543       0.00641253       0.00482175
In       5.47433135       1.18705043       1.06863084        3       0.00003543      -0.00641253      -0.00482175
In       2.72714264       1.18705043       6.54978433        4       0.00003543      -0.00641253       0.00482175
In       5.47433135       1.61009166       8.68704601        5       0.00003543       0.00641253      -0.00482175
In       2.76723479       3.98419253       1.06863084        6      -0.00003543      -0.00641253      -0.00482175
In       0.02004608       4.40723376      14.16819950        7      -0.00003543       0.00641253       0.00482175
In       2.75460249       4.07900442      12.37070018        8       0.00458967       0.00282741      -0.00165268
In       5.50179120       4.31242187       2.86613016        9       0.00458967      -0.00282741       0.00165268
In       2.73977494       1.28186232      10.48454533       10      -0.00458966       0.00282741       0.00165268
In      -0.00741377       1.51527978       4.75228501       11      -0.00458966      -0.00282741      -0.00165268
In       2.73977494       1.51527978       2.86613016       12      -0.00458967      -0.00282741       0.00165268
In      -0.00741377       1.28186232      12.37070018       13      -0.00458966       0.00282741      -0.00165268
In       2.75460249       4.31242187       4.75228501       14       0.00458966      -0.00282741      -0.00165268
In       5.50179120       4.07900442      10.48454533       15       0.00458966       0.00282741       0.00165268
O        4.70808201       4.83906709      12.17781818       16       0.00009239      -0.00186403      -0.00026955
O        1.96089329       3.55235919       3.05901216       17       0.00009239       0.00186403       0.00026955
O        0.78629542       2.04192500      10.67742733       18      -0.00009239      -0.00186403       0.00026955
O        3.53348414       0.75521710       4.55940301       19      -0.00009239       0.00186403      -0.00026955
O        0.78629542       0.75521710       3.05901216       20      -0.00009239       0.00186403       0.00026955
O        3.53348414       2.04192500      12.17781818       21      -0.00009239      -0.00186403      -0.00026955
O        4.70808201       3.55235919       4.55940301       22       0.00009239       0.00186403      -0.00026955
O        1.96089329       4.83906709      10.67742733       23       0.00009239      -0.00186403       0.00026955
O        3.84492222       2.91233963       9.62328261       24      -0.00237496      -0.00003564       0.00575769
O        1.09773350       5.47908666       5.61354773       25      -0.00237496       0.00003564      -0.00575769
O        1.64945521       0.11519754      13.23196290       26       0.00237496      -0.00003564      -0.00575769
O        4.39664392       2.68194456       2.00486744       27       0.00237496       0.00003564       0.00575769
O        1.64945521       2.68194456       5.61354773       28       0.00237496       0.00003564      -0.00575769
O        4.39664392       0.11519754       9.62328261       29       0.00237496      -0.00003564       0.00575769
O        3.84492222       5.47908666       2.00486744       30      -0.00237496       0.00003564       0.00575769
O        1.09773350       2.91233963      13.23196290       31      -0.00237496      -0.00003564      -0.00575769
O        3.54941347       3.63926355      14.39097312       32       0.00401540       0.00330192       0.00362552
O        0.80222475       4.75216274       0.84585722       33       0.00401540      -0.00330192      -0.00362552
O        1.94496396       0.84212145       8.46427239       34      -0.00401540       0.00330192      -0.00362552
O        4.69215267       1.95502065       6.77255795       35      -0.00401540      -0.00330192       0.00362552
O        1.94496396       1.95502065       0.84585722       36      -0.00401540      -0.00330192      -0.00362552
O        4.69215267       0.84212145      14.39097312       37      -0.00401540       0.00330192       0.00362552
O        3.54941347       4.75216274       6.77255795       38       0.00401540      -0.00330192       0.00362552
O        0.80222475       3.63926355       8.46427239       39       0.00401540       0.00330192      -0.00362552
