40
Lattice="5.503588577646055 1.0702981020250263e-41 0.0 1.328315919600697e-42 5.61191030664803 0.0 0.0 0.0 15.596797031701056" Properties=species:S:1:pos:R:3:spacegroup_kinds:I:1:forces:R:3 spacegroup="P 1" unit_cell=conventional occupancy="_JSON {\"0\": {\"In\": 1}, \"1\": {\"In\": 1}, \"2\": {\"In\": 1}, \"3\": {\"In\": 1}, \"4\": {\"In\": 1}, \"5\": {\"In\": 1}, \"6\": {\"In\": 1}, \"7\": {\"In\": 1}, \"8\": {\"In\": 1}, \"9\": {\"In\": 1}, \"10\": {\"In\": 1}, \"11\": {\"In\": 1}, \"12\": {\"In\": 1}, \"13\": {\"In\": 1}, \"14\": {\"In\": 1}, \"15\": {\"In\": 1}, \"16\": {\"O\": 1}, \"17\": {\"O\": 1}, \"18\": {\"O\": 1}, \"19\": {\"O\": 1}, \"20\": {\"O\": 1}, \"21\": {\"O\": 1}, \"22\": {\"O\": 1}, \"23\": {\"O\": 1}, \"24\": {\"O\": 1}, \"25\": {\"O\": 1}, \"26\": {\"O\": 1}, \"27\": {\"O\": 1}, \"28\": {\"O\": 1}, \"29\": {\"O\": 1}, \"30\": {\"O\": 1}, \"31\": {\"O\": 1}, \"32\": {\"O\": 1}, \"33\": {\"O\": 1}, \"34\": {\"O\": 1}, \"35\": {\"O\": 1}, \"36\": {\"O\": 1}, \"37\": {\"O\": 1}, \"38\": {\"O\": 1}, \"39\": {\"O\": 1}}" n_minim_iter=15 energy=-45150.17815371664 stress="-0.007559350264837648 -2.7109849089978064e-12 -1.7164820390142231e-12 -2.7109849089978064e-12 -0.00757199646596407 1.306819276980587e-13 -1.7164820390142231e-12 1.306819276980587e-13 -0.007593729786959883" free_energy=-45150.17815371664 pbc="T T T"
In       2.76866340       4.44047429       8.89389691        0       0.00003607       0.00141197      -0.00092456
In       0.01686911       3.97739117       6.70290012        1       0.00003607      -0.00141197       0.00092456
In       2.73492518       1.63451913      14.50129864        2      -0.00003607       0.00141197       0.00092456
In       5.48671947       1.17143602       1.09549839        3      -0.00003607      -0.00141197      -0.00092456
In       2.73492518       1.17143602       6.70290012        4      -0.00003607      -0.00141197       0.00092456
In       5.48671947       1.63451913       8.89389691        5      -0.00003607       0.00141197      -0.00092456
In       2.76866340       3.97739117       1.09549839        6       0.00003607      -0.00141197      -0.00092456
In       0.01686911       4.44047429      14.50129864        7       0.00003607       0.00141197       0.00092456
In       2.75325154       4.12500685      12.72147144        8      -0.00139010       0.00006761      -0.00191913
In       5.50504583       4.29285861       2.87532559        9      -0.00139010      -0.00006761       0.00191912
In       2.75033704       1.31905170      10.67372411       10       0.00139010       0.00006761       0.00191913
In      -0.00145725       1.48690346       4.92307292       11       0.00139010      -0.00006761      -0.00191913
In       2.75033704       1.48690346       2.87532559       12       0.00139010      -0.00006761       0.00191913
In      -0.00145725       1.31905170      12.72147144       13       0.00139010       0.00006761      -0.00191913
In       2.75325154       4.29285861       4.92307292       14      -0.00139010      -0.00006761      -0.00191913
In       5.50504583       4.12500685      10.67372411       15      -0.00139010       0.00006761       0.00191913
O        4.72954423       4.86681382      12.45583993       16      -0.00009199      -0.00141879      -0.00073548
O        1.97774995       3.55105164       3.14095710       17      -0.00009199       0.00141879       0.00073548
O        0.77404434       2.06085866      10.93935561       18       0.00009199      -0.00141879       0.00073548
O        3.52583863       0.74509649       4.65744142       19       0.00009199       0.00141879      -0.00073548
O        0.77404434       0.74509649       3.14095710       20       0.00009199       0.00141879       0.00073548
O        3.52583863       2.06085866      12.45583993       21       0.00009199      -0.00141879      -0.00073548
O        4.72954423       3.55105164       4.65744142       22      -0.00009199       0.00141879      -0.00073548
O        1.97774995       4.86681382      10.93935561       23      -0.00009199      -0.00141879       0.00073548
O        3.88145716       2.91964191       9.79139270       24       0.00286897       0.00039887      -0.00093326
O        1.12966287       5.49822355       5.80540433       25       0.00286897      -0.00039887       0.00093326
O        1.62213142       0.11368676      13.60380284       26      -0.00286897       0.00039887       0.00093326
O        4.37392571       2.69226839       1.99299419       27      -0.00286897      -0.00039887      -0.00093326
O        1.62213142       2.69226839       5.80540433       28      -0.00286897      -0.00039887       0.00093326
O        4.37392571       0.11368676       9.79139270       29      -0.00286897       0.00039887      -0.00093326
O        3.88145716       5.49822355       1.99299419       30       0.00286897      -0.00039887      -0.00093326
O        1.12966287       2.91964191      13.60380284       31       0.00286897       0.00039887       0.00093326
O        3.56382906       3.66968366      14.76318516       32      -0.00153473      -0.00066530       0.00315419
O        0.81203477       4.74818180       0.83361188       33      -0.00153473       0.00066530      -0.00315419
O        1.93975952       0.86372850       8.63201039       34       0.00153473      -0.00066530      -0.00315419
O        4.69155381       1.94222665       6.96478664       35       0.00153473       0.00066530       0.00315419
O        1.93975952       1.94222665       0.83361188       36       0.00153473       0.00066530      -0.00315419
O        4.69155381       0.86372850      14.76318516       37       0.00153473      -0.00066530       0.00315419
O        3.56382906       4.74818180       6.96478664       38      -0.00153473       0.00066530       0.00315419
O        0.81203477       3.66968366       8.63201039       39      -0.00153473      -0.00066530      -0.00315419
