40
Lattice="8.629025250841105 6.763203330706337e-10 3.996802888650638e-15 -2.8763417509180087 8.13552302630749 -1.1714296199727412e-09 -2.8763417499615533 -4.067761512477416 7.045569614636492" Properties=species:S:1:pos:R:3:spacegroup_kinds:I:1:forces:R:3 spacegroup="P 1" unit_cell=conventional occupancy="_JSON {\"0\": {\"In\": 1}, \"1\": {\"In\": 1}, \"2\": {\"In\": 1}, \"3\": {\"In\": 1}, \"4\": {\"In\": 1}, \"5\": {\"In\": 1}, \"6\": {\"In\": 1}, \"7\": {\"In\": 1}, \"8\": {\"In\": 1}, \"9\": {\"In\": 1}, \"10\": {\"In\": 1}, \"11\": {\"In\": 1}, \"12\": {\"In\": 1}, \"13\": {\"In\": 1}, \"14\": {\"In\": 1}, \"15\": {\"In\": 1}, \"16\": {\"O\": 1}, \"17\": {\"O\": 1}, \"18\": {\"O\": 1}, \"19\": {\"O\": 1}, \"20\": {\"O\": 1}, \"21\": {\"O\": 1}, \"22\": {\"O\": 1}, \"23\": {\"O\": 1}, \"24\": {\"O\": 1}, \"25\": {\"O\": 1}, \"26\": {\"O\": 1}, \"27\": {\"O\": 1}, \"28\": {\"O\": 1}, \"29\": {\"O\": 1}, \"30\": {\"O\": 1}, \"31\": {\"O\": 1}, \"32\": {\"O\": 1}, \"33\": {\"O\": 1}, \"34\": {\"O\": 1}, \"35\": {\"O\": 1}, \"36\": {\"O\": 1}, \"37\": {\"O\": 1}, \"38\": {\"O\": 1}, \"39\": {\"O\": 1}}" n_minim_iter=11 energy=-45155.97917666488 stress="0.26218935411738925 2.021071209847226e-12 2.401971083517154e-12 2.021071209847226e-12 0.26218935411174726 -1.609587204016854e-14 2.401971083517154e-12 -1.609587204016854e-14 0.2621893541118116" free_energy=-45155.97917666488 pbc="T T T"
In      -4.20701166       2.97480647       5.41583847        0      -0.00544005       0.00384669      -0.00666267
In       7.08335341       1.09295504       1.62973114        1       0.00544005      -0.00384669       0.00666267
In       1.33066991      -0.94092571       5.15251595        2       0.00544005      -0.00384669       0.00666267
In      -1.43817088      -2.03388075       3.52278481        3       0.00000000       0.00000000       0.00000000
In      -1.33066991       3.99174685       3.39112355        4      -0.00544005       0.00384669       0.00666267
In       4.42201359      -2.89879181       5.28417721        5      -0.00544005      -0.00769339      -0.00000000
In      -1.33066991       1.16896971       5.28417721        6      -0.00544005      -0.00769339       0.00000000
In      -1.54567184       6.96655332       1.76139240        7       0.00544005       0.00769339      -0.00000000
In       4.20701166       0.07601466       3.65444606        8       0.00544005      -0.00384669      -0.00666267
In      -1.43817088       4.06776151      -0.00000000        9      -0.00000000       0.00000000      -0.00000000
In       4.20701166       6.17765693       0.13166125       10       0.00544005      -0.00384669      -0.00666267
In      -1.33066991      -2.10989542       6.91390835       11      -0.00544005       0.00384669       0.00666267
In       4.20701166       2.89879181       1.76139240       12       0.00544005       0.00769339       0.00000000
In       1.54567184       5.00868723       1.89305366       13      -0.00544005       0.00384669      -0.00666267
In       4.31451262       0.00000000      -0.00000000       14       0.00000000       0.00000000       0.00000000
In       1.43817087       2.03388076       3.52278480       15       0.00000000       0.00000000       0.00000000
O        0.81505321       3.96207754       3.52087249       16      -0.00464356       0.00243398       0.00115229
O       -2.06128854       3.10200701       5.37665837       17      -0.00464356      -0.00021907      -0.00268403
O       -0.73847748       2.16663834      -0.04880519       18       0.00054038      -0.00388467       0.00366497
O       -0.81505322      -1.07143848       1.85196125       19       0.00464356       0.00221490      -0.00153174
O        3.61169643       5.11102231       1.90076643       20       0.00134131      -0.00009893      -0.00519671
O        2.14098707       2.94327989       1.85387356       21      -0.00134131       0.00445102      -0.00268403
O        2.14098707       6.23550393       0.04689286       22      -0.00134131      -0.00454995      -0.00251268
O       -2.28888538       6.07567274       3.47397962       23       0.00384263       0.00078542       0.00366497
O        3.61481923       1.90112318       7.09437480       24      -0.00054038       0.00388467      -0.00366497
O        5.16522712      -2.00791122       3.57158999       25      -0.00384263      -0.00078542      -0.00366497
O        6.49116098       3.07493340       1.62201837       26      -0.00054038       0.00123162       0.00519671
O        3.46379812       2.00459899       3.56967767       27       0.00384263       0.00278125      -0.00251268
O        0.58745637       4.12301281       7.04748193       28       0.00384263      -0.00356667      -0.00115229
O        2.28888537      -0.05525130      -0.00191232       29      -0.00384263       0.00356667       0.00115229
O       -3.61481923       0.99282812       5.42355124       30       0.00054038      -0.00123162      -0.00519671
O        4.93763028       0.96575451       1.66891124       31       0.00464356       0.00021907       0.00268403
O        0.73535468       1.12448163       5.19169604       32       0.00134131      -0.00445102       0.00268403
O        3.61481923      -0.90829505       5.37474605       33      -0.00054038      -0.00511629      -0.00153174
O        2.06128853       0.10568397       3.52469712       34       0.00464356      -0.00243397      -0.00115229
O        0.73535468      -2.16774241       6.99867674       35       0.00134131       0.00454995       0.00251268
O       -0.58745638       2.06316252       3.47589194       36      -0.00384263      -0.00278125       0.00251268
O       -0.73535468      -1.04326079       5.14480318       37      -0.00134131       0.00009893       0.00519671
O       -0.73847748       4.97605657       1.67082356       38       0.00054038       0.00511629       0.00153174
O        3.69139496       5.13920000       5.19360836       39      -0.00464356      -0.00221490       0.00153174
