40
Lattice="8.548375436570318 6.700000554360486e-10 5.773159728050814e-15 -2.849458479488456 8.05948565221318 -1.160483709128357e-09 -2.8494584785409374 -4.029742825436583 6.979719317026463" Properties=species:S:1:pos:R:3:spacegroup_kinds:I:1:forces:R:3 spacegroup="P 1" unit_cell=conventional occupancy="_JSON {\"0\": {\"In\": 1}, \"1\": {\"In\": 1}, \"2\": {\"In\": 1}, \"3\": {\"In\": 1}, \"4\": {\"In\": 1}, \"5\": {\"In\": 1}, \"6\": {\"In\": 1}, \"7\": {\"In\": 1}, \"8\": {\"In\": 1}, \"9\": {\"In\": 1}, \"10\": {\"In\": 1}, \"11\": {\"In\": 1}, \"12\": {\"In\": 1}, \"13\": {\"In\": 1}, \"14\": {\"In\": 1}, \"15\": {\"In\": 1}, \"16\": {\"O\": 1}, \"17\": {\"O\": 1}, \"18\": {\"O\": 1}, \"19\": {\"O\": 1}, \"20\": {\"O\": 1}, \"21\": {\"O\": 1}, \"22\": {\"O\": 1}, \"23\": {\"O\": 1}, \"24\": {\"O\": 1}, \"25\": {\"O\": 1}, \"26\": {\"O\": 1}, \"27\": {\"O\": 1}, \"28\": {\"O\": 1}, \"29\": {\"O\": 1}, \"30\": {\"O\": 1}, \"31\": {\"O\": 1}, \"32\": {\"O\": 1}, \"33\": {\"O\": 1}, \"34\": {\"O\": 1}, \"35\": {\"O\": 1}, \"36\": {\"O\": 1}, \"37\": {\"O\": 1}, \"38\": {\"O\": 1}, \"39\": {\"O\": 1}}" n_minim_iter=1 energy=-45159.828219787574 stress="0.2906581267045994 -1.5924669291076133e-12 -7.115201726191205e-13 -1.5924669291076133e-12 0.290658126704667 5.903030913617193e-13 -7.115201726191205e-13 5.903030913617193e-13 0.29065812670244257" free_energy=-45159.828219787574 pbc="T T T"
In      -4.16769149       2.94700292       5.36522019        0      -0.19818897       0.14014076      -0.24273092
In       7.01714997       1.08273991       1.61449912        1       0.19818897      -0.14014076       0.24273092
In       1.31823301      -0.93213150       5.10435878        2       0.19818896      -0.14014076       0.24273092
In      -1.42472924      -2.01487141       3.48985966        3       0.00000000      -0.00000000      -0.00000000
In      -1.31823302       3.95443862       3.35942895        4      -0.19818896       0.14014076       0.24273092
In       4.38068394      -2.87169871       5.23478949        5      -0.19818896      -0.28028152       0.00000000
In      -1.31823302       1.15804412       5.23478948        6      -0.19818897      -0.28028152       0.00000000
In      -1.53122547       6.90144154       1.74492983        7       0.19818896       0.28028152      -0.00000000
In       4.16769149       0.07530421       3.62029036        8       0.19818896      -0.14014076      -0.24273092
In      -1.42472924       4.02974283      -0.00000000        9       0.00000000       0.00000000       0.00000000
In       4.16769149       6.11991844       0.13043070       10       0.19818897      -0.14014076      -0.24273092
In      -1.31823301      -2.09017561       6.84928861       11      -0.19818897       0.14014076       0.24273092
In       4.16769149       2.87169871       1.74492983       12       0.19818896       0.28028152      -0.00000000
In       1.53122546       4.96187433       1.87536053       13      -0.19818897       0.14014076      -0.24273092
In       4.27418772       0.00000000      -0.00000000       14       0.00000000      -0.00000000       0.00000000
In       1.42472924       2.01487142       3.48985966       15       0.00000000      -0.00000000      -0.00000000
O        0.80743545       3.92504661       3.48796521       16       0.02205145       0.85719003       0.46239207
O       -2.04202303       3.07301459       5.32640629       17       0.02205145      -0.02815174      -0.97354438
O       -0.73157542       2.14638820      -0.04834904       18       0.78897528      -0.57044878      -0.03425835
O       -0.80743545      -1.06142445       1.83465218       19      -0.02205145       0.82903829      -0.51115231
O        3.57794028       5.06325295       1.88300122       20      -0.03389220      -0.84881736      -0.47689396
O        2.12097667       2.91577099       1.83654663       21       0.03389220      -0.01140639      -0.97354438
O        2.12097667       6.17722478       0.04645459       22       0.03389220      -0.83741097       0.49665041
O       -2.26749267       6.01888743       3.44151062       23       0.80081603      -0.55370343      -0.03425835
O        3.58103390       1.88335463       7.02806835       24      -0.78897528       0.57044878       0.03425835
O        5.11695115      -1.98914460       3.53820869       25      -0.80081603       0.55370343       0.03425835
O        6.43049238       3.04619402       1.60685843       26      -0.78897528      -0.31489299       0.47689396
O        3.43142428       1.98586333       3.53631425       27       0.80081603       0.24718312       0.49665041
O        0.58196580       4.08447773       6.98161376       28       0.80081603       0.30652032      -0.46239207
O        2.26749267      -0.05473490      -0.00189445       29      -0.80081603      -0.30652032       0.46239207
O       -3.58103390       0.98354881       5.37286088       30       0.78897528       0.31489299      -0.47689396
O        4.89148151       0.95672824       1.65331302       31      -0.02205145       0.02815174       0.97354438
O        0.72848180       1.11397184       5.14317268       32      -0.03389220       0.01140639       0.97354438
O        3.58103390      -0.89980582       5.32451184       33      -0.78897528      -0.25555579      -0.51115231
O        2.04202303       0.10469622       3.49175410       34      -0.02205145      -0.85719003      -0.46239207
O        0.72848180      -2.14748195       6.93326472       35      -0.03389220       0.83741097      -0.49665041
O       -0.58196581       2.04387950       3.44340506       36      -0.80081603      -0.24718312      -0.49665041
O       -0.72848180      -1.03351012       5.09671809       37       0.03389220       0.84881736       0.47689396
O       -0.73157542       4.92954865       1.65520747       38       0.78897528       0.25555579       0.51115231
O        3.65689393       5.09116728       5.14506713       39       0.02205145      -0.82903829       0.51115231
40
Lattice="8.548375436570316 6.700000554360484e-10 5.7731597280508156e-15 -2.849458479488455 8.059485652213178 -1.1604837091283569e-09 -2.8494584785409365 -4.029742825436582 6.979719317026463" Properties=species:S:1:pos:R:3:spacegroup_kinds:I:1:forces:R:3 spacegroup="P 1" unit_cell=conventional occupancy="_JSON {\"0\": {\"In\": 1}, \"1\": {\"In\": 1}, \"2\": {\"In\": 1}, \"3\": {\"In\": 1}, \"4\": {\"In\": 1}, \"5\": {\"In\": 1}, \"6\": {\"In\": 1}, \"7\": {\"In\": 1}, \"8\": {\"In\": 1}, \"9\": {\"In\": 1}, \"10\": {\"In\": 1}, \"11\": {\"In\": 1}, \"12\": {\"In\": 1}, \"13\": {\"In\": 1}, \"14\": {\"In\": 1}, \"15\": {\"In\": 1}, \"16\": {\"O\": 1}, \"17\": {\"O\": 1}, \"18\": {\"O\": 1}, \"19\": {\"O\": 1}, \"20\": {\"O\": 1}, \"21\": {\"O\": 1}, \"22\": {\"O\": 1}, \"23\": {\"O\": 1}, \"24\": {\"O\": 1}, \"25\": {\"O\": 1}, \"26\": {\"O\": 1}, \"27\": {\"O\": 1}, \"28\": {\"O\": 1}, \"29\": {\"O\": 1}, \"30\": {\"O\": 1}, \"31\": {\"O\": 1}, \"32\": {\"O\": 1}, \"33\": {\"O\": 1}, \"34\": {\"O\": 1}, \"35\": {\"O\": 1}, \"36\": {\"O\": 1}, \"37\": {\"O\": 1}, \"38\": {\"O\": 1}, \"39\": {\"O\": 1}}" n_minim_iter=2 energy=-45160.0671621829 stress="0.31840098694593383 5.715364556148133e-13 -1.302140027725793e-12 5.715364556148133e-13 0.31840098694729696 1.3764137378415742e-12 -1.302140027725793e-12 1.3764137378415742e-12 0.31840098694004787" free_energy=-45160.0671621829 pbc="T T T"
In      -4.17052277       2.94900493       5.36175261        0      -0.13928445       0.09848898      -0.17058791
In       7.01998124       1.08073790       1.61796670        1       0.13928445      -0.09848898       0.17058791
In       1.32106428      -0.93413351       5.10782636        2       0.13928445      -0.09848898       0.17058791
In      -1.42472924      -2.01487141       3.48985966        3      -0.00000000      -0.00000000      -0.00000000
In      -1.32106429       3.95644064       3.36289653        4      -0.13928445       0.09848898       0.17058791
In       4.37785267      -2.87570273       5.23478949        5      -0.13928445      -0.19697795       0.00000000
In      -1.32106429       1.15404009       5.23478948        6      -0.13928445      -0.19697795      -0.00000000
In      -1.52839420       6.90544556       1.74492983        7       0.13928445       0.19697795      -0.00000000
In       4.17052276       0.07330219       3.61682278        8       0.13928445      -0.09848898      -0.17058791
In      -1.42472924       4.02974283      -0.00000000        9       0.00000000      -0.00000000      -0.00000000
In       4.17052276       6.11791643       0.12696312       10       0.13928445      -0.09848898      -0.17058791
In      -1.32106429      -2.08817360       6.85275619       11      -0.13928445       0.09848898       0.17058791
In       4.17052276       2.87570274       1.74492983       12       0.13928445       0.19697795       0.00000000
In       1.52839419       4.96387634       1.87189295       13      -0.13928445       0.09848898      -0.17058791
In       4.27418772       0.00000000      -0.00000000       14       0.00000000      -0.00000000       0.00000000
In       1.42472924       2.01487142       3.48985966       15      -0.00000000      -0.00000000       0.00000000
O        0.80775047       3.93729219       3.49457081       16      -0.08213105       0.40428020       0.04449068
O       -2.04170801       3.07261242       5.31249851       17      -0.08213105      -0.16361004      -0.37236226
O       -0.72030435       2.13823893      -0.04883844       18       0.19952898      -0.36277376      -0.02740057
O       -0.80775047      -1.04958105       1.82735001       19       0.08213105       0.24067016      -0.32787158
O        3.57745611       5.05112699       1.87618845       20      -0.12687600      -0.25648989      -0.30047100
O        2.12146085       2.91560805       1.82263885       21       0.12687600       0.13197058      -0.37236226
O        2.12146085       6.16526177       0.05354959       22       0.12687600      -0.38846047       0.07189126
O       -2.25605245       6.01097738       3.44102121       23       0.40853604      -0.06719314      -0.02740057
O        3.56976282       1.89150390       7.02855776       24      -0.19952898       0.36277376       0.02740057
O        5.10551092      -1.98123455       3.53869810       25      -0.40853604       0.06719314       0.02740057
O        6.41922130       3.04169555       1.61367120       26      -0.19952898      -0.20511647       0.30047101
O        3.44286451       1.98939451       3.54340925       27       0.40853604       0.00986698       0.07189126
O        0.59340603       4.08885659       6.97500816       28       0.40853604       0.05732616      -0.04449068
O        2.25605244      -0.05911376       0.00471115       29      -0.40853604      -0.05732616       0.04449068
O       -3.56976282       0.98804728       5.36604811       30       0.19952899       0.20511647      -0.30047101
O        4.89116649       0.95713041       1.66722080       31       0.08213105       0.16361004       0.37236226
O        0.72799763       1.11413478       5.15708046       32      -0.12687600      -0.13197058       0.37236226
O        3.56976282      -0.90345661       5.31720967       33      -0.19952899      -0.15765729      -0.32787158
O        2.04170801       0.09245064       3.48514850       34       0.08213105      -0.40428020      -0.04449068
O        0.72799763      -2.13551894       6.92616972       35      -0.12687600       0.38846047      -0.07189126
O       -0.59340604       2.04034832       3.43631006       36      -0.40853604      -0.00986698      -0.07189126
O       -0.72799763      -1.02138416       5.10353086       37       0.12687600       0.25648989       0.30047100
O       -0.72030435       4.93319944       1.66250964       38       0.19952898       0.15765729       0.32787158
O        3.65720895       5.07932388       5.15236930       39      -0.08213105      -0.24067016       0.32787158
40
Lattice="8.548375436570316 6.700000554360484e-10 5.773159728050818e-15 -2.849458479488455 8.059485652213178 -1.1604837091283569e-09 -2.8494584785409365 -4.029742825436582 6.979719317026463" Properties=species:S:1:pos:R:3:spacegroup_kinds:I:1:forces:R:3 spacegroup="P 1" unit_cell=conventional occupancy="_JSON {\"0\": {\"In\": 1}, \"1\": {\"In\": 1}, \"2\": {\"In\": 1}, \"3\": {\"In\": 1}, \"4\": {\"In\": 1}, \"5\": {\"In\": 1}, \"6\": {\"In\": 1}, \"7\": {\"In\": 1}, \"8\": {\"In\": 1}, \"9\": {\"In\": 1}, \"10\": {\"In\": 1}, \"11\": {\"In\": 1}, \"12\": {\"In\": 1}, \"13\": {\"In\": 1}, \"14\": {\"In\": 1}, \"15\": {\"In\": 1}, \"16\": {\"O\": 1}, \"17\": {\"O\": 1}, \"18\": {\"O\": 1}, \"19\": {\"O\": 1}, \"20\": {\"O\": 1}, \"21\": {\"O\": 1}, \"22\": {\"O\": 1}, \"23\": {\"O\": 1}, \"24\": {\"O\": 1}, \"25\": {\"O\": 1}, \"26\": {\"O\": 1}, \"27\": {\"O\": 1}, \"28\": {\"O\": 1}, \"29\": {\"O\": 1}, \"30\": {\"O\": 1}, \"31\": {\"O\": 1}, \"32\": {\"O\": 1}, \"33\": {\"O\": 1}, \"34\": {\"O\": 1}, \"35\": {\"O\": 1}, \"36\": {\"O\": 1}, \"37\": {\"O\": 1}, \"38\": {\"O\": 1}, \"39\": {\"O\": 1}}" n_minim_iter=3 energy=-45160.15469017822 stress="0.3364701205814579 -1.8329390957735747e-12 6.277186153993172e-13 -1.8329390957735747e-12 0.3364701205842304 6.961936096125926e-13 6.277186153993172e-13 6.961936096125926e-13 0.3364701205807477" free_energy=-45160.15469017822 pbc="T T T"
In      -4.17415183       2.95157106       5.35730793        0      -0.12671795       0.08960312      -0.15519716
In       7.02361030       1.07817177       1.62241138        1       0.12671795      -0.08960312       0.15519716
In       1.32469335      -0.93669965       5.11227104        2       0.12671795      -0.08960312       0.15519716
In      -1.42472924      -2.01487141       3.48985966        3       0.00000000      -0.00000000      -0.00000000
In      -1.32469335       3.95900677       3.36734121        4      -0.12671795       0.08960312       0.15519716
In       4.37422361      -2.88083500       5.23478949        5      -0.12671795      -0.17920625       0.00000000
In      -1.32469335       1.14890782       5.23478948        6      -0.12671795      -0.17920625      -0.00000000
In      -1.52476513       6.91057783       1.74492983        7       0.12671795       0.17920625      -0.00000000
In       4.17415182       0.07073606       3.61237810        8       0.12671795      -0.08960312      -0.15519716
In      -1.42472924       4.02974283      -0.00000000        9       0.00000000       0.00000000       0.00000000
In       4.17415182       6.11535030       0.12251844       10       0.12671795      -0.08960312      -0.15519716
In      -1.32469335      -2.08560747       6.85720087       11      -0.12671795       0.08960312       0.15519716
In       4.17415182       2.88083501       1.74492983       12       0.12671795       0.17920625      -0.00000000
In       1.52476513       4.96644248       1.86744827       13      -0.12671795       0.08960312      -0.15519716
In       4.27418772       0.00000000      -0.00000000       14      -0.00000000       0.00000000       0.00000000
In       1.42472924       2.01487142       3.48985966       15      -0.00000000       0.00000000      -0.00000000
O        0.80581616       3.94824305       3.49632074       16      -0.12877510       0.11211886      -0.11078193
O       -2.04364231       3.06865248       5.30213982       17      -0.12877510      -0.15199940      -0.04170681
O       -0.71435801       2.12870653      -0.04954537       18      -0.08052477      -0.18611754       0.01738754
O       -0.80581617      -1.04259013       1.81874125       19       0.12877510      -0.03988054      -0.15248875
O        3.57436740       5.04372793       1.86828661       20      -0.10038137       0.04991924      -0.16987628
O        2.12454955       2.91875171       1.81228016       21       0.10038137       0.17207680      -0.04170681
O        2.12454955       6.15471905       0.05600645       22       0.10038137      -0.12215756      -0.12816947
O       -2.24508310       6.00854859       3.44031429       23       0.14863171       0.13795866       0.01738754
O        3.56381649       1.90103630       7.02926468       24       0.08052477       0.18611754      -0.01738754
O        5.09454158      -1.97880576       3.53940502       25      -0.14863171      -0.13795866      -0.01738754
O        6.41327497       3.03631714       1.62157304       26       0.08052477      -0.07800072       0.16987628
O        3.45383385       1.98999670       3.54586611       27       0.14863171      -0.05392128      -0.12816947
O        0.60437537       4.09068320       6.97325822       28       0.14863171      -0.08403738       0.11078193
O        2.24508310      -0.06094037       0.00646109       29      -0.14863171       0.08403738      -0.11078193
O       -3.56381649       0.99342569       5.35814627       30      -0.08052477       0.07800072      -0.16987628
O        4.89310079       0.96109035       1.67757949       31       0.12877510       0.15199940       0.04170681
O        0.72490892       1.11099112       5.16743915       32      -0.10038137      -0.17207680       0.04170681
O        3.56381649      -0.90761060       5.30860091       33       0.08052477      -0.10811682      -0.15248875
O        2.04364231       0.08149978       3.48339857       34       0.12877510      -0.11211886       0.11078193
O        0.72490892      -2.12497622       6.92371286       35      -0.10038137       0.12215756       0.12816947
O       -0.60437538       2.03974613       3.43385320       36      -0.14863171       0.05392128       0.12816947
O       -0.72490893      -1.01398510       5.11143270       37       0.10038137      -0.04991924       0.16987628
O       -0.71435801       4.93735343       1.67111840       38      -0.08052477       0.10811682       0.15248875
O        3.65527464       5.07233296       5.16097806       39      -0.12877510       0.03988054       0.15248875
40
Lattice="8.548375436570321 6.700000554360488e-10 5.773159728050824e-15 -2.8494584794884568 8.059485652213183 -1.1604837091283581e-09 -2.8494584785409383 -4.029742825436585 6.979719317026469" Properties=species:S:1:pos:R:3:spacegroup_kinds:I:1:forces:R:3 spacegroup="P 1" unit_cell=conventional occupancy="_JSON {\"0\": {\"In\": 1}, \"1\": {\"In\": 1}, \"2\": {\"In\": 1}, \"3\": {\"In\": 1}, \"4\": {\"In\": 1}, \"5\": {\"In\": 1}, \"6\": {\"In\": 1}, \"7\": {\"In\": 1}, \"8\": {\"In\": 1}, \"9\": {\"In\": 1}, \"10\": {\"In\": 1}, \"11\": {\"In\": 1}, \"12\": {\"In\": 1}, \"13\": {\"In\": 1}, \"14\": {\"In\": 1}, \"15\": {\"In\": 1}, \"16\": {\"O\": 1}, \"17\": {\"O\": 1}, \"18\": {\"O\": 1}, \"19\": {\"O\": 1}, \"20\": {\"O\": 1}, \"21\": {\"O\": 1}, \"22\": {\"O\": 1}, \"23\": {\"O\": 1}, \"24\": {\"O\": 1}, \"25\": {\"O\": 1}, \"26\": {\"O\": 1}, \"27\": {\"O\": 1}, \"28\": {\"O\": 1}, \"29\": {\"O\": 1}, \"30\": {\"O\": 1}, \"31\": {\"O\": 1}, \"32\": {\"O\": 1}, \"33\": {\"O\": 1}, \"34\": {\"O\": 1}, \"35\": {\"O\": 1}, \"36\": {\"O\": 1}, \"37\": {\"O\": 1}, \"38\": {\"O\": 1}, \"39\": {\"O\": 1}}" n_minim_iter=4 energy=-45160.2117288466 stress="0.3576543761980165 -1.923353904240045e-12 4.945859533277595e-13 -1.923353904240045e-12 0.35765437620136864 -1.1636288465562574e-12 4.945859533277595e-13 -1.1636288465562574e-12 0.35765437620123636" free_energy=-45160.2117288466 pbc="T T T"
In      -4.18411496       2.95861606       5.34510563        0      -0.12496061       0.08836049      -0.15304486
In       7.03357344       1.07112677       1.63461368        1       0.12496061      -0.08836049       0.15304486
In       1.33465648      -0.94374465       5.12447334        2       0.12496061      -0.08836049       0.15304486
In      -1.42472924      -2.01487141       3.48985966        3       0.00000000      -0.00000000       0.00000000
In      -1.33465648       3.96605177       3.37954351        4      -0.12496061       0.08836049       0.15304486
In       4.36426047      -2.89492500       5.23478949        5      -0.12496061      -0.17672099      -0.00000000
In      -1.33465648       1.13481782       5.23478948        6      -0.12496061      -0.17672099       0.00000000
In      -1.51480200       6.92466783       1.74492983        7       0.12496061       0.17672099      -0.00000000
In       4.18411496       0.06369106       3.60017580        8       0.12496061      -0.08836049      -0.15304486
In      -1.42472924       4.02974283      -0.00000000        9       0.00000000      -0.00000000       0.00000000
In       4.18411496       6.10830530       0.11031614       10       0.12496061      -0.08836049      -0.15304486
In      -1.33465648      -2.07856247       6.86940317       11      -0.12496061       0.08836049       0.15304486
In       4.18411496       2.89492501       1.74492983       12       0.12496061       0.17672099      -0.00000000
In       1.51480199       4.97348748       1.85524597       13      -0.12496061       0.08836049      -0.15304486
In       4.27418772       0.00000000      -0.00000000       14      -0.00000000       0.00000000       0.00000000
In       1.42472924       2.01487142       3.48985966       15      -0.00000000      -0.00000000       0.00000000
O        0.79787664       3.96553568       3.49377716       16      -0.12651195      -0.18942335      -0.13749169
O       -2.05158184       3.05780335       5.28843575       17      -0.12651194      -0.02435962       0.23279128
O       -0.71092952       2.10981901      -0.04932652       18      -0.24372717       0.05852406       0.08923254
O       -0.79787664      -1.03614662       1.80249360       19       0.12651195      -0.21378297       0.09529959
O        3.56678526       5.03741077       1.85182011       20       0.01920418       0.26530140       0.00606705
O        2.13213170       2.92985354       1.79857609       21      -0.01920418       0.12739648       0.23279128
O        2.13213170       6.13730006       0.05324402       22      -0.01920418       0.13790492      -0.22672423
O       -2.22613294       6.01161202       3.44053314       23      -0.13641940       0.21028016       0.08923254
O        3.56038800       1.91992382       7.02904583       24       0.24372717      -0.05852406      -0.08923254
O        5.07559142      -1.98186919       3.53918617       25       0.13641940      -0.21028016      -0.08923254
O        6.40984648       3.02706290       1.63803954       26       0.24372717       0.10653967      -0.00606705
O        3.47278401       1.98865451       3.54310368       27      -0.13641940      -0.02786243      -0.22672423
O        0.62332554       4.08896196       6.97580181       28      -0.13641940      -0.18241772       0.13749169
O        2.22613294      -0.05921912       0.00391750       29       0.13641940       0.18241772      -0.13749169
O       -3.56038800       1.00267993       5.34167977       30      -0.24372717      -0.10653967       0.00606705
O        4.90104031       0.97193948       1.69128356       31       0.12651194       0.02435962      -0.23279128
O        0.71732678       1.09988929       5.18114322       32       0.01920418      -0.12739648      -0.23279128
O        3.56038800      -0.91724389       5.29235325       33       0.24372717      -0.04801561       0.09529959
O        2.05158184       0.06420715       3.48594215       34       0.12651195       0.18942335       0.13749169
O        0.71732678      -2.10755723       6.92647529       35       0.01920418      -0.13790492       0.22672423
O       -0.62332554       2.04108832       3.43661564       36       0.13641940       0.02786243       0.22672423
O       -0.71732678      -1.00766794       5.12789920       37      -0.01920418      -0.26530140      -0.00606705
O       -0.71092952       4.94698672       1.68736606       38      -0.24372717       0.04801561      -0.09529959
O        3.64733512       5.06588945       5.17722572       39      -0.12651194       0.21378297      -0.09529959
40
Lattice="8.548375436570309 6.700000554360477e-10 5.7731597280507825e-15 -2.8494584794884523 8.059485652213171 -1.1604837091283562e-09 -2.849458478540934 -4.029742825436578 6.979719317026459" Properties=species:S:1:pos:R:3:spacegroup_kinds:I:1:forces:R:3 spacegroup="P 1" unit_cell=conventional occupancy="_JSON {\"0\": {\"In\": 1}, \"1\": {\"In\": 1}, \"2\": {\"In\": 1}, \"3\": {\"In\": 1}, \"4\": {\"In\": 1}, \"5\": {\"In\": 1}, \"6\": {\"In\": 1}, \"7\": {\"In\": 1}, \"8\": {\"In\": 1}, \"9\": {\"In\": 1}, \"10\": {\"In\": 1}, \"11\": {\"In\": 1}, \"12\": {\"In\": 1}, \"13\": {\"In\": 1}, \"14\": {\"In\": 1}, \"15\": {\"In\": 1}, \"16\": {\"O\": 1}, \"17\": {\"O\": 1}, \"18\": {\"O\": 1}, \"19\": {\"O\": 1}, \"20\": {\"O\": 1}, \"21\": {\"O\": 1}, \"22\": {\"O\": 1}, \"23\": {\"O\": 1}, \"24\": {\"O\": 1}, \"25\": {\"O\": 1}, \"26\": {\"O\": 1}, \"27\": {\"O\": 1}, \"28\": {\"O\": 1}, \"29\": {\"O\": 1}, \"30\": {\"O\": 1}, \"31\": {\"O\": 1}, \"32\": {\"O\": 1}, \"33\": {\"O\": 1}, \"34\": {\"O\": 1}, \"35\": {\"O\": 1}, \"36\": {\"O\": 1}, \"37\": {\"O\": 1}, \"38\": {\"O\": 1}, \"39\": {\"O\": 1}}" n_minim_iter=5 energy=-45160.277941658336 stress="0.3542883606262849 4.116718425240296e-12 2.5232033128950065e-12 4.116718425240296e-12 0.3542883606272672 -2.4404891880649468e-12 2.5232033128950065e-12 -2.4404891880649468e-12 0.35428836062604574" free_energy=-45160.277941658336 pbc="T T T"
In      -4.19846067       2.96876001       5.32753580        0      -0.08912543       0.06302119      -0.10915591
In       7.04791914       1.06098282       1.65218351        1       0.08912543      -0.06302119       0.10915591
In       1.34900219      -0.95388859       5.14204317        2       0.08912543      -0.06302119       0.10915591
In      -1.42472924      -2.01487141       3.48985966        3      -0.00000000       0.00000000      -0.00000000
In      -1.34900219       3.97619572       3.39711334        4      -0.08912543       0.06302119       0.10915591
In       4.34991477      -2.91521289       5.23478949        5      -0.08912543      -0.12604239      -0.00000000
In      -1.34900219       1.11452993       5.23478948        6      -0.08912543      -0.12604239       0.00000000
In      -1.50045629       6.94495572       1.74492983        7       0.08912543       0.12604239      -0.00000000
In       4.19846067       0.05354711       3.58260597        8       0.08912543      -0.06302119      -0.10915591
In      -1.42472924       4.02974283      -0.00000000        9      -0.00000000       0.00000000      -0.00000000
In       4.19846066       6.09816135       0.09274631       10       0.08912543      -0.06302119      -0.10915591
In      -1.34900219      -2.06841852       6.88697300       11      -0.08912543       0.06302119       0.10915591
In       4.19846067       2.91521290       1.74492983       12       0.08912543       0.12604239      -0.00000000
In       1.50045629       4.98363142       1.83767614       13      -0.08912543       0.06302119      -0.10915591
In       4.27418772       0.00000000      -0.00000000       14       0.00000000       0.00000000       0.00000000
In       1.42472924       2.01487142       3.48985966       15      -0.00000000       0.00000000       0.00000000
O        0.78529680       3.96525683       3.48492057       16       0.09997849      -0.00262267       0.08338534
O       -2.06416167       3.05027275       5.29310554       17       0.09997849       0.07352516      -0.03942138
O       -0.72248563       2.10156451      -0.04340292       18       0.10017367       0.07338714      -0.03918232
O       -0.78529681      -1.04395608       1.79830679       19      -0.09997849       0.07090249       0.04396396
O        3.56387861       5.04864022       1.84170971       20       0.03599402      -0.09352442       0.08314629
O        2.13503834       2.94422412       1.80324588       21      -0.03599402      -0.11876901      -0.03942138
O        2.13503834       6.13415892       0.03846383       22      -0.03599402       0.02524459       0.12256766
O       -2.22220257       6.02525872       3.44645673       23      -0.03579883      -0.11890702      -0.03918232
O        3.57194410       1.92817832       7.02312223       24      -0.10017367      -0.07338714       0.03918232
O        5.07166104      -1.99551589       3.53326258       25       0.03579883       0.11890702       0.03918232
O        6.42140258       3.02806564       1.64814994       26      -0.10017367       0.00276068      -0.08314629
O        3.47671439       1.98696115       3.52832349       27      -0.03579883       0.02552062       0.12256766
O        0.62725591       4.07700862       6.98465840       28      -0.03579883       0.09338640      -0.08338534
O        2.22220257      -0.04726579      -0.00493909       29       0.03579883      -0.09338640       0.08338534
O       -3.57194411       1.00167719       5.33156937       30       0.10017367      -0.00276068       0.08314629
O        4.91362015       0.97947008       1.68661377       31      -0.09997849      -0.07352516       0.03942138
O        0.71442013       1.08551871       5.17647343       32       0.03599402       0.11876901       0.03942138
O        3.57194410      -0.92650112       5.28816645       33      -0.10017367       0.07062646       0.04396397
O        2.06416167       0.06448600       3.49479874       34      -0.09997849       0.00262267      -0.08338534
O        0.71442013      -2.10441609       6.94125548       35       0.03599402      -0.02524459      -0.12256766
O       -0.62725591       2.04278169       3.45139582       36       0.03579883      -0.02552062      -0.12256766
O       -0.71442014      -1.01889739       5.13800960       37      -0.03599402       0.09352442      -0.08314629
O       -0.72248563       4.95624395       1.69155286       38       0.10017367      -0.07062646      -0.04396396
O        3.63475528       5.07369891       5.18141252       39       0.09997849      -0.07090249      -0.04396396
40