40
Lattice="9.01132926160295 7.062848084160584e-10 3.1086244689504462e-15 -3.003776421200211 8.495962704276854 -1.223323220500561e-09 -3.0037764202013766 -4.247981351432142 7.357719532324442" Properties=species:S:1:pos:R:3:spacegroup_kinds:I:1:forces:R:3 spacegroup="P 1" unit_cell=conventional occupancy="_JSON {\"0\": {\"In\": 1}, \"1\": {\"In\": 1}, \"2\": {\"In\": 1}, \"3\": {\"In\": 1}, \"4\": {\"In\": 1}, \"5\": {\"In\": 1}, \"6\": {\"In\": 1}, \"7\": {\"In\": 1}, \"8\": {\"In\": 1}, \"9\": {\"In\": 1}, \"10\": {\"In\": 1}, \"11\": {\"In\": 1}, \"12\": {\"In\": 1}, \"13\": {\"In\": 1}, \"14\": {\"In\": 1}, \"15\": {\"In\": 1}, \"16\": {\"O\": 1}, \"17\": {\"O\": 1}, \"18\": {\"O\": 1}, \"19\": {\"O\": 1}, \"20\": {\"O\": 1}, \"21\": {\"O\": 1}, \"22\": {\"O\": 1}, \"23\": {\"O\": 1}, \"24\": {\"O\": 1}, \"25\": {\"O\": 1}, \"26\": {\"O\": 1}, \"27\": {\"O\": 1}, \"28\": {\"O\": 1}, \"29\": {\"O\": 1}, \"30\": {\"O\": 1}, \"31\": {\"O\": 1}, \"32\": {\"O\": 1}, \"33\": {\"O\": 1}, \"34\": {\"O\": 1}, \"35\": {\"O\": 1}, \"36\": {\"O\": 1}, \"37\": {\"O\": 1}, \"38\": {\"O\": 1}, \"39\": {\"O\": 1}}" n_minim_iter=4 energy=-45150.83533327224 stress="0.011283009368793388 1.1703099870105858e-12 -1.3124149489341185e-12 1.1703099870105858e-12 0.011283009375405082 -3.02553327596764e-12 -1.3124149489341185e-12 -3.02553327596764e-12 0.011283009367446114" free_energy=-45150.83533327224 pbc="T T T"
In      -4.30404353       3.04341837       5.76522406        0      -0.00079178       0.00055987      -0.00096972
In       7.30781995       1.20456299       1.59249547        1       0.00079178      -0.00055987       0.00096972
In       1.30026711      -0.91942769       5.27135523        2       0.00079178      -0.00055987       0.00096972
In      -1.50188821      -2.12399067       3.67885976        3       0.00000000       0.00000000      -0.00000000
In      -1.30026711       4.10541370       3.43192535        4      -0.00079178       0.00055987       0.00096972
In       4.70728573      -2.90085071       5.51828965        5      -0.00079178      -0.00111974      -0.00000000
In      -1.30026711       1.34713064       5.51828965        6      -0.00079178      -0.00111974       0.00000000
In      -1.70350932       7.14883207       1.83942988        7       0.00079178       0.00111974       0.00000000
In       4.30404353       0.14256765       3.92579418        8       0.00079178      -0.00055987      -0.00096972
In      -1.50188821       4.24798135      -0.00000000        9       0.00000000       0.00000000       0.00000000
In       4.30404353       6.51453968       0.24693441       10       0.00079178      -0.00055987      -0.00096973
In      -1.30026711      -2.26655832       7.11078512       11      -0.00079178       0.00055987       0.00096972
In       4.30404353       2.90085072       1.83942988       12       0.00079178       0.00111974      -0.00000000
In       1.70350931       5.16740904       2.08636429       13      -0.00079178       0.00055987      -0.00096972
In       4.50566463       0.00000000      -0.00000000       14       0.00000000       0.00000000      -0.00000000
In       1.50188821       2.12399068       3.67885976       15       0.00000000      -0.00000000       0.00000000
O        0.87199916       4.24867713       4.01015177       16      -0.00039401       0.00292448      -0.00203370
O       -2.13177726       3.47254543       5.35204109       17      -0.00039401      -0.00322347      -0.00151582
O       -0.43976564       2.27611253       0.06660411       18      -0.00041323      -0.00320988      -0.00153936
O       -0.87199916      -0.77474015       2.00447333       19       0.00039401      -0.00029900      -0.00354952
O        3.98453964       5.06117541       1.93786921       20      -0.00290778      -0.00058976      -0.00201016
O        2.02301320       2.97633441       1.67318132       21       0.00290778       0.00144597      -0.00151582
O        2.02301320       6.33282235       0.26468789       22       0.00290778      -0.00203573      -0.00049433
O       -2.29252802       6.02788287       3.74546388       23       0.00288856       0.00145956      -0.00153936
O        3.44354206       1.97186882       7.29111541       24       0.00041323       0.00320988       0.00153936
O        5.29630444      -1.77990152       3.61225565       25      -0.00288856      -0.00145956       0.00153936
O        6.44731848       3.31972780       1.74099055       26       0.00041323      -0.00293807       0.00201016
O        3.71502482       2.35371611       3.94354766       27       0.00288856      -0.00206291      -0.00049433
O        0.71124840       4.36234508       7.02642752       28       0.00288856       0.00060335       0.00203370
O        2.29252802      -0.11436372       0.33129201       29      -0.00288856      -0.00060335      -0.00203370
O       -3.44354206       0.92825356       5.61672898       30      -0.00041323       0.00293807      -0.00201016
O        5.13555368       0.77543593       2.00567844       31       0.00039401       0.00322347       0.00151582
O        0.98076322       1.27164694       5.68453821       32      -0.00290778      -0.00144597       0.00151582
O        3.44354206      -1.04361526       5.68333309       33       0.00041323      -0.00027181      -0.00354952
O        2.13177726      -0.00069577       3.34756776       34       0.00039401      -0.00292448       0.00203370
O        0.98076322      -2.08484100       7.09303164       35      -0.00290778       0.00203573       0.00049433
O       -0.71124840       1.89426524       3.41417187       36      -0.00288856       0.00206291       0.00049433
O       -0.98076322      -0.81319406       5.41985031       37       0.00290778       0.00058976       0.00201016
O       -0.43976564       5.29159662       1.67438643       38      -0.00041323       0.00027181       0.00354952
O        3.87577558       5.02272151       5.35324620       39      -0.00039401       0.00029899       0.00354952
