40
Lattice="9.295335670786592 7.285407832569035e-10 1.0658141036401503e-14 -3.0984452242824054 8.763726514715025 -1.2618781575213234e-09 -3.0984452232521016 -4.381863256628966 7.589609794403717" Properties=species:S:1:pos:R:3:spacegroup_kinds:I:1:forces:R:3 spacegroup="P 1" unit_cell=conventional occupancy="_JSON {\"0\": {\"In\": 1}, \"1\": {\"In\": 1}, \"2\": {\"In\": 1}, \"3\": {\"In\": 1}, \"4\": {\"In\": 1}, \"5\": {\"In\": 1}, \"6\": {\"In\": 1}, \"7\": {\"In\": 1}, \"8\": {\"In\": 1}, \"9\": {\"In\": 1}, \"10\": {\"In\": 1}, \"11\": {\"In\": 1}, \"12\": {\"In\": 1}, \"13\": {\"In\": 1}, \"14\": {\"In\": 1}, \"15\": {\"In\": 1}, \"16\": {\"O\": 1}, \"17\": {\"O\": 1}, \"18\": {\"O\": 1}, \"19\": {\"O\": 1}, \"20\": {\"O\": 1}, \"21\": {\"O\": 1}, \"22\": {\"O\": 1}, \"23\": {\"O\": 1}, \"24\": {\"O\": 1}, \"25\": {\"O\": 1}, \"26\": {\"O\": 1}, \"27\": {\"O\": 1}, \"28\": {\"O\": 1}, \"29\": {\"O\": 1}, \"30\": {\"O\": 1}, \"31\": {\"O\": 1}, \"32\": {\"O\": 1}, \"33\": {\"O\": 1}, \"34\": {\"O\": 1}, \"35\": {\"O\": 1}, \"36\": {\"O\": 1}, \"37\": {\"O\": 1}, \"38\": {\"O\": 1}, \"39\": {\"O\": 1}}" n_minim_iter=3 energy=-45150.451800514464 stress="-0.0021300299579163134 -9.316858541249484e-13 -3.812625178779383e-13 -9.316858541249484e-13 -0.0021300299587242895 6.620730390648719e-14 -3.812625178779383e-13 6.620730390648719e-14 -0.0021300299601689303" free_energy=-45150.451800514464 pbc="T T T"
In      -4.44022481       3.13971307       5.94627213        0      -0.00176454       0.00124772      -0.00216111
In       7.53867003       1.24215019       1.64333766        1       0.00176454      -0.00124772       0.00216111
In       1.34177958      -0.94878144       5.43814256        2       0.00176454      -0.00124772       0.00216111
In      -1.54922261      -2.19093163       3.79480489        3       0.00000000       0.00000000      -0.00000000
In      -1.34177959       4.23517889       3.54074011        4      -0.00176454       0.00124772       0.00216111
In       4.85511086      -2.99302870       5.69220734        5      -0.00176454      -0.00249544      -0.00000000
In      -1.34177959       1.38883456       5.69220734        6      -0.00176454      -0.00249544       0.00000000
In      -1.75666564       7.37489196       1.89740244        7       0.00176454       0.00249544       0.00000000
In       4.44022481       0.14668437       4.04886968        8       0.00176454      -0.00124772      -0.00216111
In      -1.54922261       4.38186326      -0.00000000        9      -0.00000000      -0.00000000       0.00000000
In       4.44022481       6.71947926       0.25406478       10       0.00176454      -0.00124772      -0.00216111
In      -1.34177959      -2.33761600       7.33554501       11      -0.00176454       0.00124772       0.00216111
In       4.44022481       2.99302870       1.89740245       12       0.00176454       0.00249544      -0.00000000
In       1.75666564       5.33064470       2.15146723       13      -0.00176454       0.00124772      -0.00216111
In       4.64766783       0.00000000      -0.00000000       14      -0.00000000       0.00000000       0.00000000
In       1.54922261       2.19093163       3.79480489       15      -0.00000000      -0.00000000       0.00000000
O        0.88689065       4.37833500       4.14681774       16      -0.00368026      -0.00206078       0.00380512
O       -2.21155457       3.59301364       5.51925648       17      -0.00368026       0.00432572      -0.00011788
O       -0.45143081       2.34841820       0.08534924       18       0.00090866       0.00108087       0.00550237
O       -0.88689066      -0.79237787       2.07646443       19       0.00368026       0.00226494       0.00368725
O        4.12471060       5.22351754       1.99111519       20       0.00530508       0.00091185      -0.00181513
O        2.07217984       3.07833406       1.72445159       21      -0.00530508       0.00202787      -0.00011788
O        2.07217984       6.52704674       0.26666361       22      -0.00530508      -0.00111602      -0.00169725
O       -2.36458685       6.21560187       3.88015413       23      -0.00071617      -0.00121698       0.00550237
O        3.54987603       2.03344506       7.50426055       24      -0.00090866      -0.00108087      -0.00550237
O        5.46303207      -1.83373861       3.70945566       25       0.00071617       0.00121698      -0.00550237
O        6.64832125       3.43905534       1.80368970       26      -0.00090866       0.00530563       0.00181513
O        3.83230360       2.44344275       4.06146850       27      -0.00071617       0.00537368      -0.00169725
O        0.73385838       4.48654516       7.23759694       28      -0.00071617      -0.00415670      -0.00380512
O        2.36458684      -0.10468190       0.35201285       29       0.00071617       0.00415670       0.00380512
O       -3.54987603       0.94280792       5.78592009       30       0.00090866      -0.00530563      -0.00181513
O        5.30999979       0.78884962       2.07035331       31       0.00368026      -0.00432572       0.00011788
O        1.02626538       1.30352920       5.86515820       32       0.00530508      -0.00202787       0.00011788
O        3.54987603      -1.09063714       5.87126933       33      -0.00090866      -0.00422476       0.00368725
O        2.21155457       0.00352826       3.44279205       34       0.00368026       0.00206078      -0.00380512
O        1.02626538      -2.14518348       7.32294618       35       0.00530508       0.00111602       0.00169725
O       -0.73385838       1.93842051       3.52814129       36       0.00071617      -0.00537368       0.00169725
O       -1.02626538      -0.84165428       5.59849459       37      -0.00530508      -0.00091185       0.00181513
O       -0.45143081       5.47250040       1.71834046       38       0.00090866       0.00422476      -0.00368725
O        3.98533588       5.17424114       5.51314535       39      -0.00368026      -0.00226494      -0.00368725
