40
Lattice="9.155534949155875 7.175859906283222e-10 1.2434497875801753e-14 -3.051844983728505 8.631921130345539 -1.2429022255844302e-09 -3.051844982713694 -4.315960564455182 7.475462983171519" Properties=species:S:1:pos:R:3:spacegroup_kinds:I:1:forces:R:3 spacegroup="P 1" unit_cell=conventional occupancy="_JSON {\"0\": {\"In\": 1}, \"1\": {\"In\": 1}, \"2\": {\"In\": 1}, \"3\": {\"In\": 1}, \"4\": {\"In\": 1}, \"5\": {\"In\": 1}, \"6\": {\"In\": 1}, \"7\": {\"In\": 1}, \"8\": {\"In\": 1}, \"9\": {\"In\": 1}, \"10\": {\"In\": 1}, \"11\": {\"In\": 1}, \"12\": {\"In\": 1}, \"13\": {\"In\": 1}, \"14\": {\"In\": 1}, \"15\": {\"In\": 1}, \"16\": {\"O\": 1}, \"17\": {\"O\": 1}, \"18\": {\"O\": 1}, \"19\": {\"O\": 1}, \"20\": {\"O\": 1}, \"21\": {\"O\": 1}, \"22\": {\"O\": 1}, \"23\": {\"O\": 1}, \"24\": {\"O\": 1}, \"25\": {\"O\": 1}, \"26\": {\"O\": 1}, \"27\": {\"O\": 1}, \"28\": {\"O\": 1}, \"29\": {\"O\": 1}, \"30\": {\"O\": 1}, \"31\": {\"O\": 1}, \"32\": {\"O\": 1}, \"33\": {\"O\": 1}, \"34\": {\"O\": 1}, \"35\": {\"O\": 1}, \"36\": {\"O\": 1}, \"37\": {\"O\": 1}, \"38\": {\"O\": 1}, \"39\": {\"O\": 1}}" n_minim_iter=1 energy=-45150.49784947674 stress="0.009848069770639815 -2.3904594053523824e-13 2.8440948364050324e-12 -2.3904594053523824e-13 0.009848069771187922 2.1180113894023536e-12 2.8440948364050324e-12 2.1180113894023536e-12 0.009848069770127277" free_energy=-45150.49784947674 pbc="T T T"
In      -4.37954406       3.09680530       5.84937035        0      -0.05187273       0.03667956      -0.06353086
In       7.43138903       1.21915527       1.62609262        1       0.05187273      -0.03667956       0.06353086
In       1.32769907      -0.93882501       5.36382412        2       0.05187273      -0.03667956       0.06353086
In      -1.52592249      -2.15798028       3.73773149        3      -0.00000000       0.00000000      -0.00000000
In      -1.32769907       4.17579544       3.49495837        4      -0.05187273       0.03667956       0.06353086
In       4.77599089      -2.95664017       5.60659723        5      -0.05187273      -0.07335912      -0.00000000
In      -1.32769907       1.35932039       5.60659723        6      -0.05187273      -0.07335912      -0.00000000
In      -1.72414591       7.27260074       1.86886574        7       0.05187273       0.07335912      -0.00000000
In       4.37954405       0.14016513       3.98050461        8       0.05187273      -0.03667956      -0.06353086
In      -1.52592249       4.31596057      -0.00000000        9       0.00000000       0.00000000       0.00000000
In       4.37954405       6.61410598       0.24277312       10       0.05187273      -0.03667956      -0.06353086
In      -1.32769907      -2.29814541       7.23268986       11      -0.05187273       0.03667956       0.06353086
In       4.37954405       2.95664018       1.86886574       12       0.05187273       0.07335912       0.00000000
In       1.72414591       5.25478558       2.11163886       13      -0.05187273       0.03667956      -0.06353086
In       4.57776747       0.00000000      -0.00000000       14       0.00000000      -0.00000000       0.00000000
In       1.52592249       2.15798028       3.73773149       15       0.00000000      -0.00000000      -0.00000000
O        0.87907864       4.31588252       4.07561431       16       0.00483081       0.02093835       0.03929046
O       -2.17276634       3.52962456       5.43772342       17       0.00483081       0.02355736      -0.03777837
O       -0.44841207       2.31032196       0.07415448       18       0.04356123      -0.00382918       0.00965651
O       -0.87907865      -0.78641406       2.03787475       19      -0.00483081       0.04449571       0.00151209
O        4.05201739       5.14518774       1.96372027       20       0.02059982      -0.03892052      -0.00814442
O        2.05167257       3.02994251       1.69999193       21      -0.02059982      -0.01240698      -0.03777837
O        2.05167257       6.43120579       0.26372833       22      -0.02059982      -0.02651354       0.02963395
O       -2.32766313       6.12660049       3.81188597       23       0.01813059      -0.03979352       0.00965651
O        3.50025705       2.00563861       7.40130850       24      -0.04356123       0.00382918      -0.00965651
O        5.37950811      -1.81063992       3.66357701       25      -0.01813059       0.03979352      -0.00965651
O        6.55210204       3.37736093       1.77401122       26      -0.04356123       0.00644819       0.00814442
O        3.77602684       2.39587013       4.00145983       27       0.01813059       0.02825954       0.02963395
O        0.72418186       4.42541108       7.13758016       28       0.01813059       0.01153398      -0.03929046
O        2.32766312      -0.10945052       0.33788282       29      -0.01813059      -0.01153398       0.03929046
O       -3.50025706       0.93859964       5.70145176       30       0.04356123      -0.00644819      -0.00814442
O        5.22461132       0.78633601       2.03773956       31      -0.00483081      -0.02355736       0.03777837
O        1.00017241       1.28601806       5.77547105       32       0.02059982       0.01240698       0.03777837
O        3.50025705      -1.06703896       5.77560624       33      -0.04356123      -0.01027737       0.00151209
O        2.17276634       0.00007805       3.39984867       34      -0.00483081      -0.02093835      -0.03929046
O        1.00017241      -2.11524522       7.21173464       35       0.02059982       0.02651354      -0.02963395
O       -0.72418186       1.92009044       3.47400315       36      -0.01813059      -0.02825954      -0.02963395
O       -1.00017241      -0.82922717       5.51174271       37      -0.02059982       0.03892052       0.00814442
O       -0.44841207       5.38299953       1.69985674       38       0.04356123       0.01027737      -0.00151209
O        3.93092363       5.10237463       5.43758823       39       0.00483081      -0.04449571      -0.00151209
40
Lattice="9.155534949155875 7.175859906283222e-10 1.2434497875801753e-14 -3.051844983728505 8.631921130345539 -1.2429022255844302e-09 -3.051844982713694 -4.315960564455182 7.475462983171519" Properties=species:S:1:pos:R:3:spacegroup_kinds:I:1:forces:R:3 spacegroup="P 1" unit_cell=conventional occupancy="_JSON {\"0\": {\"In\": 1}, \"1\": {\"In\": 1}, \"2\": {\"In\": 1}, \"3\": {\"In\": 1}, \"4\": {\"In\": 1}, \"5\": {\"In\": 1}, \"6\": {\"In\": 1}, \"7\": {\"In\": 1}, \"8\": {\"In\": 1}, \"9\": {\"In\": 1}, \"10\": {\"In\": 1}, \"11\": {\"In\": 1}, \"12\": {\"In\": 1}, \"13\": {\"In\": 1}, \"14\": {\"In\": 1}, \"15\": {\"In\": 1}, \"16\": {\"O\": 1}, \"17\": {\"O\": 1}, \"18\": {\"O\": 1}, \"19\": {\"O\": 1}, \"20\": {\"O\": 1}, \"21\": {\"O\": 1}, \"22\": {\"O\": 1}, \"23\": {\"O\": 1}, \"24\": {\"O\": 1}, \"25\": {\"O\": 1}, \"26\": {\"O\": 1}, \"27\": {\"O\": 1}, \"28\": {\"O\": 1}, \"29\": {\"O\": 1}, \"30\": {\"O\": 1}, \"31\": {\"O\": 1}, \"32\": {\"O\": 1}, \"33\": {\"O\": 1}, \"34\": {\"O\": 1}, \"35\": {\"O\": 1}, \"36\": {\"O\": 1}, \"37\": {\"O\": 1}, \"38\": {\"O\": 1}, \"39\": {\"O\": 1}}" n_minim_iter=2 energy=-45150.50144129067 stress="0.009487099927325132 -7.175736160554928e-13 -3.4580589327769636e-12 -7.175736160554928e-13 0.009487099925447367 -4.723430212557352e-13 -3.4580589327769636e-12 -4.723430212557352e-13 0.009487099926350063" free_energy=-45150.50144129067 pbc="T T T"
In      -4.38213803       3.09863951       5.84619340        0      -0.00797045       0.00563596      -0.00976177
In       7.43398301       1.21732105       1.62926958        1       0.00797045      -0.00563596       0.00976177
In       1.33029304      -0.94065923       5.36700107        2       0.00797045      -0.00563596       0.00976177
In      -1.52592249      -2.15798028       3.73773149        3       0.00000000       0.00000000      -0.00000000
In      -1.33029304       4.17762966       3.49813532        4      -0.00797045       0.00563596       0.00976177
In       4.77339692      -2.96030860       5.60659723        5      -0.00797045      -0.01127192       0.00000000
In      -1.33029304       1.35565197       5.60659723        6      -0.00797045      -0.01127192       0.00000000
In      -1.72155194       7.27626917       1.86886574        7       0.00797045       0.01127192      -0.00000000
In       4.38213802       0.13833091       3.97732766        8       0.00797045      -0.00563596      -0.00976177
In      -1.52592249       4.31596057      -0.00000000        9      -0.00000000       0.00000000      -0.00000000
In       4.38213802       6.61227176       0.23959616       10       0.00797045      -0.00563596      -0.00976177
In      -1.33029304      -2.29631119       7.23586681       11      -0.00797045       0.00563596       0.00976177
In       4.38213802       2.96030860       1.86886574       12       0.00797045       0.01127192      -0.00000000
In       1.72155194       5.25661980       2.10846191       13      -0.00797045       0.00563596      -0.00976177
In       4.57776747       0.00000000      -0.00000000       14       0.00000000      -0.00000000      -0.00000000
In       1.52592249       2.15798028       3.73773149       15       0.00000000      -0.00000000       0.00000000
O        0.87932022       4.31692957       4.07757908       16      -0.00739119      -0.00961507      -0.01310240
O       -2.17252477       3.53080258       5.43583426       17      -0.00739119      -0.00653948       0.01487810
O       -0.44623373       2.31013048       0.07463737       18      -0.01769438       0.00074598       0.00225932
O       -0.87932022      -0.78418899       2.03795036       19       0.00739119      -0.01615455       0.00177569
O        4.05304751       5.14324146       1.96331299       20      -0.00370175       0.01745896      -0.00048362
O        2.05064245       3.02932209       1.69810277       21       0.00370175       0.00914831       0.01487810
O        2.05064245       6.42987994       0.26521022       22       0.00370175       0.00831065      -0.01536172
O       -2.32675648       6.12461055       3.81236886       23      -0.00660144       0.01643377       0.00225932
O        3.49807871       2.00583009       7.40082561       24       0.01769438      -0.00074598      -0.00225932
O        5.37860146      -1.80864998       3.66309412       25       0.00660144      -0.01643377      -0.00225932
O        6.54992370       3.37768338       1.77441849       26       0.01769438       0.00232961       0.00048362
O        3.77693349       2.39728329       4.00294171       27      -0.00660144      -0.00626026      -0.01536172
O        0.72508850       4.42598786       7.13561538       28      -0.00660144      -0.01017351       0.01310240
O        2.32675648      -0.11002729       0.33984759       29       0.00660144       0.01017351      -0.01310240
O       -3.49807872       0.93827719       5.70104448       30      -0.01769438      -0.00232961      -0.00048362
O        5.22436975       0.78515799       2.03962872       31       0.00739119       0.00653948      -0.01487810
O        1.00120253       1.28663848       5.77736021       32      -0.00370175      -0.00914831      -0.01487810
O        3.49807871      -1.06755290       5.77568185       33       0.01769438      -0.00158364       0.00177569
O        2.17252476      -0.00096900       3.39788389       34       0.00739119       0.00961507       0.01310240
O        1.00120253      -2.11391937       7.21025275       35      -0.00370175      -0.00831065       0.01536172
O       -0.72508851       1.91867728       3.47252126       36       0.00660144       0.00626026       0.01536172
O       -1.00120253      -0.82728089       5.51214998       37       0.00370175      -0.01745896       0.00048362
O       -0.44623373       5.38351347       1.69978112       38      -0.01769438       0.00158364      -0.00177569
O        3.93116520       5.10014956       5.43751261       39      -0.00739119       0.01615455      -0.00177569
40
Lattice="9.155534949155875 7.175859906283222e-10 1.2434497875801753e-14 -3.051844983728505 8.631921130345539 -1.2429022255844302e-09 -3.051844982713694 -4.315960564455182 7.475462983171519" Properties=species:S:1:pos:R:3:spacegroup_kinds:I:1:forces:R:3 spacegroup="P 1" unit_cell=conventional occupancy="_JSON {\"0\": {\"In\": 1}, \"1\": {\"In\": 1}, \"2\": {\"In\": 1}, \"3\": {\"In\": 1}, \"4\": {\"In\": 1}, \"5\": {\"In\": 1}, \"6\": {\"In\": 1}, \"7\": {\"In\": 1}, \"8\": {\"In\": 1}, \"9\": {\"In\": 1}, \"10\": {\"In\": 1}, \"11\": {\"In\": 1}, \"12\": {\"In\": 1}, \"13\": {\"In\": 1}, \"14\": {\"In\": 1}, \"15\": {\"In\": 1}, \"16\": {\"O\": 1}, \"17\": {\"O\": 1}, \"18\": {\"O\": 1}, \"19\": {\"O\": 1}, \"20\": {\"O\": 1}, \"21\": {\"O\": 1}, \"22\": {\"O\": 1}, \"23\": {\"O\": 1}, \"24\": {\"O\": 1}, \"25\": {\"O\": 1}, \"26\": {\"O\": 1}, \"27\": {\"O\": 1}, \"28\": {\"O\": 1}, \"29\": {\"O\": 1}, \"30\": {\"O\": 1}, \"31\": {\"O\": 1}, \"32\": {\"O\": 1}, \"33\": {\"O\": 1}, \"34\": {\"O\": 1}, \"35\": {\"O\": 1}, \"36\": {\"O\": 1}, \"37\": {\"O\": 1}, \"38\": {\"O\": 1}, \"39\": {\"O\": 1}}" n_minim_iter=3 energy=-45150.501890906584 stress="0.009487427147385928 5.519555637242759e-13 1.483939485300258e-12 5.519555637242759e-13 0.009487427147582174 -3.167251266866956e-13 1.483939485300258e-12 -3.167251266866956e-13 0.009487427150179436" free_energy=-45150.501890906584 pbc="T T T"
In      -4.38273914       3.09906457       5.84545719        0      -0.00673624       0.00476324      -0.00825017
In       7.43458412       1.21689600       1.63000579        1       0.00673624      -0.00476324       0.00825017
In       1.33089416      -0.94108428       5.36773728        2       0.00673624      -0.00476324       0.00825017
In      -1.52592249      -2.15798028       3.73773149        3       0.00000000      -0.00000000       0.00000000
In      -1.33089416       4.17805471       3.49887154        4      -0.00673624       0.00476324       0.00825017
In       4.77279581      -2.96115871       5.60659723        5      -0.00673624      -0.00952648      -0.00000000
In      -1.33089416       1.35480186       5.60659723        6      -0.00673624      -0.00952648       0.00000000
In      -1.72095083       7.27711928       1.86886574        7       0.00673624       0.00952648      -0.00000000
In       4.38273914       0.13790586       3.97659144        8       0.00673624      -0.00476324      -0.00825017
In      -1.52592249       4.31596057      -0.00000000        9       0.00000000       0.00000000       0.00000000
In       4.38273914       6.61184671       0.23885995       10       0.00673624      -0.00476324      -0.00825017
In      -1.33089416      -2.29588614       7.23660303       11      -0.00673624       0.00476324       0.00825017
In       4.38273914       2.96115871       1.86886574       12       0.00673624       0.00952648      -0.00000000
In       1.72095082       5.25704485       2.10772569       13      -0.00673624       0.00476324      -0.00825017
In       4.57776747       0.00000000      -0.00000000       14       0.00000000       0.00000000      -0.00000000
In       1.52592249       2.15798028       3.73773149       15      -0.00000000       0.00000000      -0.00000000
O        0.87880762       4.31627516       4.07669644       16      -0.00401030       0.00171211      -0.00182935
O       -2.17303736       3.53036539       5.43684231       17      -0.00401030      -0.00244032      -0.00056805
O       -0.44743376       2.31017938       0.07480348       18      -0.00202333      -0.00384532       0.00186548
O       -0.87880763      -0.78528058       2.03807577       19       0.00401030      -0.00072821      -0.00239740
O        4.05280619       5.14442897       1.96327229       20      -0.00096399       0.00180524      -0.00426288
O        2.05088377       3.02995109       1.69911082       21       0.00096399       0.00459438      -0.00056805
O        2.05088377       6.43043844       0.26416146       22       0.00096399      -0.00278914      -0.00369483
O       -2.32720260       6.12572565       3.81253498       23       0.00295096       0.00318939       0.00186548
O        3.49927874       2.00578119       7.40065949       24       0.00202333       0.00384532      -0.00186548
O        5.37904758      -1.80976508       3.66292800       25      -0.00295096      -0.00318939      -0.00186548
O        6.55112373       3.37785170       1.77445920       26       0.00202333      -0.00030711       0.00426288
O        3.77648737       2.39686960       4.00189295       27       0.00295096       0.00002086      -0.00369483
O        0.72464238       4.42528645       7.13649803       28       0.00295096      -0.00321024       0.00182935
O        2.32720260      -0.10932588       0.33896495       29      -0.00295096       0.00321024      -0.00182935
O       -3.49927875       0.93810887       5.70100378       30      -0.00202333       0.00030711      -0.00426288
O        5.22488234       0.78559518       2.03862066       31       0.00401030       0.00244032       0.00056805
O        1.00096121       1.28600948       5.77635215       32      -0.00096399      -0.00459438       0.00056805
O        3.49927874      -1.06767231       5.77580727       33       0.00202333      -0.00353821      -0.00239740
O        2.17303736      -0.00031459       3.39876654       34       0.00401030      -0.00171211       0.00182935
O        1.00096121      -2.11447787       7.21130152       35      -0.00096399       0.00278914       0.00369483
O       -0.72464239       1.91909097       3.47357002       36      -0.00295096      -0.00002086       0.00369483
O       -1.00096121      -0.82846840       5.51219069       37       0.00096399      -0.00180524       0.00426288
O       -0.44743376       5.38363288       1.69965571       38      -0.00202333       0.00353821       0.00239740
O        3.93065261       5.10124115       5.43738720       39      -0.00401030       0.00072821       0.00239740
40
Lattice="9.155534949155875 7.175859906283222e-10 1.2434497875801753e-14 -3.051844983728505 8.631921130345539 -1.2429022255844302e-09 -3.051844982713694 -4.315960564455182 7.475462983171519" Properties=species:S:1:pos:R:3:spacegroup_kinds:I:1:forces:R:3 spacegroup="P 1" unit_cell=conventional occupancy="_JSON {\"0\": {\"In\": 1}, \"1\": {\"In\": 1}, \"2\": {\"In\": 1}, \"3\": {\"In\": 1}, \"4\": {\"In\": 1}, \"5\": {\"In\": 1}, \"6\": {\"In\": 1}, \"7\": {\"In\": 1}, \"8\": {\"In\": 1}, \"9\": {\"In\": 1}, \"10\": {\"In\": 1}, \"11\": {\"In\": 1}, \"12\": {\"In\": 1}, \"13\": {\"In\": 1}, \"14\": {\"In\": 1}, \"15\": {\"In\": 1}, \"16\": {\"O\": 1}, \"17\": {\"O\": 1}, \"18\": {\"O\": 1}, \"19\": {\"O\": 1}, \"20\": {\"O\": 1}, \"21\": {\"O\": 1}, \"22\": {\"O\": 1}, \"23\": {\"O\": 1}, \"24\": {\"O\": 1}, \"25\": {\"O\": 1}, \"26\": {\"O\": 1}, \"27\": {\"O\": 1}, \"28\": {\"O\": 1}, \"29\": {\"O\": 1}, \"30\": {\"O\": 1}, \"31\": {\"O\": 1}, \"32\": {\"O\": 1}, \"33\": {\"O\": 1}, \"34\": {\"O\": 1}, \"35\": {\"O\": 1}, \"36\": {\"O\": 1}, \"37\": {\"O\": 1}, \"38\": {\"O\": 1}, \"39\": {\"O\": 1}}" n_minim_iter=4 energy=-45150.50200186063 stress="0.009417739469242088 -1.5484847964203384e-12 -1.892751700109102e-13 -1.5484847964203384e-12 0.009417739465201348 -1.3747845329222158e-12 -1.892751700109102e-13 -1.3747845329222158e-12 0.009417739468213834" free_energy=-45150.50200186063 pbc="T T T"
In      -4.38342160       3.09954714       5.84462135        0      -0.00008742       0.00006181      -0.00010707
In       7.43526658       1.21641343       1.63084163        1       0.00008742      -0.00006181       0.00010707
In       1.33157662      -0.94156685       5.36857312        2       0.00008742      -0.00006181       0.00010707
In      -1.52592249      -2.15798028       3.73773149        3       0.00000000       0.00000000      -0.00000000
In      -1.33157662       4.17853728       3.49970738        4      -0.00008742       0.00006181       0.00010707
In       4.77211335      -2.96212385       5.60659723        5      -0.00008742      -0.00012363       0.00000000
In      -1.33157662       1.35383671       5.60659723        6      -0.00008742      -0.00012363      -0.00000000
In      -1.72026837       7.27808442       1.86886574        7       0.00008742       0.00012363       0.00000000
In       4.38342160       0.13742329       3.97575560        8       0.00008742      -0.00006181      -0.00010707
In      -1.52592249       4.31596057      -0.00000000        9       0.00000000      -0.00000000      -0.00000000
In       4.38342160       6.61136414       0.23802411       10       0.00008742      -0.00006181      -0.00010707
In      -1.33157662      -2.29540357       7.23743887       11      -0.00008742       0.00006181       0.00010707
In       4.38342160       2.96212386       1.86886574       12       0.00008742       0.00012363       0.00000000
In       1.72026836       5.25752742       2.10688985       13      -0.00008742       0.00006181      -0.00010707
In       4.57776747       0.00000000      -0.00000000       14       0.00000000       0.00000000       0.00000000
In       1.52592249       2.15798028       3.73773149       15       0.00000000       0.00000000      -0.00000000
O        0.87847573       4.31605533       4.07636395       16      -0.00318237       0.00400156      -0.00079093
O       -2.17336925       3.53018735       5.43719894       17      -0.00318237      -0.00268574      -0.00306999
O       -0.44791950       2.31011013       0.07497169       18       0.00017977      -0.00506314       0.00104778
O       -0.87847573      -0.78567845       2.03809990       19       0.00318237       0.00131581      -0.00386092
O        4.05274897       5.14492394       1.96312821       20      -0.00147135      -0.00071088      -0.00490870
O        2.05094099       3.03032335       1.69946745       21       0.00147135       0.00389562      -0.00306999
O        2.05094099       6.43056116       0.26366076       22       0.00147135      -0.00460649      -0.00183871
O       -2.32729922       6.12620669       3.81270318       23       0.00483350       0.00151822       0.00104778
O        3.49976448       2.00585043       7.40049129       24      -0.00017977       0.00506314      -0.00104778
O        5.37914420      -1.81024612       3.66275980       25      -0.00483350      -0.00151822      -0.00104778
O        6.55160947       3.37796274       1.77460327       26      -0.00017977      -0.00162417       0.00490870
O        3.77639074       2.39677475       4.00139226       27       0.00483350       0.00014829      -0.00183871
O        0.72454576       4.42490026       7.13683052       28       0.00483350      -0.00166651       0.00079093
O        2.32729922      -0.10893969       0.33863246       29      -0.00483350       0.00166651      -0.00079093
O       -3.49976449       0.93799783       5.70085970       30       0.00017977       0.00162417      -0.00490870
O        5.22521423       0.78577322       2.03826404       31       0.00318237       0.00268574       0.00306999
O        1.00090399       1.28563722       5.77599553       32      -0.00147135      -0.00389562       0.00306999
O        3.49976448      -1.06785260       5.77583139       33      -0.00017977      -0.00343897      -0.00386092
O        2.17336925      -0.00009476       3.39909903       34       0.00318237      -0.00400156       0.00079093
O        1.00090399      -2.11460059       7.21180221       35      -0.00147135       0.00460649       0.00183871
O       -0.72454576       1.91918582       3.47407072       36      -0.00483350      -0.00014829       0.00183871
O       -1.00090399      -0.82896337       5.51233476       37       0.00147135       0.00071088       0.00490870
O       -0.44791950       5.38381317       1.69963158       38       0.00017977       0.00343897       0.00386092
O        3.93032071       5.10163902       5.43736307       39      -0.00318237      -0.00131581       0.00386092
