40
Lattice="8.120223655165653 6.364377913570252e-10 2.398081733190338e-14 -2.706741218988592 7.655820281546584 -1.1023630897000203e-09 -2.7067412180885486 -3.8279101401368445 6.630134851362369" Properties=species:S:1:pos:R:3:spacegroup_kinds:I:1:forces:R:3 spacegroup="P 1" unit_cell=conventional occupancy="_JSON {\"0\": {\"In\": 1}, \"1\": {\"In\": 1}, \"2\": {\"In\": 1}, \"3\": {\"In\": 1}, \"4\": {\"In\": 1}, \"5\": {\"In\": 1}, \"6\": {\"In\": 1}, \"7\": {\"In\": 1}, \"8\": {\"In\": 1}, \"9\": {\"In\": 1}, \"10\": {\"In\": 1}, \"11\": {\"In\": 1}, \"12\": {\"In\": 1}, \"13\": {\"In\": 1}, \"14\": {\"In\": 1}, \"15\": {\"In\": 1}, \"16\": {\"O\": 1}, \"17\": {\"O\": 1}, \"18\": {\"O\": 1}, \"19\": {\"O\": 1}, \"20\": {\"O\": 1}, \"21\": {\"O\": 1}, \"22\": {\"O\": 1}, \"23\": {\"O\": 1}, \"24\": {\"O\": 1}, \"25\": {\"O\": 1}, \"26\": {\"O\": 1}, \"27\": {\"O\": 1}, \"28\": {\"O\": 1}, \"29\": {\"O\": 1}, \"30\": {\"O\": 1}, \"31\": {\"O\": 1}, \"32\": {\"O\": 1}, \"33\": {\"O\": 1}, \"34\": {\"O\": 1}, \"35\": {\"O\": 1}, \"36\": {\"O\": 1}, \"37\": {\"O\": 1}, \"38\": {\"O\": 1}, \"39\": {\"O\": 1}}" n_minim_iter=1 energy=-45180.7381766773 stress="-0.2117613792372043 -8.922124944789385e-13 3.590484726210499e-13 -8.922124944789385e-13 -0.21176137923811664 -1.3664441838585025e-12 3.590484726210499e-13 -1.3664441838585025e-12 -0.21176137923750726" free_energy=-45180.7381766773 pbc="T T T"
In      -4.04765889       2.86212705       4.98785281        0      -0.37106556       0.26238297      -0.45446064
In       6.75440010       0.96578310       1.64228203        1       0.37106556      -0.26238297       0.45446064
In       1.34091766      -0.94817197       4.95734946        2       0.37106556      -0.26238297       0.45446064
In      -1.35337061      -1.91395507       3.31506742        3       0.00000000      -0.00000000       0.00000000
In      -1.34091767       3.81910458       3.29981574        4      -0.37106556       0.26238297       0.45446064
In       4.07256477      -2.85332148       4.97260114        5      -0.37106556      -0.52476595       0.00000000
In      -1.34091767       0.97458866       4.97260114        6      -0.37106556      -0.52476595       0.00000000
In      -1.36582355       6.68123163       1.65753371        7       0.37106556       0.52476595      -0.00000000
In       4.04765888       0.00880556       3.33031910        8       0.37106556      -0.26238297      -0.45446064
In      -1.35337061       3.82791014      -0.00000000        9      -0.00000000       0.00000000      -0.00000000
In       4.04765888       5.75067077       0.01525168       10       0.37106556      -0.26238297      -0.45446064
In      -1.34091767      -1.92276063       6.61488317       11      -0.37106556       0.26238297       0.45446064
In       4.04765888       2.85332149       1.65753371       12       0.37106556       0.52476595      -0.00000000
In       1.36582355       4.77608212       1.67278539       13      -0.37106556       0.26238297      -0.45446064
In       4.06011183       0.00000000      -0.00000000       14      -0.00000000      -0.00000000       0.00000000
In       1.35337061       1.91395507       3.31506742       15      -0.00000000       0.00000000       0.00000000
O        0.70737707       3.82128868       3.33255254       16      -0.23970633       0.26442500       0.79898995
O       -1.99936415       2.88938589       4.96959293       17      -0.23970633       0.55973309      -0.62849374
O       -0.65529956       1.93898871      -0.01440572       18       0.69712159      -0.10270428       0.51888145
O       -0.70737708      -0.94514571       1.67201062       19       0.23970633       0.82415809       0.17049621
O        3.39059386       4.76473871       1.68641634       20       0.60762353      -0.52458175      -0.34838524
O        2.02288858       2.83584503       1.65452550       21      -0.60762353       0.03941959      -0.62849374
O        2.02288858       5.75680382       0.03189083       22      -0.60762353      -0.56400135       0.28010850
O       -2.04652928       5.71335799       3.30066171       23       0.32920439      -0.62301778       0.51888145
O        3.36204078       1.88892143       6.64454056       24      -0.69712159       0.10270428      -0.51888145
O        4.75327049      -1.88544785       3.32947314       25      -0.32920439       0.62301778      -0.51888145
O        6.06878200       2.87097371       1.62865108       26      -0.69712159       0.39801237       0.34838524
O        3.36695316       1.91573297       3.34695826       27       0.32920439       0.76087341       0.28010850
O        0.66021194       3.85463947       6.61264973       28       0.32920439      -0.13785562      -0.79898995
O        2.04652927      -0.02672932       0.01748511       29      -0.32920439       0.13785562       0.79898995
O       -3.36204078       0.95693643       5.00148376       30       0.69712159      -0.39801237      -0.34838524
O        4.70610536       0.93852425       1.66054192       31       0.23970633      -0.55973309       0.62849374
O        0.68385264       0.99206511       4.97560934       32       0.60762353      -0.03941959       0.62849374
O        3.36204078      -0.93198500       4.98707805       33      -0.69712159      -0.50071666       0.17049621
O        1.99936414       0.00662146       3.29758231       34       0.23970633      -0.26442500      -0.79898995
O        0.68385264      -1.92889367       6.59824402       35       0.60762353       0.56400135      -0.28010850
O       -0.66021195       1.91217718       3.28317659       36      -0.32920439      -0.76087341      -0.28010850
O       -0.68385264      -0.93682856       4.94371851       37      -0.60762353       0.52458175       0.34838524
O       -0.65529956       4.75989514       1.64305680       38       0.69712159       0.50071666      -0.17049621
O        3.41411829       4.77305585       4.95812423       39      -0.23970633      -0.82415809      -0.17049620
40
Lattice="8.120223655165653 6.364377913570252e-10 2.3980817331903394e-14 -2.706741218988592 7.655820281546585 -1.1023630897000203e-09 -2.7067412180885486 -3.827910140136845 6.63013485136237" Properties=species:S:1:pos:R:3:spacegroup_kinds:I:1:forces:R:3 spacegroup="P 1" unit_cell=conventional occupancy="_JSON {\"0\": {\"In\": 1}, \"1\": {\"In\": 1}, \"2\": {\"In\": 1}, \"3\": {\"In\": 1}, \"4\": {\"In\": 1}, \"5\": {\"In\": 1}, \"6\": {\"In\": 1}, \"7\": {\"In\": 1}, \"8\": {\"In\": 1}, \"9\": {\"In\": 1}, \"10\": {\"In\": 1}, \"11\": {\"In\": 1}, \"12\": {\"In\": 1}, \"13\": {\"In\": 1}, \"14\": {\"In\": 1}, \"15\": {\"In\": 1}, \"16\": {\"O\": 1}, \"17\": {\"O\": 1}, \"18\": {\"O\": 1}, \"19\": {\"O\": 1}, \"20\": {\"O\": 1}, \"21\": {\"O\": 1}, \"22\": {\"O\": 1}, \"23\": {\"O\": 1}, \"24\": {\"O\": 1}, \"25\": {\"O\": 1}, \"26\": {\"O\": 1}, \"27\": {\"O\": 1}, \"28\": {\"O\": 1}, \"29\": {\"O\": 1}, \"30\": {\"O\": 1}, \"31\": {\"O\": 1}, \"32\": {\"O\": 1}, \"33\": {\"O\": 1}, \"34\": {\"O\": 1}, \"35\": {\"O\": 1}, \"36\": {\"O\": 1}, \"37\": {\"O\": 1}, \"38\": {\"O\": 1}, \"39\": {\"O\": 1}}" n_minim_iter=2 energy=-45180.84001133658 stress="-0.18688533488179798 2.989648817053926e-12 -9.150038614138434e-13 2.989648817053926e-12 -0.18688533488029752 -2.371536893378823e-13 -9.150038614138434e-13 -2.371536893378823e-13 -0.18688533488293874" free_energy=-45180.84001133658 pbc="T T T"
In      -4.05295982       2.86587537       4.98136052        0       0.00470832      -0.00332928       0.00576649
In       6.75970104       0.96203477       1.64877433        1      -0.00470832       0.00332928      -0.00576649
In       1.34621860      -0.95192030       4.96384175        2      -0.00470832       0.00332928      -0.00576649
In      -1.35337061      -1.91395507       3.31506742        3       0.00000000      -0.00000000      -0.00000000
In      -1.34621860       3.82285291       3.30630804        4       0.00470832      -0.00332928      -0.00576649
In       4.06726383      -2.86081814       4.97260114        5       0.00470832       0.00665857       0.00000000
In      -1.34621860       0.96709200       4.97260114        6       0.00470832       0.00665857      -0.00000000
In      -1.36052262       6.68872828       1.65753371        7      -0.00470832      -0.00665857      -0.00000000
In       4.05295982       0.00505723       3.32382681        8      -0.00470832       0.00332928       0.00576649
In      -1.35337061       3.82791014      -0.00000000        9       0.00000000      -0.00000000       0.00000000
In       4.05295982       5.74692245       0.00875938       10      -0.00470832       0.00332928       0.00576649
In      -1.34621860      -1.91901230       6.62137547       11       0.00470832      -0.00332928      -0.00576649
In       4.05295982       2.86081814       1.65753371       12      -0.00470832      -0.00665857      -0.00000000
In       1.36052261       4.77983045       1.66629309       13       0.00470832      -0.00332928       0.00576649
In       4.06011183       0.00000000      -0.00000000       14       0.00000000       0.00000000       0.00000000
In       1.35337061       1.91395507       3.31506742       15      -0.00000000       0.00000000      -0.00000000
O        0.70395270       3.82506618       3.34396668       16      -0.18704151      -0.03452381      -0.51246103
O       -2.00278852       2.89738208       4.96061445       17      -0.18704151      -0.42654237       0.28612901
O       -0.64534068       1.93752151      -0.00699313       18      -0.49704453      -0.20733713      -0.09354560
O       -0.70395270      -0.93337202       1.67444628       19       0.18704151      -0.46106617      -0.22633202
O        3.39927419       4.75724468       1.68143940       20      -0.33980083       0.40705760      -0.13278642
O        2.01420824       2.83640817       1.64554702       21       0.33980083       0.31852522       0.28612901
O        2.01420824       5.74874665       0.03589238       22       0.33980083       0.08853238      -0.41891543
O       -2.04182636       5.70445774       3.30807430       23       0.02979781       0.53773045      -0.09354560
O        3.35208190       1.89038864       6.63712797       24       0.49704453       0.20733713       0.09354560
O        4.74856757      -1.87654760       3.32206055       25      -0.02979781      -0.53773045       0.09354560
O        6.05882312       2.87665960       1.63362802       26       0.49704453      -0.18468143       0.13278642
O        3.37165608       1.92660259       3.35095981       27       0.02979781      -0.34987809      -0.41891543
O        0.66491486       3.85267010       6.60123559       28       0.02979781      -0.18785236       0.51246103
O        2.04182635      -0.02475996       0.02889926       29      -0.02979781       0.18785236      -0.51246103
O       -3.35208190       0.95125054       4.99650683       30      -0.49704453       0.18468143      -0.13278642
O        4.70952974       0.93052807       1.66952040       31       0.18704151       0.42654237      -0.28612901
O        0.69253297       0.99150197       4.98458783       32      -0.33980083      -0.31852522      -0.28612901
O        3.35208190      -0.93913809       4.98951371       33       0.49704453      -0.02265570      -0.22633202
O        2.00278852       0.00284396       3.28616816       34       0.18704151       0.03452381       0.51246103
O        0.69253297      -1.92083651       6.59424247       35      -0.33980083      -0.08853238       0.41891543
O       -0.66491486       1.90130756       3.27917504       36      -0.02979781       0.34987809       0.41891543
O       -0.69253298      -0.92933454       4.94869544       37       0.33980083      -0.40705760       0.13278642
O       -0.64534068       4.76704824       1.64062114       38      -0.49704453       0.02265570       0.22633202
O        3.41069391       4.76128217       4.95568857       39      -0.18704151       0.46106617       0.22633202
40
Lattice="8.120223655165653 6.364377913570252e-10 2.3980817331903397e-14 -2.706741218988592 7.6558202815465854 -1.1023630897000203e-09 -2.7067412180885486 -3.8279101401368454 6.630134851362372" Properties=species:S:1:pos:R:3:spacegroup_kinds:I:1:forces:R:3 spacegroup="P 1" unit_cell=conventional occupancy="_JSON {\"0\": {\"In\": 1}, \"1\": {\"In\": 1}, \"2\": {\"In\": 1}, \"3\": {\"In\": 1}, \"4\": {\"In\": 1}, \"5\": {\"In\": 1}, \"6\": {\"In\": 1}, \"7\": {\"In\": 1}, \"8\": {\"In\": 1}, \"9\": {\"In\": 1}, \"10\": {\"In\": 1}, \"11\": {\"In\": 1}, \"12\": {\"In\": 1}, \"13\": {\"In\": 1}, \"14\": {\"In\": 1}, \"15\": {\"In\": 1}, \"16\": {\"O\": 1}, \"17\": {\"O\": 1}, \"18\": {\"O\": 1}, \"19\": {\"O\": 1}, \"20\": {\"O\": 1}, \"21\": {\"O\": 1}, \"22\": {\"O\": 1}, \"23\": {\"O\": 1}, \"24\": {\"O\": 1}, \"25\": {\"O\": 1}, \"26\": {\"O\": 1}, \"27\": {\"O\": 1}, \"28\": {\"O\": 1}, \"29\": {\"O\": 1}, \"30\": {\"O\": 1}, \"31\": {\"O\": 1}, \"32\": {\"O\": 1}, \"33\": {\"O\": 1}, \"34\": {\"O\": 1}, \"35\": {\"O\": 1}, \"36\": {\"O\": 1}, \"37\": {\"O\": 1}, \"38\": {\"O\": 1}, \"39\": {\"O\": 1}}" n_minim_iter=3 energy=-45180.87759508988 stress="-0.19112839736268955 -3.7723221998013437e-13 -2.6314501655343445e-13 -3.7723221998013437e-13 -0.1911283973610512 -2.1794980649303227e-12 -2.6314501655343445e-13 -2.1794980649303227e-12 -0.191128397362687" free_energy=-45180.87759508988 pbc="T T T"
In      -4.05334527       2.86614793       4.98088844        0      -0.04893271       0.03460065      -0.05993008
In       6.76008649       0.96176222       1.64924640        1       0.04893271      -0.03460065       0.05993008
In       1.34660405      -0.95219285       4.96431383        2       0.04893271      -0.03460065       0.05993008
In      -1.35337061      -1.91395507       3.31506742        3      -0.00000000      -0.00000000      -0.00000000
In      -1.34660405       3.82312546       3.30678012        4      -0.04893271       0.03460065       0.05993008
In       4.06687838      -2.86136325       4.97260114        5      -0.04893271      -0.06920130      -0.00000000
In      -1.34660405       0.96654689       4.97260114        6      -0.04893271      -0.06920130       0.00000000
In      -1.36013717       6.68927339       1.65753371        7       0.04893271       0.06920130       0.00000000
In       4.05334527       0.00478468       3.32335473        8       0.04893271      -0.03460065      -0.05993008
In      -1.35337061       3.82791014      -0.00000000        9       0.00000000      -0.00000000       0.00000000
In       4.05334527       5.74664989       0.00828730       10       0.04893271      -0.03460065      -0.05993008
In      -1.34660405      -1.91873975       6.62184754       11      -0.04893271       0.03460065       0.05993008
In       4.05334527       2.86136325       1.65753371       12       0.04893271       0.06920130      -0.00000000
In       1.36013716       4.78010300       1.66582102       13      -0.04893271       0.03460065      -0.05993008
In       4.06011183       0.00000000      -0.00000000       14       0.00000000      -0.00000000       0.00000000
In       1.35337061       1.91395507       3.31506742       15      -0.00000000      -0.00000000      -0.00000000
O        0.70174602       3.82501985       3.33962319       16      -0.09723684      -0.01750187      -0.05813626
O       -2.00499520       2.89364367       4.96282632       17      -0.09723684      -0.04159654       0.04422519
O       -0.64964453       1.93526602      -0.00734976       18      -0.08813079      -0.04803549       0.05537777
O       -0.70174602      -0.93715676       1.67231466       19       0.09723684      -0.05909841      -0.01391106
O        3.39648514       4.76082353       1.67966441       20      -0.00680531       0.09107078      -0.06928884
O        2.01699729       2.83973478       1.64775889       21       0.00680531       0.10554128       0.04422519
O        2.01699729       5.74899889       0.03190551       22       0.00680531      -0.01447050      -0.11351403
O       -2.04113448       5.70926728       3.30771767       23       0.01591136       0.09910234       0.05537777
O        3.35638575       1.89264412       6.63748460       24       0.08813079       0.04803549      -0.05537777
O        4.74787570      -1.88135713       3.32241718       25      -0.01591136      -0.09910234      -0.05537777
O        6.06312697       2.87522301       1.63540301       26       0.08813079       0.02394082       0.06928884
O        3.37234796       1.92388897       3.34697294       27       0.01591136      -0.00159261      -0.11351403
O        0.66560674       3.85057418       6.60557908       28       0.01591136      -0.09750973       0.05813626
O        2.04113448      -0.02266404       0.02455576       29      -0.01591136       0.09750973      -0.05813625
O       -3.35638575       0.95268713       4.99473184       30      -0.08813079      -0.02394082      -0.06928884
O        4.71173641       0.93426648       1.66730853       31       0.09723684       0.04159654      -0.04422519
O        0.68974392       0.98817536       4.98237595       32      -0.00680531      -0.10554129      -0.04422519
O        3.35638575      -0.93995699       4.98738208       33       0.08813079      -0.07197630      -0.01391106
O        2.00499519       0.00289029       3.29051166       34       0.09723684       0.01750187       0.05813625
O        0.68974393      -1.92108874       6.59822933       35      -0.00680531       0.01447050       0.11351403
O       -0.66560674       1.90402118       3.28316191       36      -0.01591136       0.00159261       0.11351403
O       -0.68974393      -0.93291338       4.95047044       37       0.00680531      -0.09107078       0.06928884
O       -0.64964453       4.76786713       1.64275276       38      -0.08813079       0.07197630       0.01391106
O        3.40848724       4.76506691       4.95782019       39      -0.09723684       0.05909841       0.01391106
40
Lattice="8.120223655165653 6.364377913570252e-10 2.3980817331903397e-14 -2.706741218988592 7.6558202815465854 -1.1023630897000203e-09 -2.7067412180885486 -3.8279101401368454 6.630134851362372" Properties=species:S:1:pos:R:3:spacegroup_kinds:I:1:forces:R:3 spacegroup="P 1" unit_cell=conventional occupancy="_JSON {\"0\": {\"In\": 1}, \"1\": {\"In\": 1}, \"2\": {\"In\": 1}, \"3\": {\"In\": 1}, \"4\": {\"In\": 1}, \"5\": {\"In\": 1}, \"6\": {\"In\": 1}, \"7\": {\"In\": 1}, \"8\": {\"In\": 1}, \"9\": {\"In\": 1}, \"10\": {\"In\": 1}, \"11\": {\"In\": 1}, \"12\": {\"In\": 1}, \"13\": {\"In\": 1}, \"14\": {\"In\": 1}, \"15\": {\"In\": 1}, \"16\": {\"O\": 1}, \"17\": {\"O\": 1}, \"18\": {\"O\": 1}, \"19\": {\"O\": 1}, \"20\": {\"O\": 1}, \"21\": {\"O\": 1}, \"22\": {\"O\": 1}, \"23\": {\"O\": 1}, \"24\": {\"O\": 1}, \"25\": {\"O\": 1}, \"26\": {\"O\": 1}, \"27\": {\"O\": 1}, \"28\": {\"O\": 1}, \"29\": {\"O\": 1}, \"30\": {\"O\": 1}, \"31\": {\"O\": 1}, \"32\": {\"O\": 1}, \"33\": {\"O\": 1}, \"34\": {\"O\": 1}, \"35\": {\"O\": 1}, \"36\": {\"O\": 1}, \"37\": {\"O\": 1}, \"38\": {\"O\": 1}, \"39\": {\"O\": 1}}" n_minim_iter=4 energy=-45180.88247718262 stress="-0.19034722987831254 -1.4017065071093738e-14 1.5322314863009533e-13 -1.4017065071093738e-14 -0.1903472298798278 1.1408025401800963e-12 1.5322314863009533e-13 1.1408025401800963e-12 -0.19034722987791436" free_energy=-45180.88247718262 pbc="T T T"
In      -4.05447075       2.86694376       4.97951002        0      -0.02123685       0.01501672      -0.02600972
In       6.76121197       0.96096638       1.65062483        1       0.02123685      -0.01501672       0.02600972
In       1.34772953      -0.95298869       4.96569225        2       0.02123685      -0.01501672       0.02600972
In      -1.35337061      -1.91395507       3.31506742        3      -0.00000000      -0.00000000       0.00000000
In      -1.34772953       3.82392130       3.30815854        4      -0.02123685       0.01501672       0.02600972
In       4.06575290      -2.86295491       4.97260114        5      -0.02123685      -0.03003344      -0.00000000
In      -1.34772953       0.96495523       4.97260114        6      -0.02123685      -0.03003344       0.00000000
In      -1.35901169       6.69086506       1.65753371        7       0.02123685       0.03003344       0.00000000
In       4.05447075       0.00398885       3.32197631        8       0.02123685      -0.01501672      -0.02600972
In      -1.35337061       3.82791014      -0.00000000        9      -0.00000000       0.00000000       0.00000000
In       4.05447075       5.74585406       0.00690888       10       0.02123685      -0.01501672      -0.02600972
In      -1.34772953      -1.91794391       6.62322597       11      -0.02123685       0.01501672       0.02600972
In       4.05447075       2.86295492       1.65753371       12       0.02123685       0.03003344      -0.00000000
In       1.35901169       4.78089883       1.66444259       13      -0.02123685       0.01501672      -0.02600972
In       4.06011183       0.00000000      -0.00000000       14      -0.00000000       0.00000000      -0.00000000
In       1.35337061       1.91395507       3.31506742       15       0.00000000       0.00000000       0.00000000
O        0.69970207       3.82487376       3.33874121       16      -0.02447267       0.01015876       0.01421177
O       -2.00703914       2.89295290       4.96339383       17      -0.02447267       0.00722837      -0.01590363
O       -0.65111484       1.93416964      -0.00607969       18       0.00823519      -0.01589958       0.02415515
O       -0.69970208      -0.93799362       1.67200019       19       0.02447267       0.01738713      -0.00169186
O        3.39651520       4.76239365       1.67807988       20       0.01497253      -0.00344115      -0.02584701
O        2.01696723       2.84189209       1.64832640       21      -0.01497253       0.02066359      -0.01590363
O        2.01696723       5.74841171       0.02975348       22      -0.01497253      -0.02410474      -0.00994338
O       -2.04059090       5.71101896       3.30898773       23       0.01773533      -0.00246435       0.02415515
O        3.35785606       1.89374051       6.63621454       24      -0.00823519       0.01589958      -0.02415515
O        4.74733212      -1.88310882       3.32114711       25      -0.01773533       0.00246435      -0.02415515
O        6.06459728       2.87577472       1.63698754       26      -0.00823519       0.01296919       0.02584701
O        3.37289153       1.92411303       3.34482090       27       0.01773533       0.02215115      -0.00994338
O        0.66615032       3.84859843       6.60646106       28       0.01773533      -0.01968680      -0.01421177
O        2.04059090      -0.02068829       0.02367379       29      -0.01773533       0.01968680       0.01421177
O       -3.35785606       0.95213542       4.99314731       30       0.00823519      -0.01296919      -0.02584701
O        4.71378036       0.93495724       1.66674102       31       0.02447267      -0.00722837       0.01590363
O        0.68977398       0.98601806       4.98180845       32       0.01497253      -0.02066359       0.01590363
O        3.35785606      -0.94160508       4.98706762       33      -0.00823519      -0.02886876      -0.00169186
O        2.00703914       0.00303639       3.29139363       34       0.02447267      -0.01015876      -0.01421177
O        0.68977398      -1.92050156       6.60038137       35       0.01497253       0.02410474       0.00994338
O       -0.66615032       1.90379711       3.28531394       36      -0.01773533      -0.02215115       0.00994338
O       -0.68977398      -0.93448351       4.95205496       37      -0.01497253       0.00344115       0.02584701
O       -0.65111484       4.76951523       1.64306723       38       0.00823519       0.02886876       0.00169186
O        3.40644329       4.76590377       4.95813465       39      -0.02447267      -0.01738713       0.00169186
40
Lattice="8.120223655165653 6.364377913570252e-10 2.3980817331903397e-14 -2.706741218988592 7.6558202815465854 -1.1023630897000203e-09 -2.7067412180885486 -3.8279101401368454 6.630134851362372" Properties=species:S:1:pos:R:3:spacegroup_kinds:I:1:forces:R:3 spacegroup="P 1" unit_cell=conventional occupancy="_JSON {\"0\": {\"In\": 1}, \"1\": {\"In\": 1}, \"2\": {\"In\": 1}, \"3\": {\"In\": 1}, \"4\": {\"In\": 1}, \"5\": {\"In\": 1}, \"6\": {\"In\": 1}, \"7\": {\"In\": 1}, \"8\": {\"In\": 1}, \"9\": {\"In\": 1}, \"10\": {\"In\": 1}, \"11\": {\"In\": 1}, \"12\": {\"In\": 1}, \"13\": {\"In\": 1}, \"14\": {\"In\": 1}, \"15\": {\"In\": 1}, \"16\": {\"O\": 1}, \"17\": {\"O\": 1}, \"18\": {\"O\": 1}, \"19\": {\"O\": 1}, \"20\": {\"O\": 1}, \"21\": {\"O\": 1}, \"22\": {\"O\": 1}, \"23\": {\"O\": 1}, \"24\": {\"O\": 1}, \"25\": {\"O\": 1}, \"26\": {\"O\": 1}, \"27\": {\"O\": 1}, \"28\": {\"O\": 1}, \"29\": {\"O\": 1}, \"30\": {\"O\": 1}, \"31\": {\"O\": 1}, \"32\": {\"O\": 1}, \"33\": {\"O\": 1}, \"34\": {\"O\": 1}, \"35\": {\"O\": 1}, \"36\": {\"O\": 1}, \"37\": {\"O\": 1}, \"38\": {\"O\": 1}, \"39\": {\"O\": 1}}" n_minim_iter=5 energy=-45180.882941462805 stress="-0.18946942832317254 3.068748441294255e-13 -1.0690857199239644e-12 3.068748441294255e-13 -0.18946942832283986 5.511853469906068e-13 -1.0690857199239644e-12 5.511853469906068e-13 -0.18946942832001828" free_energy=-45180.882941462805 pbc="T T T"
In      -4.05499123       2.86731180       4.97887256        0      -0.00235151       0.00166277      -0.00287999
In       6.76173245       0.96059835       1.65126229        1       0.00235151      -0.00166277       0.00287999
In       1.34825001      -0.95335672       4.96632971        2       0.00235151      -0.00166277       0.00287999
In      -1.35337061      -1.91395507       3.31506742        3      -0.00000000      -0.00000000      -0.00000000
In      -1.34825001       3.82428933       3.30879600        4      -0.00235151       0.00166277       0.00287999
In       4.06523242      -2.86369099       4.97260114        5      -0.00235151      -0.00332553       0.00000000
In      -1.34825001       0.96421915       4.97260114        6      -0.00235151      -0.00332553      -0.00000000
In      -1.35849121       6.69160113       1.65753371        7       0.00235151       0.00332553      -0.00000000
In       4.05499123       0.00362081       3.32133885        8       0.00235151      -0.00166277      -0.00287999
In      -1.35337061       3.82791014      -0.00000000        9      -0.00000000       0.00000000       0.00000000
In       4.05499123       5.74548602       0.00627142       10       0.00235151      -0.00166277      -0.00287999
In      -1.34825001      -1.91757588       6.62386342       11      -0.00235151       0.00166277       0.00287999
In       4.05499123       2.86369099       1.65753371       12       0.00235151       0.00332553      -0.00000000
In       1.35849120       4.78126687       1.66380513       13      -0.00235151       0.00166277      -0.00287999
In       4.06011183       0.00000000      -0.00000000       14       0.00000000      -0.00000000      -0.00000000
In       1.35337061       1.91395507       3.31506742       15      -0.00000000      -0.00000000       0.00000000
O        0.69895237       3.82507958       3.33872223       16      -0.00084198      -0.00189977       0.00639442
O       -2.00778884       2.89283355       4.96322508       17      -0.00084198       0.00648762      -0.00155196
O       -0.65128322       1.93363923      -0.00553647       18       0.00404480       0.00303214       0.00443310
O       -0.69895238      -0.93790716       1.67181245       19       0.00084198       0.00458785       0.00484246
O        3.39665257       4.76262082       1.67734893       20       0.00639725      -0.00202839       0.00040936
O        2.01682986       2.84263870       1.64815765       21      -0.00639725      -0.00136871      -0.00155196
O        2.01682986       5.74789226       0.02919127       22      -0.00639725      -0.00065968       0.00196132
O       -2.04014696       5.71135452       3.30953095       23      -0.00151046      -0.00482419       0.00443310
O        3.35802444       1.89427092       6.63567132       24      -0.00404480      -0.00303214      -0.00443310
O        4.74688817      -1.88344437       3.32060390       25       0.00151046       0.00482419      -0.00443310
O        6.06476566       2.87597996       1.63771849       26      -0.00404480       0.00535525      -0.00040936
O        3.37333548       1.92441570       3.34425870       27      -0.00151046       0.00625127       0.00196132
O        0.66659426       3.84796022       6.60648005       28      -0.00151046      -0.00142708      -0.00639442
O        2.04014695      -0.02005007       0.02365480       29       0.00151046       0.00142708       0.00639442
O       -3.35802444       0.95193018       4.99241635       30       0.00404480      -0.00535525       0.00040936
O        4.71453006       0.93507659       1.66690977       31       0.00084198      -0.00648762       0.00155196
O        0.68991135       0.98527145       4.98197720       32       0.00639725       0.00136871       0.00155196
O        3.35802444      -0.94234073       4.98687988       33      -0.00404480      -0.00232311       0.00484246
O        2.00778884       0.00283057       3.29141262       34       0.00084198       0.00189977      -0.00639442
O        0.68991135      -1.91998212       6.60094357       35       0.00639725       0.00065968      -0.00196132
O       -0.66659427       1.90349445       3.28587615       36       0.00151046      -0.00625127      -0.00196132
O       -0.68991136      -0.93471067       4.95278592       37      -0.00639725       0.00202839      -0.00040936
O       -0.65128322       4.77025087       1.64325497       38       0.00404480       0.00232311      -0.00484246
O        3.40569359       4.76581730       4.95832239       39      -0.00084198      -0.00458785      -0.00484246
