40
Lattice="8.38234541228592 6.569847058105513e-10 9.233531961414354e-15 -2.7941151380480527 7.902951044148104 -1.1379492727646666e-09 -2.7941151371189425 -3.9514755214170534 6.844156369855633" Properties=species:S:1:pos:R:3:spacegroup_kinds:I:1:forces:R:3 spacegroup="P 1" unit_cell=conventional occupancy="_JSON {\"0\": {\"In\": 1}, \"1\": {\"In\": 1}, \"2\": {\"In\": 1}, \"3\": {\"In\": 1}, \"4\": {\"In\": 1}, \"5\": {\"In\": 1}, \"6\": {\"In\": 1}, \"7\": {\"In\": 1}, \"8\": {\"In\": 1}, \"9\": {\"In\": 1}, \"10\": {\"In\": 1}, \"11\": {\"In\": 1}, \"12\": {\"In\": 1}, \"13\": {\"In\": 1}, \"14\": {\"In\": 1}, \"15\": {\"In\": 1}, \"16\": {\"O\": 1}, \"17\": {\"O\": 1}, \"18\": {\"O\": 1}, \"19\": {\"O\": 1}, \"20\": {\"O\": 1}, \"21\": {\"O\": 1}, \"22\": {\"O\": 1}, \"23\": {\"O\": 1}, \"24\": {\"O\": 1}, \"25\": {\"O\": 1}, \"26\": {\"O\": 1}, \"27\": {\"O\": 1}, \"28\": {\"O\": 1}, \"29\": {\"O\": 1}, \"30\": {\"O\": 1}, \"31\": {\"O\": 1}, \"32\": {\"O\": 1}, \"33\": {\"O\": 1}, \"34\": {\"O\": 1}, \"35\": {\"O\": 1}, \"36\": {\"O\": 1}, \"37\": {\"O\": 1}, \"38\": {\"O\": 1}, \"39\": {\"O\": 1}}" n_minim_iter=9 energy=-45165.61622191374 stress="0.40954000873888935 -2.7511815373661533e-13 1.1015820485909994e-12 -2.7511815373661533e-13 0.4095400087358698 2.633123822716201e-12 1.1015820485909994e-12 2.633123822716201e-12 0.4095400087405921" free_energy=-45165.61622191374 pbc="T T T"
In      -4.14087186       2.92803857       5.19472298        0      -0.00154942       0.00109561      -0.00189765
In       6.93498699       1.02343695       1.64943338        1       0.00154942      -0.00109561       0.00189765
In       1.34675672      -0.95230081       5.07151157        2       0.00154942      -0.00109561       0.00189765
In      -1.39705757      -1.97573776       3.42207818        3      -0.00000000      -0.00000000       0.00000000
In      -1.34675672       3.91590745       3.36047248        4      -0.00154942       0.00109561       0.00189765
In       4.24147355      -2.89247050       5.13311728        5      -0.00154942      -0.00219122      -0.00000000
In      -1.34675672       1.05900502       5.13311727        6      -0.00154942      -0.00219122      -0.00000000
In      -1.44735842       6.84394602       1.71103909        7       0.00154942       0.00219122       0.00000000
In       4.14087186       0.03556807       3.48368389        8       0.00154942      -0.00109561      -0.00189765
In      -1.39705757       3.95147552      -0.00000000        9       0.00000000      -0.00000000       0.00000000
In       4.14087186       5.96278136       0.06160570       10       0.00154942      -0.00109561      -0.00189765
In      -1.34675672      -2.01130583       6.78255066       11      -0.00154942       0.00109561       0.00189765
In       4.14087186       2.89247050       1.71103909       12       0.00154942       0.00219122      -0.00000000
In       1.44735841       4.90377633       1.77264479       13      -0.00154942       0.00109561      -0.00189765
In       4.19117270       0.00000000      -0.00000000       14       0.00000000      -0.00000000      -0.00000000
In       1.39705757       1.97573776       3.42207818       15      -0.00000000      -0.00000000      -0.00000000
O        0.76256879       3.91240172       3.42219379       16       0.00634054       0.00305258      -0.00078999
O       -2.03154635       2.98324366       5.16689837       17       0.00634054      -0.00221044      -0.00224861
O       -0.69550729       2.03852138      -0.04095101       18       0.00290748       0.00021709      -0.00645323
O       -0.76256879      -1.00730566       1.74493580       19      -0.00634054       0.00084213      -0.00303861
O        3.48981121       4.93513811       1.78588680       20      -0.00419754      -0.00456791       0.00341462
O        2.09841906       2.89668347       1.74482019       21       0.00419754      -0.00524110      -0.00224861
O        2.09841906       5.98993016       0.04106661       22       0.00419754       0.00067319       0.00566323
O       -2.15377216       5.90343672       3.38112717       23       0.00076449      -0.00281357      -0.00645323
O        3.48962242       1.91295414       6.88510737       24      -0.00290748      -0.00021709       0.00645323
O        4.94788729      -1.95196119       3.46302919       25      -0.00076449       0.00281357       0.00645323
O        6.28373756       2.95953384       1.63619137       26      -0.00290749      -0.00548011      -0.00341462
O        3.43445812       1.95216143       3.46314480       27       0.00076449      -0.00418188       0.00566323
O        0.64034298       3.99882842       6.84404076       28       0.00076449       0.00699544       0.00078999
O        2.15377215      -0.04735289       0.00011561       29      -0.00076449      -0.00699544      -0.00078999
O       -3.48962243       0.99194168       5.20796499       30       0.00290748       0.00548011       0.00341462
O        4.82566148       0.96823186       1.67725799       31      -0.00634054       0.00221044       0.00224861
O        0.69569607       1.05479205       5.09933617       32      -0.00419754       0.00524110       0.00224861
O        3.48962243      -0.92101245       5.16701398       33      -0.00290748       0.00569720      -0.00303861
O        2.03154635       0.03907380       3.42196258       34      -0.00634054      -0.00305258       0.00078999
O        0.69569607      -2.03845463       6.80308975       35      -0.00419754      -0.00067319      -0.00566323
O       -0.64034298       1.99931409       3.38101157       36      -0.00076449       0.00418188      -0.00566323
O       -0.69569608      -0.98366258       5.05826956       37       0.00419754       0.00456791      -0.00341462
O       -0.69550729       4.87248798       1.67714238       38       0.00290748      -0.00569720       0.00303861
O        3.55668393       4.95878119       5.09922057       39       0.00634054      -0.00084213       0.00303861
