40
Lattice="9.084004410261592 7.119808996315564e-10 3.1336951037975714e-15 -3.0280014707584613 8.564481491528642 -1.233189156404853e-09 -3.0280014697515716 -4.2822407450523405 7.417058542727569" Properties=species:S:1:pos:R:3:spacegroup_kinds:I:1:forces:R:3 spacegroup="P 1" unit_cell=conventional occupancy="_JSON {\"0\": {\"In\": 1}, \"1\": {\"In\": 1}, \"2\": {\"In\": 1}, \"3\": {\"In\": 1}, \"4\": {\"In\": 1}, \"5\": {\"In\": 1}, \"6\": {\"In\": 1}, \"7\": {\"In\": 1}, \"8\": {\"In\": 1}, \"9\": {\"In\": 1}, \"10\": {\"In\": 1}, \"11\": {\"In\": 1}, \"12\": {\"In\": 1}, \"13\": {\"In\": 1}, \"14\": {\"In\": 1}, \"15\": {\"In\": 1}, \"16\": {\"O\": 1}, \"17\": {\"O\": 1}, \"18\": {\"O\": 1}, \"19\": {\"O\": 1}, \"20\": {\"O\": 1}, \"21\": {\"O\": 1}, \"22\": {\"O\": 1}, \"23\": {\"O\": 1}, \"24\": {\"O\": 1}, \"25\": {\"O\": 1}, \"26\": {\"O\": 1}, \"27\": {\"O\": 1}, \"28\": {\"O\": 1}, \"29\": {\"O\": 1}, \"30\": {\"O\": 1}, \"31\": {\"O\": 1}, \"32\": {\"O\": 1}, \"33\": {\"O\": 1}, \"34\": {\"O\": 1}, \"35\": {\"O\": 1}, \"36\": {\"O\": 1}, \"37\": {\"O\": 1}, \"38\": {\"O\": 1}, \"39\": {\"O\": 1}}" n_minim_iter=4 energy=-45150.83533327224 stress="0.011283009368793388 1.1703099870105858e-12 -1.3124149489341185e-12 1.1703099870105858e-12 0.011283009375405082 -3.02553327596764e-12 -1.3124149489341185e-12 -3.02553327596764e-12 0.011283009367446114" free_energy=-45150.83533327224 pbc="T T T"
In      -4.33875506       3.06796312       5.81171981        0      -0.00079178       0.00055987      -0.00096972
In       7.36675652       1.21427763       1.60533873        1       0.00079178      -0.00055987       0.00096972
In       1.31075358      -0.92684275       5.31386800        2       0.00079178      -0.00055987       0.00096972
In      -1.51400074      -2.14112037       3.70852927        3       0.00000000       0.00000000      -0.00000000
In      -1.31075359       4.13852331       3.45960336        4      -0.00079178       0.00055987       0.00096972
In       4.74524935      -2.92424568       5.56279390        5      -0.00079178      -0.00111974      -0.00000000
In      -1.31075359       1.35799507       5.56279390        6      -0.00079178      -0.00111974       0.00000000
In      -1.71724789       7.20648643       1.85426463        7       0.00079178       0.00111974       0.00000000
In       4.33875505       0.14371744       3.95745517        8       0.00079178      -0.00055987      -0.00096972
In      -1.51400074       4.28224075      -0.00000000        9       0.00000000       0.00000000       0.00000000
In       4.33875505       6.56707856       0.24892590       10       0.00079178      -0.00055987      -0.00096973
In      -1.31075359      -2.28483781       7.16813264       11      -0.00079178       0.00055987       0.00096972
In       4.33875505       2.92424569       1.85426463       12       0.00079178       0.00111974      -0.00000000
In       1.71724788       5.20908350       2.10319054       13      -0.00079178       0.00055987      -0.00096972
In       4.54200220       0.00000000      -0.00000000       14       0.00000000       0.00000000      -0.00000000
In       1.51400073       2.14112038       3.70852927       15       0.00000000      -0.00000000       0.00000000
O        0.87903171       4.28294213       4.04249310       16      -0.00039401       0.00292448      -0.00203370
O       -2.14896976       3.50055103       5.39520457       17      -0.00039401      -0.00322347      -0.00151582
O       -0.44331229       2.29446907       0.06714127       18      -0.00041323      -0.00320988      -0.00153936
O       -0.87903171      -0.78098833       2.02063913       19       0.00039401      -0.00029900      -0.00354952
O        4.01667441       5.10199311       1.95349786       20      -0.00290778      -0.00058976      -0.00201016
O        2.03932852       3.00033815       1.68667530       21       0.00290778       0.00144597      -0.00151582
O        2.03932852       6.38389571       0.26682256       22       0.00290778      -0.00203573      -0.00049433
O       -2.31101695       6.07649693       3.77567054       23       0.00288856       0.00145956      -0.00153936
O        3.47131376       1.98777168       7.34991727       24       0.00041323       0.00320988       0.00153936
O        5.33901842      -1.79425618       3.64138800       25      -0.00288856      -0.00145956       0.00153936
O        6.49931523       3.34650095       1.75503140       26       0.00041323      -0.00293807       0.00201016
O        3.74498599       2.37269851       3.97535183       27       0.00288856      -0.00206291      -0.00049433
O        0.71698452       4.39752680       7.08309471       28       0.00288856       0.00060335       0.00203370
O        2.31101695      -0.11528605       0.33396383       29      -0.00288856      -0.00060335      -0.00203370
O       -3.47131376       0.93573980       5.66202714       30      -0.00041323       0.00293807      -0.00201016
O        5.17697123       0.78168972       2.02185397       31       0.00039401       0.00322347       0.00151582
O        0.98867294       1.28190260       5.73038324       32      -0.00290778      -0.00144597       0.00151582
O        3.47131376      -1.05203188       5.72916841       33       0.00041323      -0.00027181      -0.00354952
O        2.14896976      -0.00070138       3.37456544       34       0.00039401      -0.00292448       0.00203370
O        0.98867294      -2.10165496       7.15023597       35      -0.00290778       0.00203573       0.00049433
O       -0.71698452       1.90954224       3.44170670       36      -0.00288856       0.00206291       0.00049433
O       -0.98867295      -0.81975236       5.46356067       37       0.00290778       0.00058976       0.00201016
O       -0.44331229       5.33427263       1.68789013       38      -0.00041323       0.00027181       0.00354952
O        3.90703318       5.06322908       5.39641940       39      -0.00039401       0.00029899       0.00354952
