40
Lattice="9.155534949155872 7.175866270832604e-10 4.9234473118546385e-15 -3.051844983728508 8.631921130345535 -1.2428978662966619e-09 -3.051844982713692 -4.315960564455181 7.475462983171527" Properties=species:S:1:pos:R:3:spacegroup_kinds:I:1:forces:R:3 spacegroup="P 1" unit_cell=conventional occupancy="_JSON {\"0\": {\"In\": 1}, \"1\": {\"In\": 1}, \"2\": {\"In\": 1}, \"3\": {\"In\": 1}, \"4\": {\"In\": 1}, \"5\": {\"In\": 1}, \"6\": {\"In\": 1}, \"7\": {\"In\": 1}, \"8\": {\"In\": 1}, \"9\": {\"In\": 1}, \"10\": {\"In\": 1}, \"11\": {\"In\": 1}, \"12\": {\"In\": 1}, \"13\": {\"In\": 1}, \"14\": {\"In\": 1}, \"15\": {\"In\": 1}, \"16\": {\"O\": 1}, \"17\": {\"O\": 1}, \"18\": {\"O\": 1}, \"19\": {\"O\": 1}, \"20\": {\"O\": 1}, \"21\": {\"O\": 1}, \"22\": {\"O\": 1}, \"23\": {\"O\": 1}, \"24\": {\"O\": 1}, \"25\": {\"O\": 1}, \"26\": {\"O\": 1}, \"27\": {\"O\": 1}, \"28\": {\"O\": 1}, \"29\": {\"O\": 1}, \"30\": {\"O\": 1}, \"31\": {\"O\": 1}, \"32\": {\"O\": 1}, \"33\": {\"O\": 1}, \"34\": {\"O\": 1}, \"35\": {\"O\": 1}, \"36\": {\"O\": 1}, \"37\": {\"O\": 1}, \"38\": {\"O\": 1}, \"39\": {\"O\": 1}}" n_minim_iter=7 energy=-45150.66663818497 stress="0.012718053735813388 -1.580147774659217e-13 1.4395027671618474e-12 -1.580147774659217e-13 0.012718053739831202 -2.532505361935928e-13 1.4395027671618474e-12 -2.532505361935928e-13 0.012718053734119049" free_energy=-45150.66663818497 pbc="T T T"
In      -4.37954406       3.09680530       5.84937035        0       0.00013272      -0.00009384       0.00016254
In       7.43138903       1.21915527       1.62609262        1      -0.00013272       0.00009384      -0.00016254
In       1.32769907      -0.93882501       5.36382412        2      -0.00013272       0.00009384      -0.00016254
In      -1.52592249      -2.15798028       3.73773149        3       0.00000000      -0.00000000      -0.00000000
In      -1.32769907       4.17579544       3.49495837        4       0.00013272      -0.00009384      -0.00016254
In       4.77599089      -2.95664017       5.60659723        5       0.00013272       0.00018769      -0.00000000
In      -1.32769907       1.35932039       5.60659723        6       0.00013272       0.00018769      -0.00000000
In      -1.72414591       7.27260074       1.86886574        7      -0.00013272      -0.00018769      -0.00000000
In       4.37954405       0.14016513       3.98050461        8      -0.00013272       0.00009385       0.00016254
In      -1.52592249       4.31596057      -0.00000000        9       0.00000000      -0.00000000       0.00000000
In       4.37954405       6.61410598       0.24277312       10      -0.00013272       0.00009385       0.00016254
In      -1.32769907      -2.29814541       7.23268986       11       0.00013272      -0.00009384      -0.00016254
In       4.37954405       2.95664018       1.86886574       12      -0.00013272      -0.00018769      -0.00000000
In       1.72414591       5.25478558       2.11163886       13       0.00013272      -0.00009384       0.00016254
In       4.57776747       0.00000000      -0.00000000       14      -0.00000000       0.00000000       0.00000000
In       1.52592249       2.15798028       3.73773149       15       0.00000000      -0.00000000       0.00000000
O        0.87907864       4.31588252       4.07561431       16       0.00013554      -0.00240850       0.00168703
O       -2.17276634       3.52962456       5.43772342       17       0.00013554       0.00266526       0.00124230
O       -0.44841207       2.31032196       0.07415448       18       0.00028726       0.00255798       0.00142813
O       -0.87907865      -0.78641406       2.03787475       19      -0.00013554       0.00025677       0.00292934
O        4.05201739       5.14518774       1.96372027       20       0.00246766       0.00056776       0.00150121
O        2.05167257       3.02994251       1.69999193       21      -0.00246766      -0.00101621       0.00124230
O        2.05167257       6.43120579       0.26372833       22      -0.00246766       0.00158397       0.00025891
O       -2.32766313       6.12660049       3.81188597       23      -0.00231593      -0.00112349       0.00142813
O        3.50025705       2.00563861       7.40130850       24      -0.00028726      -0.00255798      -0.00142813
O        5.37950811      -1.81063992       3.66357701       25       0.00231593       0.00112349      -0.00142813
O        6.55210204       3.37736093       1.77401122       26      -0.00028726       0.00251578      -0.00150121
O        3.77602684       2.39587013       4.00145983       27      -0.00231593       0.00179854       0.00025891
O        0.72418186       4.42541108       7.13758016       28      -0.00231593      -0.00067505      -0.00168704
O        2.32766312      -0.10945052       0.33788282       29       0.00231593       0.00067505       0.00168704
O       -3.50025706       0.93859964       5.70145176       30       0.00028726      -0.00251578       0.00150121
O        5.22461132       0.78633601       2.03773956       31      -0.00013554      -0.00266526      -0.00124230
O        1.00017241       1.28601806       5.77547105       32       0.00246766       0.00101621      -0.00124230
O        3.50025705      -1.06703896       5.77560624       33      -0.00028726       0.00004220       0.00292934
O        2.17276634       0.00007805       3.39984867       34      -0.00013554       0.00240850      -0.00168704
O        1.00017241      -2.11524522       7.21173464       35       0.00246766      -0.00158397      -0.00025891
O       -0.72418186       1.92009044       3.47400315       36       0.00231593      -0.00179854      -0.00025891
O       -1.00017241      -0.82922717       5.51174271       37      -0.00246766      -0.00056776      -0.00150121
O       -0.44841207       5.38299953       1.69985674       38       0.00028726      -0.00004220      -0.00292934
O        3.93092363       5.10237463       5.43758823       39       0.00013554      -0.00025677      -0.00292934
