1
Lattice="3.764282583146671 0.4689906081229406 -3.457379406808419e-10 0.7283912237373773 3.722797574603173 -7.843408724324169e-10 -2.2463369032924168 -2.095894090923536 2.225078432960811" Properties=species:S:1:pos:R:3:spacegroup_kinds:I:1:forces:R:3 spacegroup="P 1" unit_cell=conventional occupancy="_JSON {\"0\": {\"In\": 1}}" n_minim_iter=1 energy=-1971.06088377569 stress="-0.006207920630858724 -0.002638616790609994 6.992954405358483e-13 -0.002638616790609994 -0.005841806524716204 6.766103868879253e-13 6.992954405358483e-13 6.766103868879253e-13 -0.0033799045134179774" free_energy=-1971.06088377569 pbc="T T T"
In       0.00000000       0.00000000       0.00000000        0       0.00000000      -0.00000000       0.00000000
