1
Lattice="3.4460115147605563 0.19625624930280922 -2.7046645979774534e-10 0.4342833742545568 3.4241655663969914 -7.055756273269387e-10 -1.940147444359138 -1.8102109074138781 2.2073686235151735" Properties=species:S:1:pos:R:3:spacegroup_kinds:I:1:forces:R:3 spacegroup="P 1" unit_cell=conventional occupancy="_JSON {\"0\": {\"In\": 1}}" n_minim_iter=2 energy=-1970.668111268214 stress="-0.13879389221540248 -0.0019050063837445668 5.647455121091713e-13 -0.0019050063837445668 -0.13852956822875442 5.271085576524958e-13 5.647455121091713e-13 5.271085576524958e-13 -0.1367521448979999" free_energy=-1970.668111268214 pbc="T T T"
In       0.00000000       0.00000000       0.00000000        0       0.00000000       0.00000000       0.00000000
