1
Lattice="3.6091863689871997 0.40300886905824174 -3.222749972259113e-10 0.6518335245296643 3.5726398434381617 -7.495319359857746e-10 -2.130509946612695 -1.9878243558200523 2.1675156498663557" Properties=species:S:1:pos:R:3:spacegroup_kinds:I:1:forces:R:3 spacegroup="P 1" unit_cell=conventional occupancy="_JSON {\"0\": {\"In\": 1}}" n_minim_iter=2 energy=-1970.952270510088 stress="-0.0930042560747136 -6.236122485373625e-05 -1.0654821332699037e-13 -6.236122485373625e-05 -0.09299560331224768 3.380948646242101e-14 -1.0654821332699037e-13 3.380948646242101e-14 -0.09293741857547334" free_energy=-1970.952270510088 pbc="T T T"
In       0.00000000       0.00000000       0.00000000        0       0.00000000       0.00000000      -0.00000000
