1
Lattice="3.915011653299711 0.48776988855990067 -3.5958318599227747e-10 0.7575574006745506 3.8718655057144606 -8.157480238349092e-10 -2.3362845268315326 -2.1798176966800598 2.3141748267117324" Properties=species:S:1:pos:R:3:spacegroup_kinds:I:1:forces:R:3 spacegroup="P 1" unit_cell=conventional occupancy="_JSON {\"0\": {\"In\": 1}}" n_minim_iter=1 energy=-1970.979816342264 stress="0.0392996486249962 -0.006040335199130414 1.6121492458608235e-12 -0.006040335199130414 0.04013775892936706 1.5368627114791536e-12 1.6121492458608235e-12 1.5368627114791536e-12 0.04577355774228329" free_energy=-1970.979816342264 pbc="T T T"
In       0.00000000       0.00000000       0.00000000        0      -0.00000000      -0.00000000       0.00000000
