1
Lattice="3.485780584073302 0.2819660396196922 -2.9007070150910963e-10 0.5225400522582561 3.457907318247145 -7.181746982060144e-10 -2.0041603180197507 -1.8699366785044162 2.171830878742648" Properties=species:S:1:pos:R:3:spacegroup_kinds:I:1:forces:R:3 spacegroup="P 1" unit_cell=conventional occupancy="_JSON {\"0\": {\"In\": 1}}" n_minim_iter=1 energy=-1970.6574639900834 stress="-0.16877935335548788 0.013866703817693993 -3.685151225705942e-12 0.013866703817693993 -0.17070339018043512 -3.4384254839777863e-12 -3.685151225705942e-12 -3.4384254839777863e-12 -0.18364140609139193" free_energy=-1970.6574639900834 pbc="T T T"
In       0.00000000       0.00000000       0.00000000        0       0.00000000       0.00000000       0.00000000
1
Lattice="3.4460115147605563 0.19625624930280922 -2.7046645979774534e-10 0.4342833742545568 3.4241655663969914 -7.055756273269387e-10 -1.940147444359138 -1.8102109074138781 2.2073686235151735" Properties=species:S:1:pos:R:3:spacegroup_kinds:I:1:forces:R:3 spacegroup="P 1" unit_cell=conventional occupancy="_JSON {\"0\": {\"In\": 1}}" n_minim_iter=2 energy=-1970.668111268214 stress="-0.13879389221540248 -0.0019050063837445668 5.647455121091713e-13 -0.0019050063837445668 -0.13852956822875442 5.271085576524958e-13 5.647455121091713e-13 5.271085576524958e-13 -0.1367521448979999" free_energy=-1970.668111268214 pbc="T T T"
In       0.00000000       0.00000000       0.00000000        0       0.00000000       0.00000000       0.00000000
