1
Lattice="3.806263689967224 -0.04204867700542228 -2.476146400515963e-10 0.2214828489539055 3.800046936081195 -7.655175487177905e-10 -2.0138732692839096 -1.878999129018899 2.627372850817099" Properties=species:S:1:pos:R:3:spacegroup_kinds:I:1:forces:R:3 spacegroup="P 1" unit_cell=conventional occupancy="_JSON {\"0\": {\"In\": 1}}" n_minim_iter=1 energy=-1971.0106929548872 stress="0.001939826691853111 0.0044138844807218676 -1.2086525019562377e-12 0.0044138844807218676 0.0013273901391435633 -1.0726829035367762e-12 -1.2086525019562377e-12 -1.0726829035367762e-12 -0.002790885435932695" free_energy=-1971.0106929548872 pbc="T T T"
In       0.00000000       0.00000000       0.00000000        0       0.00000000       0.00000000       0.00000000
