1
Lattice="3.7548213881131267 -0.04148038197615872 -2.4426958676018325e-10 0.218489470538894 3.748688654714379 -7.551729617064013e-10 -1.9866554291517422 -1.8536041358571371 2.5918634593812806" Properties=species:S:1:pos:R:3:spacegroup_kinds:I:1:forces:R:3 spacegroup="P 1" unit_cell=conventional occupancy="_JSON {\"0\": {\"In\": 1}}" n_minim_iter=2 energy=-1971.0055703831285 stress="-0.012167681873542124 0.004171070428811658 -1.1083446124642496e-12 0.004171070428811658 -0.0127464274219176 -1.0232099360291557e-12 -1.1083446124642496e-12 -1.0232099360291557e-12 -0.01663815081079389" free_energy=-1971.0055703831285 pbc="T T T"
In       0.00000000       0.00000000       0.00000000        0       0.00000000       0.00000000       0.00000000
