1
Lattice="3.2716272622578058 0.1126013828891352 -2.4222076997238156e-10 0.3387600045763593 3.255989200515947 -6.659347227853134e-10 -1.8051936332725491 -1.6842952912779356 2.149569569180834" Properties=species:S:1:pos:R:3:spacegroup_kinds:I:1:forces:R:3 spacegroup="P 1" unit_cell=conventional occupancy="_JSON {\"0\": {\"In\": 1}}" n_minim_iter=1 energy=-1969.7048120780903 stress="-0.5836709805287482 -0.027548169985316794 7.583363310126968e-12 -0.027548169985316794 -0.579848609025866 7.075490525095718e-12 7.583363310126968e-12 7.075490525095718e-12 -0.5541454090244761" free_energy=-1969.7048120780903 pbc="T T T"
In       0.00000000       0.00000000       0.00000000        0       0.00000000       0.00000000       0.00000000
1
Lattice="3.3399203958725763 0.2632153587350574 -2.7656338673417677e-10 0.4937393805773673 3.313694614762611 -6.877538237926926e-10 -1.9168298880847099 -1.7884549863367787 2.086035119031298" Properties=species:S:1:pos:R:3:spacegroup_kinds:I:1:forces:R:3 spacegroup="P 1" unit_cell=conventional occupancy="_JSON {\"0\": {\"In\": 1}}" n_minim_iter=2 energy=-1969.749742328181 stress="-0.4534138668578944 0.004758877335951567 -1.2163995336174372e-12 0.004758877335951567 -0.45407417195708444 -1.2683578090638855e-12 -1.2163995336174372e-12 -1.2683578090638855e-12 -0.45851433535173747" free_energy=-1969.749742328181 pbc="T T T"
In       0.00000000       0.00000000       0.00000000        0       0.00000000       0.00000000      -0.00000000
