1
Lattice="3.700468855534588 0.46104007883659576 -3.3987637313027967e-10 0.7160432243191835 3.6596871185911106 -7.710436733250739e-10 -2.2082560397798154 -2.060363598281784 2.1873579521254456" Properties=species:S:1:pos:R:3:spacegroup_kinds:I:1:forces:R:3 spacegroup="P 1" unit_cell=conventional occupancy="_JSON {\"0\": {\"In\": 1}}" n_minim_iter=1 energy=-1971.0466272197345 stress="-0.032318183494746064 0.002436362001760372 -6.567928460656961e-13 0.002436362001760372 -0.03265623428691121 -6.128963102017963e-13 -6.567928460656961e-13 -6.128963102017963e-13 -0.034929427019657094" free_energy=-1971.0466272197345 pbc="T T T"
In       0.00000000       0.00000000       0.00000000        0      -0.00000000       0.00000000      -0.00000000
