79
Lattice="11.764506402117998 0.01526581519990899 0.0105466801006875 6.468203969902034 9.826808643969605 0.010547149196541481 6.46820852014741 3.4915597599805444 9.185611645176913" Properties=species:S:1:pos:R:3:spacegroup_kinds:I:1:forces:R:3 spacegroup="P 1" unit_cell=conventional occupancy="_JSON {\"0\": {\"In\": 1}, \"1\": {\"In\": 1}, \"2\": {\"In\": 1}, \"3\": {\"In\": 1}, \"4\": {\"O\": 1}, \"5\": {\"O\": 1}, \"6\": {\"O\": 1}, \"7\": {\"O\": 1}, \"8\": {\"O\": 1}, \"9\": {\"O\": 1}}" n_minim_iter=14 energy=-89733.0569767376 stress="0.022531589382193674 -0.0018335608800424108 -0.001271648382002373 -0.0018335608800424108 0.0249417532831007 -0.0006867819420489351 -0.001271648382002373 -0.0006867819420489351 0.025455003424284323" bulk_struct_test=bulk_In2O3_Ia3 vacancies=inequivalent origin=supercell_R3c_222 free_energy=-89733.0569767376 pbc="T T T"
In      10.58083300       5.71914857       3.94032199        0       0.00429891       0.00253820       0.00176905
In       7.94900964       4.28841001       2.98133564        1       0.00464945       0.00258552       0.00135665
In       4.37980499       2.37556673       1.61654086        2      -0.00236391       0.00277773      -0.00517072
In       1.73338531       0.92789129       0.64511817        3       0.00005016      -0.00178154      -0.00827863
O        7.11691670       5.07673513       1.14250160        5      -0.00194098       0.00000292      -0.00278370
O        8.20101298       2.18987422       2.53472775        6       0.00036421       0.00274116      -0.00204931
O        4.16471142       4.46570661       2.08143001        7      -0.00256313      -0.00006506      -0.00024144
O        6.31993657       4.34595775       4.39121291        8      -0.00450866       0.00221409       0.00480394
O        5.23932703       1.54238129       3.42661751        9       0.00111705      -0.00024898       0.00236760
In      13.84822662       7.49695108       8.49570019        0       0.00152540      -0.00100280       0.00697034
In      11.14567073       6.05862537       7.50255299        1      -0.00152961      -0.00616013       0.00341379
In       7.64515076       4.13206985       6.23467904        2      -0.00246518      -0.00358113       0.00080508
In       5.00725073       2.69382461       5.25198262        3       0.00507521      -0.00192846       0.00046978
O        9.27200420       4.06166998       4.82645476        4       0.00613689      -0.00140930      -0.00027335
O       10.34414482       6.90321522       5.72456018        5      -0.00181487       0.00161039       0.00185215
O       11.40877326       3.96549908       7.14994374        6       0.00193909       0.00259892      -0.00098724
O        7.40816154       6.23090788       6.66930463        7      -0.00058479       0.00232092      -0.00191663
O        9.57592032       6.08094533       8.95002420        8      -0.00007247       0.00201250       0.00393951
O        8.47641633       3.28002883       8.03200069        9      -0.00147545      -0.00153278       0.00124112
In      13.81592006      10.62863034       3.95489718        0       0.00188624       0.00531125       0.00034562
In      11.17797344       9.19528766       2.96519136        1      -0.00189067      -0.00220096      -0.00483689
In       7.64299862       7.28229015       1.65704335        2       0.00445225      -0.00238468       0.00029004
In       4.98767572       5.86733458       0.68279254        3       0.00114654      -0.00071413       0.00144658
O        9.25368441       7.21542171       0.22934368        4      -0.00614785       0.00075668       0.00122354
O       10.32467562      10.02167052       1.16774399        5      -0.00036759       0.00094544      -0.00329249
O       11.41877221       7.10190133       2.51418595        6       0.00150992       0.00088906       0.00262393
O        7.40037847       9.38361621       2.09695253        7      -0.00084295      -0.00177392       0.00189065
O        9.55476599       9.28821369       4.38350066        8       0.00674343      -0.00298880       0.00093735
O        8.47383760       6.44806713       3.46016313        9       0.00059972       0.00092047      -0.00046767
In      17.04488601      12.35206927       8.54918804        0      -0.00465524      -0.00217677      -0.00193774
In      14.41306251      10.94837565       7.55103379        1      -0.00430150      -0.00255109      -0.00173974
In      10.87493462       9.06569588       6.24041884        2      -0.00115058       0.00308735      -0.00358968
In       8.23929061       7.63076338       5.25140205        3       0.00099546       0.00149972      -0.00024563
O       12.49694768       8.96576808       4.83037078        4      -0.00000828      -0.00002816       0.00004552
O       13.57512174      11.79207858       5.75269175        5      -0.00151361      -0.00276711       0.00009244
O       14.64975132       8.86036082       7.07594445        6       0.00181180      -0.00230619      -0.00084511
O       10.63011707      11.14833915       6.69969835        7       0.00343038      -0.00486803       0.00107968
O       12.79348783      10.97318540       8.97914136        8      -0.00189552       0.00146927       0.00089525
O       11.72891514       8.15089212       8.07916060        9       0.00193382       0.00142677       0.00015515
In      16.46783108       5.70841440       3.96042099        0       0.00014449      -0.00253244      -0.00087255
In      13.80830384       4.28827209       2.97842961        1       0.00051189      -0.00029337      -0.00412540
In      10.32409793       2.40901589       1.66781981        2      -0.00004667       0.00837112      -0.00127347
In       7.67767881       0.98769143       0.65823374        3       0.00236419       0.00384821      -0.00442987
O       11.91099425       2.33499975       0.20746586        4      -0.00000341      -0.00082677       0.00120005
O       12.99323414       5.12252018       1.16473175        5      -0.00029369      -0.00092466      -0.00038736
O       14.06131172       2.20031777       2.49545721        6      -0.00473143       0.00034863      -0.00003336
O       10.04927433       4.49476396       2.09602629        7       0.00147910      -0.00061327       0.00187044
O       12.20040829       4.37489424       4.42311061        8       0.00190480      -0.00135939      -0.00105629
O       11.12531025       1.54701032       3.46061784        9       0.00084649      -0.00114161       0.00233401
In      19.69408099       7.47710023       8.53566423        0      -0.00240313       0.00062107      -0.00004597
In      17.06432322       6.04355592       7.54581959        1       0.00240247      -0.00017474      -0.00059303
In      13.53801319       4.11527079       6.24775557        2      -0.00114355      -0.00109869       0.00116876
In      10.88269031       2.70289542       5.26976810        3      -0.00444757       0.00056539       0.00233327
O       15.14687681       4.05525211       4.81638639        4      -0.00046756      -0.00102728      -0.00382116
O       16.20580639       6.87379468       5.75461880        5      -0.00403419      -0.00114683      -0.00554526
O       17.29696237       3.94375815       7.12554755        6       0.00028903       0.00068391       0.00073213
O       13.26498194       6.21644708       6.74345436        7      -0.00193113      -0.00065053      -0.00128074
O       15.41797829       6.13547261       8.98767732        8       0.00007613      -0.00440046      -0.00048562
O       14.36097929       3.30397093       8.05400536        9       0.00256758       0.00024624      -0.00001776
In      19.69972546      10.64986612       3.95694698        0      -0.00112060      -0.00104566       0.00270329
In      17.05867442       9.20111529       2.95660218        1       0.00111577      -0.00215677       0.00194607
In      13.51843841       7.30213302       1.65922801        2      -0.00507096       0.00024160       0.00196350
In      10.88053837       5.87360803       0.66245455        3       0.00246757       0.00050873       0.00363463
O       15.14331821       7.24237924       0.24232035        4       0.00045504       0.00394134      -0.00039270
O       16.22888259      10.06996136       1.15460711        5       0.00472795      -0.00009025      -0.00034321
O       17.31999819       7.08616267       2.53250738        6       0.00064218       0.00090619       0.00095858
O       13.28636186       9.41704818       2.08923922        7      -0.00111402      -0.00212327       0.00106771
O       15.43912786       9.26940482       4.37051656        8      -0.00672933       0.00017951       0.00312429
O       14.36377760       6.44440799       3.45169905        9      -0.00342692       0.00071526       0.00494176
In      22.95009817      12.37010443       8.55883003        0      -0.00051191       0.00396947      -0.00118916
In      20.29057101      10.94865261       7.57873531        1      -0.00015085       0.00171460       0.00206829
In      16.75460467       9.04504912       6.22795198        2      -0.00099175      -0.00030357      -0.00149940
In      14.11896062       7.61178699       5.23651630        3       0.00115821       0.00225305      -0.00416223
O       18.37920075       8.98607937       4.81728251        4      -0.00000702      -0.00261784       0.00379485
O       19.43840209      11.79579046       5.78444325        5      -0.00064574      -0.00121586      -0.00051192
O       20.55259627       8.85794497       7.12464876        6       0.00403019       0.00558813      -0.00088853
O       16.52005703      11.13912497       6.69927947        7      -0.00059657       0.00011435      -0.00102975
O       18.67395949      11.01326389       8.99490335        8       0.00452299      -0.00528003      -0.00037135
O       17.58573540       8.21510555       8.03937022        9       0.00058884       0.00096814      -0.00284428
