40
Lattice="8.441965255142616 6.616566921448909e-10 2.402973566667596e-14 -2.8139884190046898 7.959161171049538 -1.1460409048161745e-09 -2.8139884180689845 -3.979580584863103 6.892835767707612" Properties=species:S:1:pos:R:3:spacegroup_kinds:I:1:forces:R:3 spacegroup="P 1" unit_cell=conventional occupancy="_JSON {\"0\": {\"In\": 1}, \"1\": {\"In\": 1}, \"2\": {\"In\": 1}, \"3\": {\"In\": 1}, \"4\": {\"In\": 1}, \"5\": {\"In\": 1}, \"6\": {\"In\": 1}, \"7\": {\"In\": 1}, \"8\": {\"In\": 1}, \"9\": {\"In\": 1}, \"10\": {\"In\": 1}, \"11\": {\"In\": 1}, \"12\": {\"In\": 1}, \"13\": {\"In\": 1}, \"14\": {\"In\": 1}, \"15\": {\"In\": 1}, \"16\": {\"O\": 1}, \"17\": {\"O\": 1}, \"18\": {\"O\": 1}, \"19\": {\"O\": 1}, \"20\": {\"O\": 1}, \"21\": {\"O\": 1}, \"22\": {\"O\": 1}, \"23\": {\"O\": 1}, \"24\": {\"O\": 1}, \"25\": {\"O\": 1}, \"26\": {\"O\": 1}, \"27\": {\"O\": 1}, \"28\": {\"O\": 1}, \"29\": {\"O\": 1}, \"30\": {\"O\": 1}, \"31\": {\"O\": 1}, \"32\": {\"O\": 1}, \"33\": {\"O\": 1}, \"34\": {\"O\": 1}, \"35\": {\"O\": 1}, \"36\": {\"O\": 1}, \"37\": {\"O\": 1}, \"38\": {\"O\": 1}, \"39\": {\"O\": 1}}" n_minim_iter=4 energy=-45144.39000978507 stress="-0.2147369304331083 8.142899737387363e-14 -5.159280154995648e-15 8.142899737387363e-14 -0.21473693043304806 -1.8495595952968057e-14 -5.159280154995648e-15 -1.8495595952968057e-14 -0.2147369304332192" free_energy=-45144.39000978507 pbc="T T T"
In      -4.02466939       2.84587102       5.41006045        0       0.00030691      -0.00021702       0.00037588
In       6.83865781       1.13370957       1.48277531        1      -0.00030691       0.00021702      -0.00037588
In       1.21068097      -0.85608072       4.92919319        2      -0.00030691       0.00021702      -0.00037588
In      -1.40699421      -1.98979029       3.44641788        3       0.00000000       0.00000000      -0.00000000
In      -1.21068097       3.84076617       3.20598425        4       0.00030691      -0.00021702      -0.00037588
In       4.41729586      -2.70705659       5.16962682        5       0.00030691       0.00043403      -0.00000000
In      -1.21068097       1.27252399       5.16962682        6       0.00030691       0.00043403      -0.00000000
In      -1.60330745       6.68663718       1.72320894        7      -0.00030691      -0.00043403       0.00000000
In       4.02466939       0.13881442       3.68685151        8      -0.00030691       0.00021702       0.00037588
In      -1.40699421       3.97958059      -0.00000000        9       0.00000000      -0.00000000       0.00000000
In       4.02466939       6.10818530       0.24043363       10      -0.00030691       0.00021702       0.00037588
In      -1.21068097      -2.12860471       6.65240213       11       0.00030691      -0.00021702      -0.00037588
In       4.02466939       2.70705660       1.72320894       12      -0.00030691      -0.00043403      -0.00000000
In       1.60330744       4.83566131       1.96364257       13       0.00030691      -0.00021702       0.00037588
In       4.22098263       0.00000000      -0.00000000       14      -0.00000000      -0.00000000       0.00000000
In       1.40699421       1.98979029       3.44641788       15       0.00000000       0.00000000      -0.00000000
O        0.80164866       3.97126185       3.78673677       16      -0.00037460      -0.00011473      -0.00107521
O       -2.01233976       3.28356961       5.00667162       17      -0.00037460      -0.00087379       0.00063697
O       -0.39683220       2.14123326       0.09242045       18      -0.00105686      -0.00039136      -0.00019863
O       -0.80164866      -0.70432971       1.90057262       19       0.00037460      -0.00098853      -0.00043824
O        3.76655904       4.73726927       1.80815217       20      -0.00069895       0.00087385      -0.00023962
O        1.86141780       2.79251921       1.56025373       21       0.00069895       0.00064444       0.00063697
O        1.86141780       5.92433065       0.24789844       22       0.00069895       0.00022941      -0.00087658
O       -2.15105148       5.62976345       3.53883833       23       0.00001669       0.00112687      -0.00019863
O        3.21082062       1.83834733       6.80041531       24       0.00105686       0.00039136       0.00019863
O        4.96503990      -1.65018286       3.35399743       25      -0.00001669      -0.00112687       0.00019863
O        6.02480904       3.14044538       1.63826571       26       0.00105686      -0.00036770       0.00023962
O        3.47692536       2.23963247       3.69431632       27       0.00001669      -0.00073545      -0.00087658
O        0.66293694       4.06934585       6.55251687       28       0.00001669      -0.00039142       0.00107521
O        2.15105148      -0.08976526       0.34031889       29      -0.00001669       0.00039142      -0.00107521
O       -3.21082062       0.83913521       5.25457006       30      -0.00105686       0.00036770      -0.00023962
O        4.82632818       0.69601098       1.88616415       31       0.00037460       0.00087379      -0.00063697
O        0.95257062       1.18706138       5.33258203       32      -0.00069895      -0.00064444      -0.00063697
O        3.21082062      -0.99921212       5.34699051       33       0.00105686      -0.00002367      -0.00043824
O        2.01233976       0.00831874       3.10609899       34       0.00037460       0.00011473       0.00107521
O        0.95257062      -1.94475006       6.64493733       35      -0.00069895      -0.00022941       0.00087658
O       -0.66293694       1.73994812       3.19851944       36      -0.00001669       0.00073545       0.00087658
O       -0.95257062      -0.75768868       5.08468359       37       0.00069895      -0.00087385       0.00023962
O       -0.39683220       4.97879271       1.54584526       38      -0.00105686       0.00002367       0.00043824
O        3.61563707       4.68391030       4.99226314       39      -0.00037460       0.00098853       0.00043824
