40
Lattice="8.837012250504372 6.926170873152302e-10 5.885956799994504e-15 -2.9456707508211304 8.331615050116106 -1.1996538986954968e-09 -2.9456707498416246 -4.165807524365431 7.215390288753075" Properties=species:S:1:pos:R:3:spacegroup_kinds:I:1:forces:R:3 spacegroup="P 1" unit_cell=conventional occupancy="_JSON {\"0\": {\"In\": 1}, \"1\": {\"In\": 1}, \"2\": {\"In\": 1}, \"3\": {\"In\": 1}, \"4\": {\"In\": 1}, \"5\": {\"In\": 1}, \"6\": {\"In\": 1}, \"7\": {\"In\": 1}, \"8\": {\"In\": 1}, \"9\": {\"In\": 1}, \"10\": {\"In\": 1}, \"11\": {\"In\": 1}, \"12\": {\"In\": 1}, \"13\": {\"In\": 1}, \"14\": {\"In\": 1}, \"15\": {\"In\": 1}, \"16\": {\"O\": 1}, \"17\": {\"O\": 1}, \"18\": {\"O\": 1}, \"19\": {\"O\": 1}, \"20\": {\"O\": 1}, \"21\": {\"O\": 1}, \"22\": {\"O\": 1}, \"23\": {\"O\": 1}, \"24\": {\"O\": 1}, \"25\": {\"O\": 1}, \"26\": {\"O\": 1}, \"27\": {\"O\": 1}, \"28\": {\"O\": 1}, \"29\": {\"O\": 1}, \"30\": {\"O\": 1}, \"31\": {\"O\": 1}, \"32\": {\"O\": 1}, \"33\": {\"O\": 1}, \"34\": {\"O\": 1}, \"35\": {\"O\": 1}, \"36\": {\"O\": 1}, \"37\": {\"O\": 1}, \"38\": {\"O\": 1}, \"39\": {\"O\": 1}}" n_minim_iter=1 energy=-45151.73938451251 stress="-0.02537639707661135 5.669395152036277e-14 -9.794456820091912e-14 5.669395152036277e-14 -0.025376397076678384 3.104973046386601e-14 -9.794456820091912e-14 3.104973046386601e-14 -0.025376397076658282" free_energy=-45151.73938451251 pbc="T T T"
In      -4.21971600       2.98378980       5.65500991        0      -0.01061964       0.00750922      -0.01300635
In       7.16538674       1.18201773       1.56038038        1       0.01061964      -0.00750922       0.01300635
In       1.27404524      -0.90088603       5.16807552        2       0.01061964      -0.00750922       0.01300635
In      -1.47283538      -2.08290376       3.60769514        3      -0.00000000      -0.00000000       0.00000000
In      -1.27404525       4.02524168       3.36422795        4      -0.01061964       0.00750922       0.01300635
In       4.61729625      -2.84322394       5.41154271        5      -0.01061964      -0.01501844       0.00000000
In      -1.27404525       1.32258358       5.41154271        6      -0.01061964      -0.01501844       0.00000000
In      -1.67162551       7.00903147       1.80384757        7       0.01061964       0.01501844      -0.00000000
In       4.21971599       0.14056585       3.85116233        8       0.01061964      -0.00750922      -0.01300635
In      -1.47283538       4.16580753      -0.00000000        9       0.00000000       0.00000000       0.00000000
In       4.21971599       6.38927714       0.24346719       10       0.01061964      -0.00750922      -0.01300635
In      -1.27404525      -2.22346961       6.97192309       11      -0.01061964       0.00750922       0.01300635
In       4.21971599       2.84322395       1.80384757       12       0.01061964       0.01501844      -0.00000000
In       1.67162550       5.06669356       2.04731476       13      -0.01061964       0.00750922      -0.01300635
In       4.41850612       0.00000000      -0.00000000       14      -0.00000000       0.00000000       0.00000000
In       1.47283537       2.08290376       3.60769514       15      -0.00000000       0.00000000       0.00000000
O        0.86697434       4.16643267       3.92657481       16      -0.02214019      -0.02423548       0.05526409
O       -2.07869641       3.40020097       5.25156149       17      -0.02214019       0.05997785      -0.00664350
O       -0.43223995       2.23598044       0.05266031       18       0.02631816       0.02571261       0.05270562
O       -0.86697434      -0.76498141       1.96274602       19       0.02214019       0.03574237       0.04862059
O        3.89863902       4.96119239       1.91008570       20       0.06392772      -0.00531276      -0.00408503
O        1.99270248       2.90931721       1.64386634       21      -0.06392772       0.00088136      -0.00664350
O        1.99270248       6.21768270       0.26621936       22      -0.06392772      -0.00619412       0.00255847
O       -2.25218256       5.91090421       3.66035545       23      -0.01546936      -0.03338387       0.05270562
O        3.37791069       1.92982709       7.16272997       24      -0.02631816      -0.02571261      -0.05270562
O        5.19785331      -1.74509668       3.55503483       25       0.01546936       0.03338387      -0.05270562
O        6.32358145       3.24649915       1.69760943       26      -0.02631816       0.05850071       0.00408503
O        3.63915894       2.29741247       3.87391450       27      -0.01546936       0.06233634       0.00255847
O        0.69348819       4.28910590       6.89651061       28      -0.01546936      -0.02895247      -0.05526409
O        2.25218256      -0.12329837       0.31887967       29       0.01546936       0.02895247       0.05526409
O       -3.37791070       0.91930838       5.51778085       30       0.02631816      -0.05850071      -0.00408503
O        5.02436716       0.76560656       1.96382879       31       0.02214019      -0.05997785       0.00664350
O        0.95296827       1.25649032       5.57152394       32       0.06392772      -0.00088136       0.00664350
O        3.37791070      -1.01051871       5.57044116       33      -0.02631816      -0.03278810       0.04862059
O        2.07869641      -0.00062514       3.28881547       34       0.02214019       0.02423548      -0.05526409
O        0.95296827      -2.05187517       6.94917093       35       0.06392772       0.00619412      -0.00255847
O       -0.69348819       1.86839506       3.34147578       36       0.01546936      -0.06233634      -0.00255847
O       -0.95296827      -0.79538486       5.30530458       37      -0.06392772       0.00531276       0.00408503
O       -0.43223995       5.17632624       1.64494912       38       0.02631816       0.03278810      -0.04862059
O        3.81264509       4.93078894       5.25264427       39      -0.02214019      -0.03574237      -0.04862059
40
Lattice="8.83701225050437 6.926170873152301e-10 5.8859567999945005e-15 -2.94567075082113 8.331615050116104 -1.1996538986954966e-09 -2.945670749841624 -4.16580752436543 7.215390288753076" Properties=species:S:1:pos:R:3:spacegroup_kinds:I:1:forces:R:3 spacegroup="P 1" unit_cell=conventional occupancy="_JSON {\"0\": {\"In\": 1}, \"1\": {\"In\": 1}, \"2\": {\"In\": 1}, \"3\": {\"In\": 1}, \"4\": {\"In\": 1}, \"5\": {\"In\": 1}, \"6\": {\"In\": 1}, \"7\": {\"In\": 1}, \"8\": {\"In\": 1}, \"9\": {\"In\": 1}, \"10\": {\"In\": 1}, \"11\": {\"In\": 1}, \"12\": {\"In\": 1}, \"13\": {\"In\": 1}, \"14\": {\"In\": 1}, \"15\": {\"In\": 1}, \"16\": {\"O\": 1}, \"17\": {\"O\": 1}, \"18\": {\"O\": 1}, \"19\": {\"O\": 1}, \"20\": {\"O\": 1}, \"21\": {\"O\": 1}, \"22\": {\"O\": 1}, \"23\": {\"O\": 1}, \"24\": {\"O\": 1}, \"25\": {\"O\": 1}, \"26\": {\"O\": 1}, \"27\": {\"O\": 1}, \"28\": {\"O\": 1}, \"29\": {\"O\": 1}, \"30\": {\"O\": 1}, \"31\": {\"O\": 1}, \"32\": {\"O\": 1}, \"33\": {\"O\": 1}, \"34\": {\"O\": 1}, \"35\": {\"O\": 1}, \"36\": {\"O\": 1}, \"37\": {\"O\": 1}, \"38\": {\"O\": 1}, \"39\": {\"O\": 1}}" n_minim_iter=2 energy=-45151.74385138883 stress="-0.024834296980353 -1.9679937189791606e-14 7.001112211307476e-15 -1.9679937189791606e-14 -0.02483429698064176 -1.4904518477101304e-14 7.001112211307476e-15 -1.4904518477101304e-14 -0.024834296980699843" free_energy=-45151.74385138883 pbc="T T T"
In      -4.22047454       2.98432617       5.65408088        0       0.01034881      -0.00731771       0.01267465
In       7.16614529       1.18148136       1.56130940        1      -0.01034881       0.00731771      -0.01267465
In       1.27480379      -0.90142240       5.16900455        2      -0.01034881       0.00731771      -0.01267465
In      -1.47283538      -2.08290376       3.60769514        3      -0.00000000      -0.00000000       0.00000000
In      -1.27480379       4.02577805       3.36515697        4       0.01034881      -0.00731771      -0.01267465
In       4.61653771      -2.84429669       5.41154271        5       0.01034881       0.01463542       0.00000000
In      -1.27480379       1.32151084       5.41154271        6       0.01034881       0.01463542       0.00000000
In      -1.67086696       7.01010422       1.80384757        7      -0.01034881      -0.01463542       0.00000000
In       4.22047454       0.14002948       3.85023331        8      -0.01034881       0.00731771       0.01267465
In      -1.47283538       4.16580753      -0.00000000        9       0.00000000      -0.00000000      -0.00000000
In       4.22047454       6.38874077       0.24253816       10      -0.01034881       0.00731771       0.01267465
In      -1.27480379      -2.22293324       6.97285212       11       0.01034881      -0.00731771      -0.01267465
In       4.22047454       2.84429669       1.80384757       12      -0.01034881      -0.01463542      -0.00000000
In       1.67086696       5.06722993       2.04638574       13       0.01034881      -0.00731771       0.01267465
In       4.41850612       0.00000000      -0.00000000       14      -0.00000000       0.00000000       0.00000000
In       1.47283537       2.08290376       3.60769514       15       0.00000000      -0.00000000      -0.00000000
O        0.86539290       4.16470156       3.93052225       16      -0.02477304      -0.00898521       0.00580310
O       -2.08027785       3.40448510       5.25108695       17      -0.02477304       0.00951824       0.00487987
O       -0.43036008       2.23781706       0.05642500       18      -0.00775513      -0.00251523       0.02572246
O       -0.86539290      -0.76242839       1.96621892       19       0.02477304       0.00053303       0.01068297
O        3.90320528       4.96081290       1.90979392       20       0.01723156       0.01431784      -0.01503949
O        1.98813621       2.90938016       1.64339181       21      -0.01723156       0.02018350       0.00487987
O        1.98813621       6.21724027       0.26640211       22      -0.01723156      -0.00586566      -0.01991935
O       -2.25328751       5.90851964       3.66412014       23      -0.00021366       0.00815002       0.02572246
O        3.37603083       1.92799047       7.15896529       24       0.00775513       0.00251523      -0.02572246
O        5.19895826      -1.74271211       3.55127014       25       0.00021366      -0.00815002      -0.02572246
O        6.32170158       3.25067777       1.69790122       26       0.00775513       0.02101868       0.01503949
O        3.63805399       2.30186507       3.87409725       27      -0.00021366       0.01820129      -0.01991935
O        0.69238324       4.28703787       6.89256318       28      -0.00021366      -0.02635131      -0.00580310
O        2.25328751      -0.12123034       0.32282710       29       0.00021366       0.02635131       0.00580310
O       -3.37603083       0.91512975       5.51748906       30      -0.00775513      -0.02101868      -0.01503949
O        5.02594860       0.76132243       1.96430333       31       0.02477304      -0.00951824      -0.00487987
O        0.95753453       1.25642737       5.57199847       32       0.01723156      -0.02018350      -0.00487987
O        3.37603083      -1.01286071       5.57391406       33       0.00775513      -0.02353392       0.01068297
O        2.08027785       0.00110597       3.28486803       34       0.02477304       0.00898521      -0.00580310
O        0.95753453      -2.05143274       6.94898818       35       0.01723156       0.00586566       0.01991935
O       -0.69238324       1.86394246       3.34129303       36       0.00021366      -0.01820129       0.01991935
O       -0.95753454      -0.79500537       5.30559637       37      -0.01723156      -0.01431784       0.01503949
O       -0.43036008       5.17866824       1.64147622       38      -0.00775513       0.02353392      -0.01068297
O        3.81106365       4.92823592       5.24917137       39      -0.02477304      -0.00053303      -0.01068297
40
Lattice="8.837012250504372 6.926170873152302e-10 5.885956799994501e-15 -2.9456707508211304 8.331615050116106 -1.1996538986954968e-09 -2.9456707498416246 -4.165807524365431 7.215390288753079" Properties=species:S:1:pos:R:3:spacegroup_kinds:I:1:forces:R:3 spacegroup="P 1" unit_cell=conventional occupancy="_JSON {\"0\": {\"In\": 1}, \"1\": {\"In\": 1}, \"2\": {\"In\": 1}, \"3\": {\"In\": 1}, \"4\": {\"In\": 1}, \"5\": {\"In\": 1}, \"6\": {\"In\": 1}, \"7\": {\"In\": 1}, \"8\": {\"In\": 1}, \"9\": {\"In\": 1}, \"10\": {\"In\": 1}, \"11\": {\"In\": 1}, \"12\": {\"In\": 1}, \"13\": {\"In\": 1}, \"14\": {\"In\": 1}, \"15\": {\"In\": 1}, \"16\": {\"O\": 1}, \"17\": {\"O\": 1}, \"18\": {\"O\": 1}, \"19\": {\"O\": 1}, \"20\": {\"O\": 1}, \"21\": {\"O\": 1}, \"22\": {\"O\": 1}, \"23\": {\"O\": 1}, \"24\": {\"O\": 1}, \"25\": {\"O\": 1}, \"26\": {\"O\": 1}, \"27\": {\"O\": 1}, \"28\": {\"O\": 1}, \"29\": {\"O\": 1}, \"30\": {\"O\": 1}, \"31\": {\"O\": 1}, \"32\": {\"O\": 1}, \"33\": {\"O\": 1}, \"34\": {\"O\": 1}, \"35\": {\"O\": 1}, \"36\": {\"O\": 1}, \"37\": {\"O\": 1}, \"38\": {\"O\": 1}, \"39\": {\"O\": 1}}" n_minim_iter=3 energy=-45151.74442511582 stress="-0.024665786569679247 1.6201658917654513e-13 -5.5071232873096266e-14 1.6201658917654513e-13 -0.024665786569884933 -1.1564201854082729e-13 -5.5071232873096266e-14 -1.1564201854082729e-13 -0.024665786569537267" free_energy=-45151.74442511582 pbc="T T T"
In      -4.22049147       2.98433814       5.65406015        0       0.01252240      -0.00885468       0.01533675
In       7.16616221       1.18146939       1.56133013        1      -0.01252240       0.00885468      -0.01533675
In       1.27482071      -0.90143437       5.16902527        2      -0.01252240       0.00885468      -0.01533675
In      -1.47283538      -2.08290376       3.60769514        3      -0.00000000      -0.00000000       0.00000000
In      -1.27482072       4.02579002       3.36517770        4       0.01252240      -0.00885468      -0.01533675
In       4.61652079      -2.84432062       5.41154271        5       0.01252240       0.01770935      -0.00000000
In      -1.27482072       1.32148690       5.41154271        6       0.01252240       0.01770935      -0.00000000
In      -1.67085004       7.01012815       1.80384757        7      -0.01252240      -0.01770935       0.00000000
In       4.22049146       0.14001751       3.85021258        8      -0.01252240       0.00885468       0.01533675
In      -1.47283538       4.16580753      -0.00000000        9       0.00000000      -0.00000000      -0.00000000
In       4.22049146       6.38872880       0.24251744       10      -0.01252240       0.00885468       0.01533675
In      -1.27482072      -2.22292127       6.97287285       11       0.01252240      -0.00885468      -0.01533675
In       4.22049146       2.84432063       1.80384757       12      -0.01252240      -0.01770935       0.00000000
In       1.67085003       5.06724190       2.04636501       13       0.01252240      -0.00885468       0.01533675
In       4.41850612       0.00000000      -0.00000000       14       0.00000000      -0.00000000       0.00000000
In       1.47283537       2.08290376       3.60769514       15       0.00000000       0.00000000      -0.00000000
O        0.86451479       4.16407008       3.93169516       16      -0.02303375      -0.00215196      -0.00631491
O       -2.08115596       3.40581661       5.25104738       17      -0.02303375      -0.00439289       0.00502111
O       -0.42999279       2.23826794       0.05791071       18      -0.01384846      -0.01088787       0.01627074
O       -0.86451480      -0.76172836       1.96735225       19       0.02303375      -0.00654485      -0.00129380
O        3.90475334       4.96097065       1.90944153       20       0.00353626       0.01593877      -0.01756455
O        1.98658815       2.90976421       1.64335223       21      -0.00353626       0.02318073       0.00502111
O        1.98658815       6.21701397       0.26608930       22      -0.00353626      -0.00724196      -0.02258565
O       -2.25359018       5.90802306       3.66560585       23       0.00564903       0.01668575       0.01627074
O        3.37566353       1.92753959       7.15747957       24       0.01384846       0.01088787      -0.01627074
O        5.19926093      -1.74221553       3.54978443       25      -0.00564903      -0.01668575      -0.01627074
O        6.32133428       3.25218988       1.69825360       26       0.01384846       0.00864694       0.01756455
O        3.63775132       2.30340003       3.87378444       27       0.00564903       0.00574800      -0.02258565
O        0.69208057       4.28599949       6.89139027       28       0.00564903      -0.02243375       0.00631491
O        2.25359017      -0.12019196       0.32400001       29      -0.00564903       0.02243375      -0.00631491
O       -3.37566354       0.91361765       5.51713668       30      -0.01384846      -0.00864694      -0.01756455
O        5.02682670       0.75999092       1.96434291       31       0.02303375       0.00439289      -0.00502111
O        0.95908259       1.25604332       5.57203805       32       0.00353626      -0.02318073      -0.00502111
O        3.37566353      -1.01392194       5.57504739       33       0.01384846      -0.01953481      -0.00129380
O        2.08115595       0.00173745       3.28369513       34       0.02303375       0.00215196       0.00631491
O        0.95908259      -2.05120644       6.94930098       35       0.00353626       0.00724196       0.02258565
O       -0.69208058       1.86240750       3.34160584       36      -0.00564903      -0.00574800       0.02258565
O       -0.95908260      -0.79516312       5.30594875       37      -0.00353626      -0.01593877       0.01756455
O       -0.42999279       5.17972947       1.64034289       38      -0.01384846       0.01953481       0.00129380
O        3.81018554       4.92753589       5.24803804       39      -0.02303375       0.00654485       0.00129380
40
Lattice="8.837012250504374 6.926170873152305e-10 5.885956799994511e-15 -2.9456707508211317 8.331615050116108 -1.1996538986954976e-09 -2.945670749841626 -4.165807524365432 7.215390288753084" Properties=species:S:1:pos:R:3:spacegroup_kinds:I:1:forces:R:3 spacegroup="P 1" unit_cell=conventional occupancy="_JSON {\"0\": {\"In\": 1}, \"1\": {\"In\": 1}, \"2\": {\"In\": 1}, \"3\": {\"In\": 1}, \"4\": {\"In\": 1}, \"5\": {\"In\": 1}, \"6\": {\"In\": 1}, \"7\": {\"In\": 1}, \"8\": {\"In\": 1}, \"9\": {\"In\": 1}, \"10\": {\"In\": 1}, \"11\": {\"In\": 1}, \"12\": {\"In\": 1}, \"13\": {\"In\": 1}, \"14\": {\"In\": 1}, \"15\": {\"In\": 1}, \"16\": {\"O\": 1}, \"17\": {\"O\": 1}, \"18\": {\"O\": 1}, \"19\": {\"O\": 1}, \"20\": {\"O\": 1}, \"21\": {\"O\": 1}, \"22\": {\"O\": 1}, \"23\": {\"O\": 1}, \"24\": {\"O\": 1}, \"25\": {\"O\": 1}, \"26\": {\"O\": 1}, \"27\": {\"O\": 1}, \"28\": {\"O\": 1}, \"29\": {\"O\": 1}, \"30\": {\"O\": 1}, \"31\": {\"O\": 1}, \"32\": {\"O\": 1}, \"33\": {\"O\": 1}, \"34\": {\"O\": 1}, \"35\": {\"O\": 1}, \"36\": {\"O\": 1}, \"37\": {\"O\": 1}, \"38\": {\"O\": 1}, \"39\": {\"O\": 1}}" n_minim_iter=4 energy=-45151.745062138085 stress="-0.024416733576547625 -1.1382698116660277e-14 -7.995516538987751e-14 -1.1382698116660277e-14 -0.024416733576458245 -8.024288590858372e-14 -7.995516538987751e-14 -8.024288590858372e-14 -0.02441673357638377" free_energy=-45151.745062138085 pbc="T T T"
In      -4.22002655       2.98400939       5.65462956        0       0.00567428      -0.00401232       0.00694954
In       7.16569729       1.18179814       1.56076072        1      -0.00567428       0.00401232      -0.00694954
In       1.27435579      -0.90110562       5.16845587        2      -0.00567428       0.00401232      -0.00694954
In      -1.47283538      -2.08290376       3.60769514        3       0.00000000      -0.00000000       0.00000000
In      -1.27435580       4.02546127       3.36460829        4       0.00567428      -0.00401232      -0.00694954
In       4.61698570      -2.84366313       5.41154271        5       0.00567428       0.00802464      -0.00000000
In      -1.27435580       1.32214440       5.41154271        6       0.00567428       0.00802464      -0.00000000
In      -1.67131496       7.00947066       1.80384757        7      -0.00567428      -0.00802464       0.00000000
In       4.22002654       0.14034626       3.85078199        8      -0.00567428       0.00401232       0.00694954
In      -1.47283538       4.16580753      -0.00000000        9      -0.00000000      -0.00000000      -0.00000000
In       4.22002654       6.38905755       0.24308684       10      -0.00567428       0.00401232       0.00694954
In      -1.27435580      -2.22325002       6.97230344       11       0.00567428      -0.00401232      -0.00694954
In       4.22002654       2.84366313       1.80384757       12      -0.00567428      -0.00802464      -0.00000000
In       1.67131495       5.06691315       2.04693442       13       0.00567428      -0.00401232       0.00694954
In       4.41850612       0.00000000      -0.00000000       14       0.00000000       0.00000000      -0.00000000
In       1.47283537       2.08290376       3.60769514       15      -0.00000000       0.00000000      -0.00000000
O        0.86227104       4.16305509       3.93320024       16      -0.01390929       0.01108799      -0.01590615
O       -2.08339971       3.40762754       5.25117384       17      -0.01390929      -0.01931912      -0.00164940
O       -0.42999028       2.23849053       0.06078827       18      -0.01239682      -0.02038860       0.00020299
O       -0.86227105      -0.76093242       1.96898380       19       0.01390929      -0.00823114      -0.01755555
O        3.90720862       4.96183607       1.90819552       20      -0.01357781       0.00834833      -0.01775854
O        1.98413287       2.91127600       1.64347870       21       0.01357781       0.01955351      -0.00164940
O        1.98413287       6.21636760       0.26471682       22       0.01357781      -0.01120518      -0.01610914
O       -2.25379920       5.90794651       3.66848341       23       0.01509028       0.01848403       0.00020299
O        3.37566103       1.92731700       7.15460201       24       0.01239682       0.02038860      -0.00020299
O        5.19946995      -1.74213898       3.54690687       25      -0.01509028      -0.01848403      -0.00020299
O        6.32133178       3.25479321       1.69949961       26       0.01239682      -0.01001851       0.01775854
O        3.63754230       2.30593034       3.87241196       27       0.01509028      -0.00906623      -0.01610914
O        0.69187155       4.28354573       6.88988519       28       0.01509028      -0.00941781       0.01590615
O        2.25379920      -0.11773820       0.32550509       29      -0.01509028       0.00941781      -0.01590615
O       -3.37566103       0.91101431       5.51589067       30      -0.01239682       0.01001851      -0.01775854
O        5.02907045       0.75817999       1.96421644       31       0.01390929       0.01931912       0.00164940
O        0.96153787       1.25453153       5.57191158       32      -0.01357781      -0.01955351       0.00164940
O        3.37566103      -1.01630268       5.57667894       33       0.01239682      -0.01037009      -0.01755555
O        2.08339970       0.00275244       3.28219005       34       0.01390929      -0.01108799       0.01590615
O        0.96153787      -2.05056007       6.95067346       35      -0.01357781       0.01120518       0.01610914
O       -0.69187155       1.85987719       3.34297832       36      -0.01509028       0.00906623       0.01610914
O       -0.96153788      -0.79602854       5.30719476       37       0.01357781      -0.00834833       0.01775854
O       -0.42999028       5.18211021       1.63871134       38      -0.01239682       0.01037009       0.01755555
O        3.80794179       4.92673995       5.24640649       39      -0.01390929       0.00823114       0.01755555
40
Lattice="8.837012250504376 6.926170873152307e-10 5.885956799994514e-15 -2.9456707508211326 8.33161505011611 -1.199653898695498e-09 -2.945670749841627 -4.165807524365433 7.215390288753086" Properties=species:S:1:pos:R:3:spacegroup_kinds:I:1:forces:R:3 spacegroup="P 1" unit_cell=conventional occupancy="_JSON {\"0\": {\"In\": 1}, \"1\": {\"In\": 1}, \"2\": {\"In\": 1}, \"3\": {\"In\": 1}, \"4\": {\"In\": 1}, \"5\": {\"In\": 1}, \"6\": {\"In\": 1}, \"7\": {\"In\": 1}, \"8\": {\"In\": 1}, \"9\": {\"In\": 1}, \"10\": {\"In\": 1}, \"11\": {\"In\": 1}, \"12\": {\"In\": 1}, \"13\": {\"In\": 1}, \"14\": {\"In\": 1}, \"15\": {\"In\": 1}, \"16\": {\"O\": 1}, \"17\": {\"O\": 1}, \"18\": {\"O\": 1}, \"19\": {\"O\": 1}, \"20\": {\"O\": 1}, \"21\": {\"O\": 1}, \"22\": {\"O\": 1}, \"23\": {\"O\": 1}, \"24\": {\"O\": 1}, \"25\": {\"O\": 1}, \"26\": {\"O\": 1}, \"27\": {\"O\": 1}, \"28\": {\"O\": 1}, \"29\": {\"O\": 1}, \"30\": {\"O\": 1}, \"31\": {\"O\": 1}, \"32\": {\"O\": 1}, \"33\": {\"O\": 1}, \"34\": {\"O\": 1}, \"35\": {\"O\": 1}, \"36\": {\"O\": 1}, \"37\": {\"O\": 1}, \"38\": {\"O\": 1}, \"39\": {\"O\": 1}}" n_minim_iter=5 energy=-45151.74553669698 stress="-0.02450371126291822 1.8050875838517293e-13 8.933808312266281e-15 1.8050875838517293e-13 -0.02450371126304783 -1.7377697598572867e-13 8.933808312266281e-15 -1.7377697598572867e-13 -0.02450371126261973" free_energy=-45151.74553669698 pbc="T T T"
In      -4.21943187       2.98358889       5.65535788        0      -0.00824853       0.00583259      -0.01010235
In       7.16510262       1.18221864       1.56003240        1       0.00824853      -0.00583259       0.01010235
In       1.27376112      -0.90068513       5.16772754        2       0.00824853      -0.00583259       0.01010235
In      -1.47283538      -2.08290376       3.60769514        3      -0.00000000      -0.00000000       0.00000000
In      -1.27376112       4.02504077       3.36387997        4      -0.00824853       0.00583259       0.01010235
In       4.61758038      -2.84282213       5.41154271        5      -0.00824853      -0.01166519       0.00000000
In      -1.27376112       1.32298539       5.41154271        6      -0.00824853      -0.01166519      -0.00000000
In      -1.67190963       7.00862966       1.80384757        7       0.00824853       0.01166519      -0.00000000
In       4.21943187       0.14076676       3.85151031        8       0.00824853      -0.00583259      -0.01010235
In      -1.47283538       4.16580753      -0.00000000        9      -0.00000000       0.00000000       0.00000000
In       4.21943187       6.38947804       0.24381517       10       0.00824853      -0.00583259      -0.01010235
In      -1.27376112      -2.22367051       6.97157512       11      -0.00824853       0.00583259       0.01010235
In       4.21943187       2.84282214       1.80384757       12       0.00824853       0.01166519      -0.00000000
In       1.67190963       5.06649265       2.04766274       13      -0.00824853       0.00583259      -0.01010235
In       4.41850612       0.00000000      -0.00000000       14       0.00000000      -0.00000000      -0.00000000
In       1.47283537       2.08290376       3.60769514       15      -0.00000000      -0.00000000       0.00000000
O        0.86127439       4.16348876       3.93220613       16      -0.00525722       0.00834603       0.00150775
O       -2.08439636       3.40654978       5.25129533       17      -0.00525722      -0.00286727      -0.00798175
O       -0.43092975       2.23737234       0.06097979       18       0.00341302      -0.00899806       0.00263709
O       -0.86127439      -0.76157651       1.96811117       19       0.00525722       0.00547876      -0.00647400
O        3.90652472       4.96259073       1.90713138       20      -0.00095088      -0.00395624      -0.00911109
O        1.98481678       2.91257490       1.64360019       21       0.00095088       0.00591231      -0.00798175
O        1.98481678       6.21582336       0.26353119       22       0.00095088      -0.00986855      -0.00112934
O       -2.25305812       5.90920498       3.66867493       23       0.00962112      -0.00021848       0.00263709
O        3.37660050       1.92843519       7.15441050       24      -0.00341302       0.00899806      -0.00263709
O        5.19872887      -1.74339745       3.54671535       25      -0.00962112       0.00021848      -0.00263709
O        6.32227125       3.25439998       1.70056376       26      -0.00341302      -0.00221524       0.00911109
O        3.63828338       2.30546697       3.87122634       27       0.00962112       0.00239302      -0.00112934
O        0.69261263       4.28275064       6.89087930       28       0.00962112      -0.00217455      -0.00150775
O        2.25305812      -0.11694311       0.32451098       29      -0.00962112       0.00217455       0.00150775
O       -3.37660051       0.91140755       5.51482653       30       0.00341302       0.00221524      -0.00911109
O        5.03006711       0.75925774       1.96409495       31       0.00525722       0.00286727       0.00798175
O        0.96085397       1.25323263       5.57179010       32      -0.00095088      -0.00591231       0.00798175
O        3.37660050      -1.01702764       5.57580632       33      -0.00341302      -0.00678281      -0.00647400
O        2.08439636       0.00231877       3.28318416       34       0.00525722      -0.00834603      -0.00150775
O        0.96085397      -2.05001583       6.95185909       35      -0.00095088       0.00986855       0.00112934
O       -0.69261263       1.86034056       3.34416395       36      -0.00962112      -0.00239302       0.00112934
O       -0.96085397      -0.79678320       5.30825890       37       0.00095088       0.00395624       0.00911109
O       -0.43092976       5.18283517       1.63958397       38       0.00341302       0.00678281       0.00647400
O        3.80694514       4.92738404       5.24727911       39      -0.00525722      -0.00547876       0.00647400
40