40
Lattice="8.273080448347569 6.484220753213812e-10 2.7442725031160258e-14 -2.7576934833938638 7.799935048221742 -1.1231135113134974e-09 -2.757693482476881 -3.899967523462444 6.754941900377362" Properties=species:S:1:pos:R:3:spacegroup_kinds:I:1:forces:R:3 spacegroup="P 1" unit_cell=conventional occupancy="_JSON {\"0\": {\"In\": 1}, \"1\": {\"In\": 1}, \"2\": {\"In\": 1}, \"3\": {\"In\": 1}, \"4\": {\"In\": 1}, \"5\": {\"In\": 1}, \"6\": {\"In\": 1}, \"7\": {\"In\": 1}, \"8\": {\"In\": 1}, \"9\": {\"In\": 1}, \"10\": {\"In\": 1}, \"11\": {\"In\": 1}, \"12\": {\"In\": 1}, \"13\": {\"In\": 1}, \"14\": {\"In\": 1}, \"15\": {\"In\": 1}, \"16\": {\"O\": 1}, \"17\": {\"O\": 1}, \"18\": {\"O\": 1}, \"19\": {\"O\": 1}, \"20\": {\"O\": 1}, \"21\": {\"O\": 1}, \"22\": {\"O\": 1}, \"23\": {\"O\": 1}, \"24\": {\"O\": 1}, \"25\": {\"O\": 1}, \"26\": {\"O\": 1}, \"27\": {\"O\": 1}, \"28\": {\"O\": 1}, \"29\": {\"O\": 1}, \"30\": {\"O\": 1}, \"31\": {\"O\": 1}, \"32\": {\"O\": 1}, \"33\": {\"O\": 1}, \"34\": {\"O\": 1}, \"35\": {\"O\": 1}, \"36\": {\"O\": 1}, \"37\": {\"O\": 1}, \"38\": {\"O\": 1}, \"39\": {\"O\": 1}}" n_minim_iter=6 energy=-45136.945711462686 stress="-0.3377282449573092 -8.290970820138363e-14 -1.0929228985119515e-13 -8.290970820138363e-14 -0.3377282449570155 -5.802849249356789e-15 -1.0929228985119515e-13 -5.802849249356789e-15 -0.3377282449571306" free_energy=-45136.945711462686 pbc="T T T"
In      -3.93533143       2.78269954       5.31263587        0      -0.00198600       0.00140431      -0.00243234
In       6.69302491       1.11726799       1.44230603        1       0.00198600      -0.00140431       0.00243234
In       1.17763794      -0.83271577       4.81977698        2       0.00198600      -0.00140431       0.00243234
In      -1.37884674      -1.94998376       3.37747095        3       0.00000000       0.00000000       0.00000000
In      -1.17763795       3.75769142       3.13104150        4      -0.00198600       0.00140431       0.00243234
In       4.33774902      -2.64042343       5.06620642        5      -0.00198600      -0.00280863       0.00000000
In      -1.17763795       1.25954409       5.06620642        6      -0.00198600      -0.00280863       0.00000000
In      -1.58005554       6.54039096       1.68873547        7       0.00198600       0.00280863       0.00000000
In       3.93533143       0.14227611       3.62390039        8       0.00198600      -0.00140431      -0.00243234
In      -1.37884674       3.89996753      -0.00000000        9       0.00000000       0.00000000       0.00000000
In       3.93533142       5.99222739       0.24642944       10       0.00198600      -0.00140431      -0.00243234
In      -1.17763795      -2.09225987       6.50851246       11      -0.00198600       0.00140431       0.00243234
In       3.93533143       2.64042343       1.68873547       12       0.00198600       0.00280863      -0.00000000
In       1.58005554       4.73268330       1.93516491       13      -0.00198600       0.00140431      -0.00243234
In       4.13654022       0.00000000      -0.00000000       14       0.00000000       0.00000000      -0.00000000
In       1.37884674       1.94998376       3.37747095       15       0.00000000       0.00000000      -0.00000000
O        0.78409426       3.88982689       3.72797343       16       0.00241790       0.00024979       0.00331408
O       -1.97359922       3.23359002       4.89973723       17       0.00241790       0.00274518      -0.00187336
O       -0.37646267       2.10424393       0.10088013       18       0.00362965       0.00188835      -0.00038928
O       -0.78409426      -0.67651814       1.87276876       19      -0.00241790       0.00299497       0.00144072
O        3.70652431       4.63472884       1.77188863       20       0.00178222      -0.00321972       0.00183000
O        1.80886265       2.73284762       1.52226628       21      -0.00178222      -0.00319468      -0.00187336
O        1.80886265       5.80184875       0.24962235       22      -0.00178222      -0.00002504       0.00370336
O       -2.10938776       5.50346905       3.47835108       23      -0.00057047      -0.00405152      -0.00038928
O        3.13415615       1.79572360       6.65406176       24      -0.00362965      -0.00188835       0.00038928
O        4.86708124      -1.60350153       3.27659081       25       0.00057047       0.00405152       0.00038928
O        5.89184963       3.08947049       1.60558232       26      -0.00362965       0.00060705      -0.00183000
O        3.40599920       2.21058964       3.62709330       27      -0.00057047       0.00168863       0.00370336
O        0.64830572       3.98584388       6.40443941       28      -0.00057047       0.00236288      -0.00331408
O        2.10938776      -0.08587636       0.35050248       29       0.00057047      -0.00236288       0.00331408
O       -3.13415615       0.81049704       5.14935958       30       0.00362965      -0.00060705       0.00183000
O        4.73129270       0.66637751       1.85520467       31      -0.00241790      -0.00274518       0.00187336
O        0.94883083       1.16711991       5.23267562       32       0.00178222       0.00319468       0.00187336
O        3.13415615      -0.98522655       5.25023971       33      -0.00362965       0.00128130       0.00144072
O        1.97359922       0.01014064       3.02696846       34      -0.00241790      -0.00024979      -0.00331408
O        0.94883083      -1.90188122       6.50531955       35       0.00178222       0.00002504      -0.00370336
O       -0.64830572       1.68937789       3.12784860       36       0.00057047      -0.00168863      -0.00370336
O       -0.94883083      -0.73476131       4.98305327       37      -0.00178222       0.00321972      -0.00183000
O       -0.37646267       4.88519408       1.50470218       38       0.00362965      -0.00128130      -0.00144072
O        3.54178774       4.57648567       4.88217313       39       0.00241790      -0.00299497      -0.00144072
