40
Lattice="9.268755497468504 7.264557426419924e-10 6.580895674967257e-15 -3.0895851665077454 8.73866648698461 -1.2582742169472548e-09 -3.0895851654803876 -4.369333242765838 7.567907173767235" Properties=species:S:1:pos:R:3:spacegroup_kinds:I:1:forces:R:3 spacegroup="P 1" unit_cell=conventional occupancy="_JSON {\"0\": {\"In\": 1}, \"1\": {\"In\": 1}, \"2\": {\"In\": 1}, \"3\": {\"In\": 1}, \"4\": {\"In\": 1}, \"5\": {\"In\": 1}, \"6\": {\"In\": 1}, \"7\": {\"In\": 1}, \"8\": {\"In\": 1}, \"9\": {\"In\": 1}, \"10\": {\"In\": 1}, \"11\": {\"In\": 1}, \"12\": {\"In\": 1}, \"13\": {\"In\": 1}, \"14\": {\"In\": 1}, \"15\": {\"In\": 1}, \"16\": {\"O\": 1}, \"17\": {\"O\": 1}, \"18\": {\"O\": 1}, \"19\": {\"O\": 1}, \"20\": {\"O\": 1}, \"21\": {\"O\": 1}, \"22\": {\"O\": 1}, \"23\": {\"O\": 1}, \"24\": {\"O\": 1}, \"25\": {\"O\": 1}, \"26\": {\"O\": 1}, \"27\": {\"O\": 1}, \"28\": {\"O\": 1}, \"29\": {\"O\": 1}, \"30\": {\"O\": 1}, \"31\": {\"O\": 1}, \"32\": {\"O\": 1}, \"33\": {\"O\": 1}, \"34\": {\"O\": 1}, \"35\": {\"O\": 1}, \"36\": {\"O\": 1}, \"37\": {\"O\": 1}, \"38\": {\"O\": 1}, \"39\": {\"O\": 1}}" n_minim_iter=6 energy=-45148.881469717395 stress="0.07796892161105118 -6.507878155946663e-15 -2.105345827624651e-15 -6.507878155946663e-15 0.0779689216111867 4.562882921477707e-14 -2.105345827624651e-15 4.562882921477707e-14 0.07796892161116944" free_energy=-45148.881469717395 pbc="T T T"
In      -4.40291155       3.11332861       5.95941742        0       0.00402489      -0.00284603       0.00492947
In       7.49249671       1.25600463       1.60848975        1      -0.00402489       0.00284603      -0.00492947
In       1.31332638      -0.92866199       5.39244333        2      -0.00402489       0.00284603      -0.00492947
In      -1.54479258      -2.18466662       3.78395358        3      -0.00000000      -0.00000000      -0.00000000
In      -1.31332638       4.20566192       3.50046654        4       0.00402489      -0.00284603      -0.00492947
In       4.86584395      -2.94965729       5.67593038        5       0.00402489       0.00569206       0.00000000
In      -1.31332638       1.41967596       5.67593038        6       0.00402489       0.00569206      -0.00000000
In      -1.77625879       7.31899054       1.89197679        7      -0.00402489      -0.00569206      -0.00000000
In       4.40291155       0.16367132       4.06744063        8      -0.00402489       0.00284603       0.00492947
In      -1.54479258       4.36933325      -0.00000000        9      -0.00000000       0.00000000      -0.00000000
In       4.40291154       6.71767119       0.28348704       10      -0.00402489       0.00284603       0.00492947
In      -1.31332638      -2.34833794       7.28442013       11       0.00402489      -0.00284603      -0.00492947
In       4.40291154       2.94965729       1.89197679       12      -0.00402489      -0.00569206       0.00000000
In       1.77625878       5.29799524       2.17546383       13       0.00402489      -0.00284603       0.00492947
In       4.63437775       0.00000000      -0.00000000       14       0.00000000       0.00000000      -0.00000000
In       1.54479258       2.18466662       3.78395358       15      -0.00000000      -0.00000000      -0.00000000
O        0.99275090       4.38400356       4.09250018       16       0.00076689      -0.00571690       0.00624752
O       -2.09683427       3.53687397       5.50895222       17       0.00076689       0.00826896       0.00182722
O       -0.44010187       2.36538725      -0.02988044       18       0.00266174       0.00692910       0.00414793
O       -0.99275090      -0.81778896       2.03354523       19      -0.00076689       0.00255207       0.00807474
O        4.03354151       5.16987073       2.06342567       20       0.00754042      -0.00015726       0.00392681
O        2.14562882       2.98262294       1.72499863       21      -0.00754042      -0.00347935       0.00182722
O        2.14562882       6.55658104       0.33842703       22      -0.00754042       0.00332209       0.00209960
O       -2.37680911       6.18046947       3.75407314       23      -0.00564557      -0.00481921       0.00414793
O        3.52968703       2.00394600       7.59778761       24      -0.00266174      -0.00692910      -0.00414793
O        5.46639427      -1.81113622       3.81383402       25       0.00564557       0.00481921      -0.00414793
O        6.61927219       3.34148303       1.72052791       26      -0.00266174       0.00705676      -0.00392681
O        3.80236122       2.34555460       4.12238062       27      -0.00564557       0.00600182       0.00209960
O        0.71277606       4.58197567       7.25936057       28      -0.00564557      -0.00118260      -0.00624752
O        2.37680911      -0.21264242       0.30854659       29       0.00564557       0.00118260       0.00624752
O       -3.52968703       1.02785022       5.84737925       30       0.00266174      -0.00705676       0.00392681
O        5.18641943       0.83245928       2.05895495       31      -0.00076689      -0.00826896      -0.00182722
O        0.94395634       1.38671031       5.84290854       32       0.00754042       0.00347935      -0.00182722
O        3.52968703      -0.97609577       5.81749881       33      -0.00266174      -0.00012766       0.00807474
O        2.09683427      -0.01467031       3.47540699       34      -0.00076689       0.00571690      -0.00624752
O        0.94395634      -2.18724779       7.22948014       35       0.00754042      -0.00332209      -0.00209960
O       -0.71277606       2.02377864       3.44552655       36       0.00564557      -0.00600182      -0.00209960
O       -0.94395635      -0.80053748       5.50448150       37      -0.00754042       0.00015726      -0.00392681
O       -0.44010187       5.34542902       1.75040835       38       0.00266174       0.00012766      -0.00807474
O        4.08233606       5.18712221       5.53436194       39       0.00076689      -0.00255207      -0.00807474
