40
Lattice="8.27308044834756 6.484220753213803e-10 2.7442725031160217e-14 -2.757693483393858 7.799935048221731 -1.1231135113134948e-09 -2.757693482476875 -3.8999675234624385 6.754941900377345" Properties=species:S:1:pos:R:3:spacegroup_kinds:I:1:forces:R:3 spacegroup="P 1" unit_cell=conventional occupancy="_JSON {\"0\": {\"In\": 1}, \"1\": {\"In\": 1}, \"2\": {\"In\": 1}, \"3\": {\"In\": 1}, \"4\": {\"In\": 1}, \"5\": {\"In\": 1}, \"6\": {\"In\": 1}, \"7\": {\"In\": 1}, \"8\": {\"In\": 1}, \"9\": {\"In\": 1}, \"10\": {\"In\": 1}, \"11\": {\"In\": 1}, \"12\": {\"In\": 1}, \"13\": {\"In\": 1}, \"14\": {\"In\": 1}, \"15\": {\"In\": 1}, \"16\": {\"O\": 1}, \"17\": {\"O\": 1}, \"18\": {\"O\": 1}, \"19\": {\"O\": 1}, \"20\": {\"O\": 1}, \"21\": {\"O\": 1}, \"22\": {\"O\": 1}, \"23\": {\"O\": 1}, \"24\": {\"O\": 1}, \"25\": {\"O\": 1}, \"26\": {\"O\": 1}, \"27\": {\"O\": 1}, \"28\": {\"O\": 1}, \"29\": {\"O\": 1}, \"30\": {\"O\": 1}, \"31\": {\"O\": 1}, \"32\": {\"O\": 1}, \"33\": {\"O\": 1}, \"34\": {\"O\": 1}, \"35\": {\"O\": 1}, \"36\": {\"O\": 1}, \"37\": {\"O\": 1}, \"38\": {\"O\": 1}, \"39\": {\"O\": 1}}" n_minim_iter=1 energy=-45136.933209449075 stress="-0.33970224166892965 -6.980891576887216e-14 3.7040856697035334e-14 -6.980891576887216e-14 -0.3397022416688583 -9.242851536337266e-14 3.7040856697035334e-14 -9.242851536337266e-14 -0.3397022416686404" free_energy=-45136.933209449075 pbc="T T T"
In      -3.93976521       2.78583470       5.30720562        0      -0.01585335       0.01121001      -0.01941631
In       6.69745869       1.11413283       1.44773628        1       0.01585335      -0.01121001       0.01941631
In       1.18207172      -0.83585093       4.82520723        2       0.01585335      -0.01121001       0.01941631
In      -1.37884674      -1.94998376       3.37747095        3       0.00000000       0.00000000      -0.00000000
In      -1.18207172       3.76082658       3.13647175        4      -0.01585335       0.01121001       0.01941631
In       4.33331524      -2.64669374       5.06620642        5      -0.01585335      -0.02242002       0.00000000
In      -1.18207172       1.25327378       5.06620642        6      -0.01585335      -0.02242002       0.00000000
In      -1.57562176       6.54666127       1.68873547        7       0.01585335       0.02242002      -0.00000000
In       3.93976520       0.13914095       3.61847014        8       0.01585335      -0.01121001      -0.01941631
In      -1.37884674       3.89996753      -0.00000000        9       0.00000000       0.00000000      -0.00000000
In       3.93976520       5.98909224       0.24099919       10       0.01585335      -0.01121001      -0.01941631
In      -1.18207172      -2.08912471       6.51394270       11      -0.01585335       0.01121001       0.01941631
In       3.93976520       2.64669375       1.68873547       12       0.01585335       0.02242002      -0.00000000
In       1.57562176       4.73581846       1.92973467       13      -0.01585335       0.01121001      -0.01941631
In       4.13654022       0.00000000      -0.00000000       14       0.00000000       0.00000000       0.00000000
In       1.37884674       1.94998376       3.37747095       15      -0.00000000      -0.00000000      -0.00000000
O        0.78474577       3.89057903       3.71905845       16      -0.00282872       0.00604854       0.12768564
O       -1.97294771       3.22549335       4.90354334       17      -0.00282872       0.10755474      -0.06908101
O       -0.38316999       2.10135074       0.09567356       18       0.10616329       0.03048575       0.06440640
O       -0.78474577      -0.68386267       1.86765990       19       0.00282872       0.11360328       0.05860463
O        3.69867353       4.63906735       1.77198634       20       0.10234649      -0.07641823      -0.00580176
O        1.81671343       2.73493225       1.52607239       21      -0.10234649      -0.03318464      -0.06908101
O        1.81671343       5.80410263       0.24591394       22      -0.10234649      -0.04323359       0.06327924
O       -2.10889581       5.51075717       3.47314451       23       0.00664552      -0.11025363       0.06440640
O        3.14086346       1.79861679       6.65926833       24      -0.10616329      -0.03048575      -0.06440640
O        4.86658929      -1.61078964       3.28179738       25      -0.00664552       0.11025363      -0.06440640
O        5.89855695       3.08351487       1.60548461       26      -0.10616329       0.07102045       0.00580176
O        3.40649116       2.20243656       3.62338489       27       0.00664552       0.11090439       0.06327924
O        0.64879768       3.98670885       6.41335439       28       0.00664552      -0.00065076      -0.12768564
O        2.10889580      -0.08674132       0.34158751       29      -0.00664552       0.00065076       0.12768564
O       -3.14086347       0.81645266       5.14945729       30       0.10616329      -0.07102045      -0.00580176
O        4.73064119       0.67447418       1.85139855       31       0.00282872      -0.10755474       0.06908101
O        0.94098005       1.16503528       5.22886950       32       0.10234649       0.03318464       0.06908101
O        3.14086347      -0.98216413       5.24513085       33      -0.10616329      -0.04053470       0.05860463
O        1.97294771       0.00938850       3.03588344       34       0.00282872      -0.00604854      -0.12768564
O        0.94098005      -1.90413510       6.50902795       35       0.10234649       0.04323359      -0.06327924
O       -0.64879768       1.69753097       3.13155700       36      -0.00664552      -0.11090439      -0.06327924
O       -0.94098005      -0.73909982       4.98295556       37      -0.10234649       0.07641823       0.00580176
O       -0.38316999       4.88213165       1.50981104       38       0.10616329       0.04053470      -0.05860463
O        3.54243925       4.58383020       4.88728199       39      -0.00282872      -0.11360328      -0.05860463
40
Lattice="8.27308044834756 6.484220753213803e-10 2.7442725031160226e-14 -2.757693483393858 7.799935048221732 -1.123113511313495e-09 -2.757693482476875 -3.899967523462439 6.754941900377347" Properties=species:S:1:pos:R:3:spacegroup_kinds:I:1:forces:R:3 spacegroup="P 1" unit_cell=conventional occupancy="_JSON {\"0\": {\"In\": 1}, \"1\": {\"In\": 1}, \"2\": {\"In\": 1}, \"3\": {\"In\": 1}, \"4\": {\"In\": 1}, \"5\": {\"In\": 1}, \"6\": {\"In\": 1}, \"7\": {\"In\": 1}, \"8\": {\"In\": 1}, \"9\": {\"In\": 1}, \"10\": {\"In\": 1}, \"11\": {\"In\": 1}, \"12\": {\"In\": 1}, \"13\": {\"In\": 1}, \"14\": {\"In\": 1}, \"15\": {\"In\": 1}, \"16\": {\"O\": 1}, \"17\": {\"O\": 1}, \"18\": {\"O\": 1}, \"19\": {\"O\": 1}, \"20\": {\"O\": 1}, \"21\": {\"O\": 1}, \"22\": {\"O\": 1}, \"23\": {\"O\": 1}, \"24\": {\"O\": 1}, \"25\": {\"O\": 1}, \"26\": {\"O\": 1}, \"27\": {\"O\": 1}, \"28\": {\"O\": 1}, \"29\": {\"O\": 1}, \"30\": {\"O\": 1}, \"31\": {\"O\": 1}, \"32\": {\"O\": 1}, \"33\": {\"O\": 1}, \"34\": {\"O\": 1}, \"35\": {\"O\": 1}, \"36\": {\"O\": 1}, \"37\": {\"O\": 1}, \"38\": {\"O\": 1}, \"39\": {\"O\": 1}}" n_minim_iter=2 energy=-45136.939075303475 stress="-0.33879546642463065 -2.267397822394954e-13 -2.4414797977391015e-13 -2.267397822394954e-13 -0.3387954664247499 -2.973839894148226e-13 -2.4414797977391015e-13 -2.973839894148226e-13 -0.3387954664249362" free_energy=-45136.939075303475 pbc="T T T"
In      -3.94022863       2.78616239       5.30663804        0       0.05946989      -0.04205156       0.07283545
In       6.69792211       1.11380514       1.44830385        1      -0.05946989       0.04205156      -0.07283545
In       1.18253515      -0.83617862       4.82577480        2      -0.05946989       0.04205156      -0.07283545
In      -1.37884674      -1.94998376       3.37747095        3      -0.00000000       0.00000000       0.00000000
In      -1.18253515       3.76115427       3.13703933        4       0.05946989      -0.04205156      -0.07283545
In       4.33285182      -2.64734912       5.06620642        5       0.05946989       0.08410313      -0.00000000
In      -1.18253515       1.25261840       5.06620642        6       0.05946989       0.08410313      -0.00000000
In      -1.57515834       6.54731665       1.68873547        7      -0.05946989      -0.08410313       0.00000000
In       3.94022863       0.13881326       3.61790257        8      -0.05946989       0.04205156       0.07283545
In      -1.37884674       3.89996753      -0.00000000        9      -0.00000000       0.00000000       0.00000000
In       3.94022863       5.98876455       0.24043162       10      -0.05946989       0.04205156       0.07283545
In      -1.18253515      -2.08879702       6.51451028       11       0.05946989      -0.04205156      -0.07283545
In       3.94022863       2.64734913       1.68873547       12      -0.05946989      -0.08410313       0.00000000
In       1.57515833       4.73614615       1.92916709       13       0.05946989      -0.04205156       0.07283545
In       4.13654022       0.00000000      -0.00000000       14       0.00000000       0.00000000      -0.00000000
In       1.37884674       1.94998376       3.37747095       15      -0.00000000      -0.00000000      -0.00000000
O        0.78466308       3.89075584       3.72279095       16      -0.03138274      -0.03797661       0.01217910
O       -1.97303040       3.22863738       4.90152397       17      -0.03138274       0.02953572       0.02679916
O       -0.38006663       2.10224190       0.09755628       18      -0.01841907       0.02036902       0.04267636
O       -0.78466309      -0.68054183       1.86937303       19       0.03138274      -0.00844089       0.03897826
O        3.70166531       4.63683350       1.77181674       20       0.03830746       0.03308010      -0.00369809
O        1.81372165       2.73396220       1.52405302       21      -0.03830746       0.01974269       0.02679916
O        1.81372165       5.80283883       0.24776371       22      -0.03830746       0.01333741      -0.03049725
O       -2.10870155       5.50753424       3.47502723       23      -0.02534378       0.01057599       0.04267636
O        3.13776011       1.79772563       6.65738561       24       0.01841907      -0.02036902      -0.04267636
O        4.86639502      -1.60756671       3.27991466       25       0.02534378      -0.01057599      -0.04267636
O        5.89545359       3.08559093       1.60565420       26       0.01841907       0.04714332       0.00369809
O        3.40668542       2.20567851       3.62523467       27      -0.02534378       0.03167082      -0.03049725
O        0.64899194       3.98668983       6.40962189       28      -0.02534378      -0.04224681      -0.01217910
O        2.10870154      -0.08672230       0.34532000       29       0.02534378       0.04224681       0.01217910
O       -3.13776011       0.81437659       5.14928769       30      -0.01841907      -0.04714332      -0.00369809
O        4.73072388       0.67133015       1.85341792       31       0.03138274      -0.02953572      -0.02679916
O        0.94397183       1.16600533       5.23088887       32       0.03830746      -0.01974269      -0.02679916
O        3.13776011      -0.98334903       5.24684398       33       0.01841907      -0.02677430       0.03897826
O        1.97303040       0.00921169       3.03215094       34       0.03138274       0.03797661      -0.01217910
O        0.94397183      -1.90287130       6.50717818       35       0.03830746      -0.01333741       0.03049725
O       -0.64899194       1.69428902       3.12970723       36       0.02534378      -0.03167082       0.03049725
O       -0.94397183      -0.73686597       4.98312515       37      -0.03830746      -0.03308010       0.00369809
O       -0.38006663       4.88331656       1.50809792       38      -0.01841907       0.02677430      -0.03897826
O        3.54235657       4.58050935       4.88556887       39      -0.03138274       0.00844089      -0.03897826
40
Lattice="8.273080448347567 6.484220753213811e-10 2.7442725031160258e-14 -2.7576934833938616 7.799935048221741 -1.123113511313496e-09 -2.7576934824768786 -3.8999675234624434 6.754941900377353" Properties=species:S:1:pos:R:3:spacegroup_kinds:I:1:forces:R:3 spacegroup="P 1" unit_cell=conventional occupancy="_JSON {\"0\": {\"In\": 1}, \"1\": {\"In\": 1}, \"2\": {\"In\": 1}, \"3\": {\"In\": 1}, \"4\": {\"In\": 1}, \"5\": {\"In\": 1}, \"6\": {\"In\": 1}, \"7\": {\"In\": 1}, \"8\": {\"In\": 1}, \"9\": {\"In\": 1}, \"10\": {\"In\": 1}, \"11\": {\"In\": 1}, \"12\": {\"In\": 1}, \"13\": {\"In\": 1}, \"14\": {\"In\": 1}, \"15\": {\"In\": 1}, \"16\": {\"O\": 1}, \"17\": {\"O\": 1}, \"18\": {\"O\": 1}, \"19\": {\"O\": 1}, \"20\": {\"O\": 1}, \"21\": {\"O\": 1}, \"22\": {\"O\": 1}, \"23\": {\"O\": 1}, \"24\": {\"O\": 1}, \"25\": {\"O\": 1}, \"26\": {\"O\": 1}, \"27\": {\"O\": 1}, \"28\": {\"O\": 1}, \"29\": {\"O\": 1}, \"30\": {\"O\": 1}, \"31\": {\"O\": 1}, \"32\": {\"O\": 1}, \"33\": {\"O\": 1}, \"34\": {\"O\": 1}, \"35\": {\"O\": 1}, \"36\": {\"O\": 1}, \"37\": {\"O\": 1}, \"38\": {\"O\": 1}, \"39\": {\"O\": 1}}" n_minim_iter=3 energy=-45136.94480781279 stress="-0.3378966447310479 -5.750584636883991e-14 5.253300348349757e-15 -5.750584636883991e-14 -0.33789664473132985 -4.2319308753385434e-14 5.253300348349757e-15 -4.2319308753385434e-14 -0.3378966447314438" free_energy=-45136.94480781279 pbc="T T T"
In      -3.93707532       2.78393266       5.31050004        0       0.01217686      -0.00861034       0.01491354
In       6.69476880       1.11603487       1.44444185        1      -0.01217686       0.00861034      -0.01491354
In       1.17938183      -0.83394889       4.82191280        2      -0.01217686       0.00861034      -0.01491354
In      -1.37884674      -1.94998376       3.37747095        3       0.00000000       0.00000000       0.00000000
In      -1.17938184       3.75892454       3.13317733        4       0.01217686      -0.00861034      -0.01491354
In       4.33600513      -2.64288967       5.06620642        5       0.01217686       0.01722068      -0.00000000
In      -1.17938184       1.25707786       5.06620642        6       0.01217686       0.01722068       0.00000000
In      -1.57831165       6.54285719       1.68873547        7      -0.01217686      -0.01722068       0.00000000
In       3.93707532       0.14104299       3.62176457        8      -0.01217686       0.00861034       0.01491354
In      -1.37884674       3.89996753      -0.00000000        9       0.00000000      -0.00000000      -0.00000000
In       3.93707532       5.99099428       0.24429362       10      -0.01217686       0.00861034       0.01491354
In      -1.17938184      -2.09102675       6.51064828       11       0.01217686      -0.00861034      -0.01491354
In       3.93707532       2.64288967       1.68873547       12      -0.01217686      -0.01722068       0.00000000
In       1.57831165       4.73391642       1.93302909       13       0.01217686      -0.00861034       0.01491354
In       4.13654022       0.00000000      -0.00000000       14      -0.00000000       0.00000000      -0.00000000
In       1.37884674       1.94998376       3.37747095       15       0.00000000      -0.00000000      -0.00000000
O        0.78267920       3.88862575       3.72717770       16       0.00782212       0.02454462       0.00232544
O       -1.97501428       3.23350147       4.90117531       17       0.00782212      -0.01025842      -0.02241898
O       -0.37815029       2.10434811       0.10198439       18       0.01607653      -0.01609517      -0.01230944
O       -0.78267921      -0.67780784       1.87341112       19      -0.00782212       0.01428619      -0.02009354
O        3.70691251       4.63665608       1.77142672       20      -0.01227911      -0.02139305      -0.00778411
O        1.80847445       2.73421126       1.52370436       21       0.01227911      -0.00395529      -0.02241898
O        1.80847445       5.80241235       0.24772235       22       0.01227911      -0.01743776       0.01463487
O       -2.11004852       5.50502543       3.47945534       23       0.02053351      -0.00979204      -0.01230944
O        3.13584377       1.79561942       6.65295750       24      -0.01607653       0.01609517       0.01230944
O        4.86774200      -1.60505790       3.27548655       25      -0.02053351       0.00979204       0.01230944
O        5.89353725       3.09047890       1.60604422       26      -0.01607653      -0.01870787       0.00778411
O        3.40533844       2.21076777       3.62519330       27       0.02053351      -0.00576427       0.01463487
O        0.64764496       3.98410938       6.40523514       28       0.02053351       0.01555631      -0.00232544
O        2.11004852      -0.08414185       0.34970675       29      -0.02053351      -0.01555631       0.00232544
O       -3.13584377       0.80948863       5.14889767       30       0.01607653       0.01870787      -0.00778411
O        4.73270776       0.66646606       1.85376658       31      -0.00782212       0.01025842       0.02241898
O        0.94921902       1.16575627       5.23123753       32      -0.01227911       0.00395529       0.02241898
O        3.13584377      -0.98613078       5.25088207       33      -0.01607653       0.00261270      -0.02009354
O        1.97501428       0.01134178       3.02776419       34      -0.00782212      -0.02454462      -0.00232544
O        0.94921903      -1.90244482       6.50721954       35      -0.01227911       0.01743776      -0.01463487
O       -0.64764496       1.68919976       3.12974859       36      -0.02053351       0.00576427      -0.01463487
O       -0.94921903      -0.73668856       4.98351517       37       0.01227911       0.02139305       0.00778411
O       -0.37815029       4.88609831       1.50405983       38       0.01607653      -0.00261270       0.02009354
O        3.54037269       4.57777537       4.88153078       39       0.00782212      -0.01428619       0.02009354
40
Lattice="8.27308044834758 6.484220753213822e-10 2.7442725031160302e-14 -2.757693483393866 7.799935048221752 -1.1231135113134977e-09 -2.757693482476883 -3.899967523462449 6.754941900377363" Properties=species:S:1:pos:R:3:spacegroup_kinds:I:1:forces:R:3 spacegroup="P 1" unit_cell=conventional occupancy="_JSON {\"0\": {\"In\": 1}, \"1\": {\"In\": 1}, \"2\": {\"In\": 1}, \"3\": {\"In\": 1}, \"4\": {\"In\": 1}, \"5\": {\"In\": 1}, \"6\": {\"In\": 1}, \"7\": {\"In\": 1}, \"8\": {\"In\": 1}, \"9\": {\"In\": 1}, \"10\": {\"In\": 1}, \"11\": {\"In\": 1}, \"12\": {\"In\": 1}, \"13\": {\"In\": 1}, \"14\": {\"In\": 1}, \"15\": {\"In\": 1}, \"16\": {\"O\": 1}, \"17\": {\"O\": 1}, \"18\": {\"O\": 1}, \"19\": {\"O\": 1}, \"20\": {\"O\": 1}, \"21\": {\"O\": 1}, \"22\": {\"O\": 1}, \"23\": {\"O\": 1}, \"24\": {\"O\": 1}, \"25\": {\"O\": 1}, \"26\": {\"O\": 1}, \"27\": {\"O\": 1}, \"28\": {\"O\": 1}, \"29\": {\"O\": 1}, \"30\": {\"O\": 1}, \"31\": {\"O\": 1}, \"32\": {\"O\": 1}, \"33\": {\"O\": 1}, \"34\": {\"O\": 1}, \"35\": {\"O\": 1}, \"36\": {\"O\": 1}, \"37\": {\"O\": 1}, \"38\": {\"O\": 1}, \"39\": {\"O\": 1}}" n_minim_iter=4 energy=-45136.945465867204 stress="-0.33770696635643077 5.042720060936445e-14 4.621982926257218e-14 5.042720060936445e-14 -0.33770696635606395 1.2531727079600565e-13 4.621982926257218e-14 1.2531727079600565e-13 -0.33770696635572955" free_energy=-45136.945465867204 pbc="T T T"
In      -3.93594385       2.78313259       5.31188581        0       0.00440234      -0.00311292       0.00539174
In       6.69363733       1.11683494       1.44305609        1      -0.00440234       0.00311292      -0.00539174
In       1.17825036      -0.83314882       4.82052704        2      -0.00440234       0.00311292      -0.00539174
In      -1.37884674      -1.94998376       3.37747095        3       0.00000000       0.00000000       0.00000000
In      -1.17825037       3.75812447       3.13179156        4       0.00440234      -0.00311292      -0.00539174
In       4.33713660      -2.64128952       5.06620642        5       0.00440234       0.00622585      -0.00000000
In      -1.17825037       1.25867800       5.06620642        6       0.00440234       0.00622585      -0.00000000
In      -1.57944312       6.54125705       1.68873547        7      -0.00440234      -0.00622585       0.00000000
In       3.93594385       0.14184306       3.62315033        8      -0.00440234       0.00311292       0.00539174
In      -1.37884674       3.89996753      -0.00000000        9       0.00000000       0.00000000       0.00000000
In       3.93594385       5.99179435       0.24567938       10      -0.00440234       0.00311292       0.00539174
In      -1.17825037      -2.09182682       6.50926251       11       0.00440234      -0.00311292      -0.00539174
In       3.93594385       2.64128953       1.68873547       12      -0.00440234      -0.00622585       0.00000000
In       1.57944312       4.73311635       1.93441486       13       0.00440234      -0.00311292       0.00539174
In       4.13654022       0.00000000      -0.00000000       14      -0.00000000      -0.00000000      -0.00000000
In       1.37884674       1.94998376       3.37747095       15      -0.00000000       0.00000000       0.00000000
O        0.78291558       3.88987471       3.72789559       16       0.01272641      -0.00696300      -0.00233945
O       -1.97477790       3.23349870       4.89973473       17       0.01272641       0.00145548       0.00719986
O       -0.37689658       2.10362597       0.10178979       18      -0.00095041       0.01112645      -0.00955075
O       -0.78291558      -0.67656164       1.87268843       19      -0.01272641      -0.00550753       0.00486041
O        3.70683110       4.63529754       1.77089863       20      -0.00286990      -0.00000660       0.01441116
O        1.80855586       2.73398933       1.52226378       21       0.00286990      -0.01248373       0.00719986
O        1.80855586       5.80127574       0.24863485       22       0.00286990       0.01247713       0.00721130
O       -2.10894978       5.50408413       3.47926074       23      -0.01080692      -0.00281276      -0.00955075
O        3.13459006       1.79634155       6.65315210       24       0.00095041      -0.01112645       0.00955075
O        4.86664326      -1.60411660       3.27568115       25       0.01080692       0.00281276       0.00955075
O        5.89228354       3.08994930       1.60657231       26       0.00095041      -0.00270797      -0.01441116
O        3.40643719       2.21106989       3.62610580       27      -0.01080692      -0.00686481       0.00721130
O        0.64874370       3.98474856       6.40451725       28      -0.01080692       0.00967757       0.00233945
O        2.10894978      -0.08478103       0.35042464       29       0.01080692      -0.00967757      -0.00233945
O       -3.13459006       0.81001823       5.14836958       30      -0.00095041       0.00270797       0.01441116
O        4.73247138       0.66646883       1.85520716       31      -0.01272641      -0.00145548      -0.00719986
O        0.94913762       1.16597820       5.23267811       32      -0.00286990       0.01248373      -0.00719986
O        3.13459006      -0.98632332       5.25015938       33       0.00095041       0.01383441       0.00486041
O        1.97477790       0.01009282       3.02704630       34      -0.01272641       0.00696300       0.00233945
O        0.94913762      -1.90130821       6.50630705       35      -0.00286990      -0.01247713      -0.00721130
O       -0.64874371       1.68889764       3.12883610       36       0.01080692       0.00686481      -0.00721130
O       -0.94913762      -0.73533001       4.98404326       37       0.00286990       0.00000660      -0.01441116
O       -0.37689658       4.88629085       1.50478252       38      -0.00095041      -0.01383441      -0.00486041
O        3.54060906       4.57652917       4.88225347       39       0.01272641       0.00550753      -0.00486041
40
Lattice="8.27308044834757 6.484220753213813e-10 2.7442725031160258e-14 -2.7576934833938638 7.7999350482217435 -1.1231135113134972e-09 -2.757693482476881 -3.8999675234624447 6.754941900377361" Properties=species:S:1:pos:R:3:spacegroup_kinds:I:1:forces:R:3 spacegroup="P 1" unit_cell=conventional occupancy="_JSON {\"0\": {\"In\": 1}, \"1\": {\"In\": 1}, \"2\": {\"In\": 1}, \"3\": {\"In\": 1}, \"4\": {\"In\": 1}, \"5\": {\"In\": 1}, \"6\": {\"In\": 1}, \"7\": {\"In\": 1}, \"8\": {\"In\": 1}, \"9\": {\"In\": 1}, \"10\": {\"In\": 1}, \"11\": {\"In\": 1}, \"12\": {\"In\": 1}, \"13\": {\"In\": 1}, \"14\": {\"In\": 1}, \"15\": {\"In\": 1}, \"16\": {\"O\": 1}, \"17\": {\"O\": 1}, \"18\": {\"O\": 1}, \"19\": {\"O\": 1}, \"20\": {\"O\": 1}, \"21\": {\"O\": 1}, \"22\": {\"O\": 1}, \"23\": {\"O\": 1}, \"24\": {\"O\": 1}, \"25\": {\"O\": 1}, \"26\": {\"O\": 1}, \"27\": {\"O\": 1}, \"28\": {\"O\": 1}, \"29\": {\"O\": 1}, \"30\": {\"O\": 1}, \"31\": {\"O\": 1}, \"32\": {\"O\": 1}, \"33\": {\"O\": 1}, \"34\": {\"O\": 1}, \"35\": {\"O\": 1}, \"36\": {\"O\": 1}, \"37\": {\"O\": 1}, \"38\": {\"O\": 1}, \"39\": {\"O\": 1}}" n_minim_iter=5 energy=-45136.94565169777 stress="-0.3377841827036923 -4.934675964391796e-14 2.2110006887848496e-14 -4.934675964391796e-14 -0.3377841827038414 -8.676868063596234e-14 2.2110006887848496e-14 -8.676868063596234e-14 -0.33778418270373634" free_energy=-45136.94565169777 pbc="T T T"
In      -3.93541950       2.78276181       5.31252801        0      -0.00577998       0.00408706      -0.00707900
In       6.69311297       1.11720572       1.44241389        1       0.00577998      -0.00408706       0.00707900
In       1.17772601      -0.83277805       4.81988484        2       0.00577998      -0.00408706       0.00707900
In      -1.37884674      -1.94998376       3.37747095        3       0.00000000       0.00000000       0.00000000
In      -1.17772601       3.75775369       3.13114936        4      -0.00577998       0.00408706       0.00707900
In       4.33766095      -2.64054798       5.06620642        5      -0.00577998      -0.00817412       0.00000000
In      -1.17772601       1.25941955       5.06620642        6      -0.00577998      -0.00817412      -0.00000000
In      -1.57996747       6.54051550       1.68873547        7       0.00577998       0.00817412      -0.00000000
In       3.93541949       0.14221383       3.62379253        8       0.00577998      -0.00408706      -0.00707900
In      -1.37884674       3.89996753      -0.00000000        9       0.00000000       0.00000000       0.00000000
In       3.93541949       5.99216512       0.24632158       10       0.00577998      -0.00408706      -0.00707900
In      -1.17772601      -2.09219759       6.50862031       11      -0.00577998       0.00408706       0.00707900
In       3.93541949       2.64054798       1.68873547       12       0.00577998       0.00817412      -0.00000000
In       1.57996747       4.73274557       1.93505706       13      -0.00577998       0.00408706      -0.00707900
In       4.13654022       0.00000000      -0.00000000       14       0.00000000       0.00000000      -0.00000000
In       1.37884674       1.94998376       3.37747095       15      -0.00000000       0.00000000      -0.00000000
O        0.78382044       3.88986311       3.72770956       16       0.00702548       0.00064073       0.00977326
O       -1.97387305       3.23334339       4.89983779       17       0.00702548       0.00814352      -0.00544152
O       -0.37675232       2.10400849       0.10096132       18       0.01062370       0.00559920      -0.00103461
O       -0.78382044      -0.67672855       1.87260546       19      -0.00702548       0.00878426       0.00433174
O        3.70638306       4.63498612       1.77164414       20       0.00533596      -0.00938159       0.00536635
O        1.80900390       2.73318799       1.52236684       21      -0.00533596      -0.00933819      -0.00544152
O        1.80900390       5.80176566       0.24927730       22      -0.00533596      -0.00004340       0.01080787
O       -2.10926234       5.50382061       3.47843226       23      -0.00173774      -0.01188252      -0.00103461
O        3.13444579       1.79595904       6.65398058       24      -0.01062370      -0.00559920       0.00103461
O        4.86695581      -1.60385308       3.27650963       25       0.00173774       0.01188252       0.00103461
O        5.89213928       3.08942308       1.60582680       26      -0.01062370       0.00190360      -0.00536635
O        3.40612463       2.21048417       3.62674825       27      -0.00173774       0.00504526       0.01080787
O        0.64843115       3.98559780       6.40470328       28      -0.00173774       0.00683726      -0.00977326
O        2.10926233      -0.08563027       0.35023862       29       0.00173774      -0.00683726       0.00977326
O       -3.13444580       0.81054445       5.14911509       30       0.01062370      -0.00190360       0.00536635
O        4.73156652       0.66662414       1.85510410       31      -0.00702548      -0.00814352       0.00544152
O        0.94868958       1.16677954       5.23257505       32       0.00533596       0.00933819       0.00544152
O        3.13444579      -0.98541458       5.25007641       33      -0.01062370       0.00369560       0.00433174
O        1.97387304       0.01010441       3.02723233       34      -0.00702548      -0.00064073      -0.00977326
O        0.94868958      -1.90179813       6.50566460       35       0.00533596       0.00004340      -0.01080787
O       -0.64843115       1.68948336       3.12819365       36       0.00173774      -0.00504526      -0.01080787
O       -0.94868958      -0.73501859       4.98329775       37      -0.00533596       0.00938159      -0.00536635
O       -0.37675232       4.88538211       1.50486549       38       0.01062370      -0.00369560      -0.00433174
O        3.54151392       4.57669607       4.88233644       39       0.00702548      -0.00878426      -0.00433174
40