40
Lattice="8.760827319387163 6.866480843028469e-10 8.658698975789667e-15 -2.920275773776433 8.259787208228484 -1.1893155339034423e-09 -2.9202757728053754 -4.129893603427589 7.153185552972492" Properties=species:S:1:pos:R:3:spacegroup_kinds:I:1:forces:R:3 spacegroup="P 1" unit_cell=conventional occupancy="_JSON {\"0\": {\"In\": 1}, \"1\": {\"In\": 1}, \"2\": {\"In\": 1}, \"3\": {\"In\": 1}, \"4\": {\"In\": 1}, \"5\": {\"In\": 1}, \"6\": {\"In\": 1}, \"7\": {\"In\": 1}, \"8\": {\"In\": 1}, \"9\": {\"In\": 1}, \"10\": {\"In\": 1}, \"11\": {\"In\": 1}, \"12\": {\"In\": 1}, \"13\": {\"In\": 1}, \"14\": {\"In\": 1}, \"15\": {\"In\": 1}, \"16\": {\"O\": 1}, \"17\": {\"O\": 1}, \"18\": {\"O\": 1}, \"19\": {\"O\": 1}, \"20\": {\"O\": 1}, \"21\": {\"O\": 1}, \"22\": {\"O\": 1}, \"23\": {\"O\": 1}, \"24\": {\"O\": 1}, \"25\": {\"O\": 1}, \"26\": {\"O\": 1}, \"27\": {\"O\": 1}, \"28\": {\"O\": 1}, \"29\": {\"O\": 1}, \"30\": {\"O\": 1}, \"31\": {\"O\": 1}, \"32\": {\"O\": 1}, \"33\": {\"O\": 1}, \"34\": {\"O\": 1}, \"35\": {\"O\": 1}, \"36\": {\"O\": 1}, \"37\": {\"O\": 1}, \"38\": {\"O\": 1}, \"39\": {\"O\": 1}}" n_minim_iter=4 energy=-45151.23212432877 stress="-0.051741472674186696 -6.131694845070999e-14 -6.420418355751047e-14 -6.131694845070999e-14 -0.0517414726746853 -8.648761155580522e-14 -6.420418355751047e-14 -8.648761155580522e-14 -0.05174147267451172" free_energy=-45151.23212432877 pbc="T T T"
In      -4.18175438       2.95694688       5.60819610        0      -0.00140813       0.00099570      -0.00172460
In       7.10203015       1.17294673       1.54498945        1       0.00140813      -0.00099570       0.00172460
In       1.26147860      -0.89200007       5.12158222        2       0.00140813      -0.00099570       0.00172460
In      -1.46013789      -2.06494680       3.57659277        3      -0.00000000      -0.00000000       0.00000000
In      -1.26147861       3.98942028       3.33328584        4      -0.00140813       0.00099570       0.00172460
In       4.57907294      -2.81647355       5.36488916        5      -0.00140813      -0.00199140       0.00000000
In      -1.26147861       1.31342005       5.36488916        6      -0.00140813      -0.00199140       0.00000000
In      -1.65879717       6.94636716       1.78829638        7       0.00140813       0.00199140       0.00000000
In       4.18175438       0.14047333       3.81989971        8       0.00140813      -0.00099570      -0.00172460
In      -1.46013789       4.12989361      -0.00000000        9       0.00000000       0.00000000      -0.00000000
In       4.18175438       6.33531373       0.24330693       10       0.00140813      -0.00099570      -0.00172460
In      -1.26147861      -2.20542013       6.90987861       11      -0.00140813       0.00099570       0.00172460
In       4.18175438       2.81647355       1.78829639       12       0.00140813       0.00199140      -0.00000000
In       1.65879717       5.02189368       2.03160332       13      -0.00140813       0.00099570      -0.00172460
In       4.38041366       0.00000000      -0.00000000       14      -0.00000000       0.00000000      -0.00000000
In       1.46013788       2.06494680       3.57659277       15      -0.00000000      -0.00000000      -0.00000000
O        0.84887937       4.12623767       3.90550273       16      -0.00521485       0.00840560       0.00027209
O       -2.07139641       3.38409255       5.20360032       17      -0.00521485      -0.00396717      -0.00741551
O       -0.42363504       2.21894932       0.06850205       18       0.00244631      -0.00938443       0.00196746
O       -0.84887937      -0.74945699       1.95591750       19       0.00521485       0.00443843      -0.00714342
O        3.88101852       4.91890028       1.88741545       20      -0.00200200      -0.00330252      -0.00911088
O        1.95953302       2.88984721       1.62700754       21       0.00200200       0.00623900      -0.00741551
O        1.95953302       6.15894667       0.26040790       22       0.00200200      -0.00954152      -0.00169537
O       -2.23325716       5.85459758       3.64509482       23       0.00966316       0.00082174       0.00196746
O        3.34391081       1.91094429       7.08468350       24      -0.00244631       0.00938443      -0.00196746
O        5.15353293      -1.72470397       3.50809072       25      -0.00966316      -0.00082174      -0.00196746
O        6.26418658       3.23374598       1.68917732       26      -0.00244631      -0.00298834       0.00911088
O        3.60729439       2.29439273       3.83700068       27       0.00966316       0.00129300      -0.00169537
O        0.68701862       4.24069050       6.82427559       28       0.00966316      -0.00211474      -0.00027209
O        2.23325715      -0.11079690       0.32890995       29      -0.00966316       0.00211474       0.00027209
O       -3.34391081       0.89614763       5.46400822       30       0.00244631       0.00298834      -0.00911088
O        4.99167218       0.74580106       1.94958523       31       0.00521485       0.00396717       0.00741551
O        0.96074275       1.24004640       5.52617801       32      -0.00200200      -0.00623900       0.00741551
O        3.34391081      -1.01479666       5.53251028       33      -0.00244631      -0.00639608      -0.00714342
O        2.07139640       0.00365594       3.24768282       34       0.00521485      -0.00840560      -0.00027209
O        0.96074275      -2.02905306       6.89277764       35      -0.00200200       0.00954152       0.00169537
O       -0.68701862       1.83550087       3.31618487       36      -0.00966316      -0.00129300       0.00169537
O       -0.96074275      -0.78900667       5.26577010       37       0.00200200       0.00330252       0.00911088
O       -0.42363504       5.14469027       1.62067527       38       0.00244631       0.00639608       0.00714342
O        3.76915514       4.87935060       5.19726805       39      -0.00521485      -0.00443843       0.00714342
