40
Lattice="9.53562758654519 7.473729921167616e-10 2.1601016856968503e-14 -3.178542529553026 8.990275905505028 -1.2945120777005041e-09 -3.178542528496099 -4.495137952005127 7.785807322061499" Properties=species:S:1:pos:R:3:spacegroup_kinds:I:1:forces:R:3 spacegroup="P 1" unit_cell=conventional occupancy="_JSON {\"0\": {\"In\": 1}, \"1\": {\"In\": 1}, \"2\": {\"In\": 1}, \"3\": {\"In\": 1}, \"4\": {\"In\": 1}, \"5\": {\"In\": 1}, \"6\": {\"In\": 1}, \"7\": {\"In\": 1}, \"8\": {\"In\": 1}, \"9\": {\"In\": 1}, \"10\": {\"In\": 1}, \"11\": {\"In\": 1}, \"12\": {\"In\": 1}, \"13\": {\"In\": 1}, \"14\": {\"In\": 1}, \"15\": {\"In\": 1}, \"16\": {\"O\": 1}, \"17\": {\"O\": 1}, \"18\": {\"O\": 1}, \"19\": {\"O\": 1}, \"20\": {\"O\": 1}, \"21\": {\"O\": 1}, \"22\": {\"O\": 1}, \"23\": {\"O\": 1}, \"24\": {\"O\": 1}, \"25\": {\"O\": 1}, \"26\": {\"O\": 1}, \"27\": {\"O\": 1}, \"28\": {\"O\": 1}, \"29\": {\"O\": 1}, \"30\": {\"O\": 1}, \"31\": {\"O\": 1}, \"32\": {\"O\": 1}, \"33\": {\"O\": 1}, \"34\": {\"O\": 1}, \"35\": {\"O\": 1}, \"36\": {\"O\": 1}, \"37\": {\"O\": 1}, \"38\": {\"O\": 1}, \"39\": {\"O\": 1}}" n_minim_iter=6 energy=-45143.85265418276 stress="0.10343871957350702 -7.71768081195936e-14 8.09850119192892e-14 -7.71768081195936e-14 0.10343871957319836 -7.153247115863221e-16 8.09850119192892e-14 -7.153247115863221e-16 0.10343871957318825" free_energy=-45143.85265418276 pbc="T T T"
In      -4.51200402       3.19046864       6.15265720        0      -0.00433270       0.00306368      -0.00530645
In       7.69054654       1.30466932       1.63315012        1       0.00433270      -0.00306368       0.00530645
In       1.33346149      -0.94289966       5.52605378        2       0.00433270      -0.00306368       0.00530645
In      -1.58927127      -2.24756897       3.89290366        3       0.00000000      -0.00000000       0.00000000
In      -1.33346149       4.31425313       3.57960195        4      -0.00433270       0.00306368       0.00530645
In       5.02362357      -3.00958381       5.83935549        5      -0.00433270      -0.00612736      -0.00000000
In      -1.33346149       1.48555415       5.83935549        6      -0.00433270      -0.00612736      -0.00000000
In      -1.84508104       7.50472176       1.94645183        7       0.00433270       0.00612736      -0.00000000
In       4.51200401       0.18088483       4.20620537        8       0.00433270      -0.00306368      -0.00530645
In      -1.58927127       4.49513795      -0.00000000        9      -0.00000000      -0.00000000       0.00000000
In       4.51200401       6.92359176       0.31330171       10       0.00433270      -0.00306368      -0.00530645
In      -1.33346149      -2.42845380       7.47250561       11      -0.00433270       0.00306368       0.00530645
In       4.51200401       3.00958381       1.94645183       12       0.00433270       0.00612736      -0.00000000
In       1.84508104       5.43803762       2.25975354       13      -0.00433270       0.00306368      -0.00530645
In       4.76781379       0.00000000      -0.00000000       14      -0.00000000       0.00000000       0.00000000
In       1.58927126       2.24756898       3.89290366       15      -0.00000000      -0.00000000       0.00000000
O        1.12895066       4.52072016       4.18561593       16       0.00109343      -0.00285333      -0.00668059
O       -2.04959187       3.61205863       5.67084451       17       0.00109343      -0.00435890       0.00581135
O       -0.43213916       2.46834684      -0.13399589       18      -0.00643528       0.00096470      -0.00340939
O       -1.12895066      -0.85749712       2.07065312       19      -0.00109343      -0.00721223      -0.00086924
O        4.08867882       5.27527252       2.20464901       20      -0.00447408       0.00524381       0.00254015
O        2.26840624       2.97592318       1.77794085       21       0.00447408       0.00042207       0.00581135
O        2.26840624       6.79448729       0.42670816       22       0.00447408       0.00482174      -0.00327120
O       -2.47122611       6.32734935       3.75890777       23      -0.00305462       0.00574567      -0.00340939
O        3.61068168       2.02679111       7.91980321       24       0.00643528      -0.00096470       0.00340939
O        5.64976863      -1.83221140       4.02689955       25       0.00305462      -0.00574567       0.00340939
O        6.78922421       3.36569856       1.68825464       26       0.00643528      -0.00247027      -0.00254015
O        3.88585895       2.33920392       4.31961182       27      -0.00305462      -0.00582545      -0.00327120
O        0.70731642       4.81886059       7.49309505       28      -0.00305462       0.00007978       0.00668059
O        2.47122610      -0.32372263       0.29271227       29       0.00305462      -0.00007978      -0.00668059
O       -3.61068169       1.12943940       6.09755267       30      -0.00643528       0.00247027       0.00254015
O        5.22813440       0.88307933       2.11496280       31      -0.00109343       0.00435890      -0.00581135
O        0.91013629       1.51921478       6.00786646       32      -0.00447408      -0.00042207      -0.00581135
O        3.61068168      -0.89735171       5.96355678       33       0.00643528       0.00343497      -0.00086924
O        2.04959187      -0.02558220       3.60019139       34      -0.00109343       0.00285333       0.00668059
O        0.91013629      -2.29934933       7.35909916       35      -0.00447408      -0.00482174       0.00327120
O       -0.70731643       2.15593403       3.46619550       36       0.00305462       0.00582545       0.00327120
O       -0.91013629      -0.78013456       5.58115830       37       0.00447408      -0.00524381      -0.00254015
O       -0.43213916       5.39248967       1.82225053       38      -0.00643528      -0.00343497       0.00086924
O        4.30749319       5.35263508       5.71515419       39       0.00109343       0.00721223       0.00086924
