40
Lattice="8.985561209530067 7.042588632506014e-10 4.412909341309165e-15 -2.9951870705073413 8.471668351799256 -1.2198211050089276e-09 -2.9951870695113696 -4.235834175195364 7.336680005908016" Properties=species:S:1:pos:R:3:spacegroup_kinds:I:1:forces:R:3 spacegroup="P 1" unit_cell=conventional occupancy="_JSON {\"0\": {\"In\": 1}, \"1\": {\"In\": 1}, \"2\": {\"In\": 1}, \"3\": {\"In\": 1}, \"4\": {\"In\": 1}, \"5\": {\"In\": 1}, \"6\": {\"In\": 1}, \"7\": {\"In\": 1}, \"8\": {\"In\": 1}, \"9\": {\"In\": 1}, \"10\": {\"In\": 1}, \"11\": {\"In\": 1}, \"12\": {\"In\": 1}, \"13\": {\"In\": 1}, \"14\": {\"In\": 1}, \"15\": {\"In\": 1}, \"16\": {\"O\": 1}, \"17\": {\"O\": 1}, \"18\": {\"O\": 1}, \"19\": {\"O\": 1}, \"20\": {\"O\": 1}, \"21\": {\"O\": 1}, \"22\": {\"O\": 1}, \"23\": {\"O\": 1}, \"24\": {\"O\": 1}, \"25\": {\"O\": 1}, \"26\": {\"O\": 1}, \"27\": {\"O\": 1}, \"28\": {\"O\": 1}, \"29\": {\"O\": 1}, \"30\": {\"O\": 1}, \"31\": {\"O\": 1}, \"32\": {\"O\": 1}, \"33\": {\"O\": 1}, \"34\": {\"O\": 1}, \"35\": {\"O\": 1}, \"36\": {\"O\": 1}, \"37\": {\"O\": 1}, \"38\": {\"O\": 1}, \"39\": {\"O\": 1}}" n_minim_iter=7 energy=-45151.758404371634 stress="0.021307980376535075 -2.5113453176636682e-14 5.78645521232979e-15 -2.5113453176636682e-14 0.021307980376668856 -2.3960739294641172e-14 5.78645521232979e-15 -2.3960739294641172e-14 0.02130798037677932" free_energy=-45151.758404371634 pbc="T T T"
In      -4.28803255       3.03209690       5.75327413        0       0.00473047      -0.00334495       0.00579362
In       7.28321962       1.20373728       1.58340587        1      -0.00473047       0.00334495      -0.00579362
In       1.29284548      -0.91417981       5.25174588        2      -0.00473047       0.00334495      -0.00579362
In      -1.49759354      -2.11791709       3.66834000        3       0.00000000      -0.00000000       0.00000000
In      -1.29284548       4.09105544       3.41757587        4       0.00473047      -0.00334495      -0.00579362
In       4.69752866      -2.88731816       5.50251000        5       0.00473047       0.00668990      -0.00000000
In      -1.29284548       1.34851602       5.50251000        6       0.00473047       0.00668990      -0.00000000
In      -1.70234159       7.12315234       1.83417000        7      -0.00473047      -0.00668990      -0.00000000
In       4.28803255       0.14477874       3.91910413        8      -0.00473047       0.00334495       0.00579362
In      -1.49759354       4.23583418      -0.00000000        9       0.00000000      -0.00000000      -0.00000000
In       4.28803255       6.49853000       0.25076412       10      -0.00473047       0.00334495       0.00579362
In      -1.29284548      -2.26269582       7.08591588       11       0.00473047      -0.00334495      -0.00579362
In       4.28803255       2.88731816       1.83417000       12      -0.00473047      -0.00668990      -0.00000000
In       1.70234158       5.15001399       2.08493412       13       0.00473047      -0.00334495       0.00579362
In       4.49278060       0.00000000      -0.00000000       14      -0.00000000      -0.00000000       0.00000000
In       1.49759353       2.11791709       3.66834000       15       0.00000000      -0.00000000       0.00000000
O        0.89400091       4.23807304       3.98698570       16      -0.00069383       0.00482132       0.00367836
O       -2.10118616       3.45171148       5.34124824       17      -0.00069383       0.00077489      -0.00601456
O       -0.43916685       2.27648636       0.04011786       18       0.00504488      -0.00328299       0.00101389
O       -0.89400092      -0.78188384       1.99155394       19       0.00069383       0.00559621      -0.00233620
O        3.95470017       5.04088008       1.95143608       20       0.00096185      -0.00501084      -0.00335010
O        2.03567396       2.94836390       1.67290824       21      -0.00096185       0.00039585      -0.00601456
O        2.03567396       6.32835035       0.27852784       22      -0.00096185      -0.00540669       0.00266447
O       -2.29268087       6.00897296       3.70845786       23       0.00477686      -0.00366203       0.00101389
O        3.43435392       1.95934782       7.29656214       24      -0.00504488       0.00328299      -0.00101389
O        5.28786794      -1.77313878       3.62822214       25      -0.00477686       0.00366203      -0.00101389
O        6.42954099       3.29090335       1.71690391       26      -0.00504488      -0.00076344       0.00335010
O        3.69769327       2.32504933       3.94686784       27       0.00477686       0.00270907       0.00266447
O        0.70250620       4.37348025       7.01803430       28       0.00477686       0.00095296      -0.00367836
O        2.29268087      -0.13764607       0.31864570       29      -0.00477686      -0.00095296       0.00367836
O       -3.43435392       0.94493083       5.61977609       30       0.00504488       0.00076344      -0.00335010
O        5.09637322       0.78412270       1.99543176       31       0.00069383      -0.00077489       0.00601456
O        0.95951310       1.28747028       5.66377176       32       0.00096185      -0.00039585       0.00601456
O        3.43435392      -1.01441699       5.65989395       33      -0.00504488      -0.00251955      -0.00233620
O        2.10118615      -0.00223886       3.34969430       34       0.00069383      -0.00482132      -0.00367836
O        0.95951310      -2.09251617       7.05815216       35       0.00096185       0.00540669      -0.00266447
O       -0.70250620       1.91078485       3.38981216       36      -0.00477686      -0.00270907      -0.00266447
O       -0.95951311      -0.80504590       5.38524392       37      -0.00096185       0.00501084       0.00335010
O       -0.43916685       5.25025117       1.67678605       38       0.00504488       0.00251955       0.00233620
O        3.88918798       5.01771802       5.34512606       39      -0.00069383      -0.00559621       0.00233620
