40
Lattice="8.358375950422298 6.551066780212468e-10 2.5492891572243813e-14 -2.7861253174250757 7.880352418781851 -1.1346938521621375e-09 -2.786125316498634 -3.9401762087358114 6.824585386195675" Properties=species:S:1:pos:R:3:spacegroup_kinds:I:1:forces:R:3 spacegroup="P 1" unit_cell=conventional occupancy="_JSON {\"0\": {\"In\": 1}, \"1\": {\"In\": 1}, \"2\": {\"In\": 1}, \"3\": {\"In\": 1}, \"4\": {\"In\": 1}, \"5\": {\"In\": 1}, \"6\": {\"In\": 1}, \"7\": {\"In\": 1}, \"8\": {\"In\": 1}, \"9\": {\"In\": 1}, \"10\": {\"In\": 1}, \"11\": {\"In\": 1}, \"12\": {\"In\": 1}, \"13\": {\"In\": 1}, \"14\": {\"In\": 1}, \"15\": {\"In\": 1}, \"16\": {\"O\": 1}, \"17\": {\"O\": 1}, \"18\": {\"O\": 1}, \"19\": {\"O\": 1}, \"20\": {\"O\": 1}, \"21\": {\"O\": 1}, \"22\": {\"O\": 1}, \"23\": {\"O\": 1}, \"24\": {\"O\": 1}, \"25\": {\"O\": 1}, \"26\": {\"O\": 1}, \"27\": {\"O\": 1}, \"28\": {\"O\": 1}, \"29\": {\"O\": 1}, \"30\": {\"O\": 1}, \"31\": {\"O\": 1}, \"32\": {\"O\": 1}, \"33\": {\"O\": 1}, \"34\": {\"O\": 1}, \"35\": {\"O\": 1}, \"36\": {\"O\": 1}, \"37\": {\"O\": 1}, \"38\": {\"O\": 1}, \"39\": {\"O\": 1}}" n_minim_iter=5 energy=-45141.08823982932 stress="-0.2716154848930771 -7.553766251005446e-14 3.6730392773642974e-14 -7.553766251005446e-14 -0.2716154848934318 5.833198784055459e-14 3.6730392773642974e-14 5.833198784055459e-14 -0.27161548489332915" free_energy=-45141.08823982932 pbc="T T T"
In      -3.98038421       2.81455667       5.36192293        0      -0.00105589       0.00074663      -0.00129320
In       6.76650952       1.12561955       1.46266245        1       0.00105589      -0.00074663       0.00129320
In       1.19425889      -0.84446856       4.87495514        2       0.00105589      -0.00074663       0.00129320
In      -1.39306266      -1.97008810       3.41229269        3       0.00000000      -0.00000000       0.00000000
In      -1.19425889       3.79960072       3.16880879        4      -0.00105589       0.00074663       0.00129320
In       4.37799174      -2.67398117       5.11843904        5      -0.00105589      -0.00149326       0.00000000
In      -1.19425889       1.26619504       5.11843904        6      -0.00105589      -0.00149326      -0.00000000
In      -1.59186643       6.61415738       1.70614634        7       0.00105589       0.00149326      -0.00000000
In       3.98038420       0.14057550       3.65577659        8       0.00105589      -0.00074663      -0.00129320
In      -1.39306266       3.94017621      -0.00000000        9       0.00000000      -0.00000000       0.00000000
In       3.98038420       6.05083981       0.24348389       10       0.00105589      -0.00074663      -0.00129320
In      -1.19425889      -2.11066360       6.58110149       11      -0.00105589       0.00074663       0.00129320
In       3.98038420       2.67398117       1.70614634       12       0.00105589       0.00149326       0.00000000
In       1.59186643       4.78464477       1.94963024       13      -0.00105589       0.00074663      -0.00129320
In       4.17918797       0.00000000      -0.00000000       14      -0.00000000       0.00000000       0.00000000
In       1.39306266       1.97008811       3.41229269       15      -0.00000000       0.00000000      -0.00000000
O        0.79283650       3.93069092       3.75740197       16       0.00485392      -0.00088542       0.00358950
O       -1.99328881       3.25874820       4.95409890       17       0.00485392       0.00355131      -0.00102795
O       -0.38712047       2.12301568       0.09665996       18       0.00413140       0.00406221      -0.00191286
O       -0.79283651      -0.69091330       1.88691549       19      -0.00485392       0.00266589       0.00256154
O        3.73680687       4.68689616       1.79025553       20       0.00173023      -0.00377028       0.00447441
O        1.83544376       2.76312942       1.54180621       21      -0.00173023      -0.00576009      -0.00102795
O        1.83544376       5.86394295       0.24844932       22      -0.00173023       0.00198981       0.00550236
O       -2.13063853       5.56757310       3.50895265       23      -0.00245275      -0.00524919      -0.00191286
O        3.17324578       1.81716054       6.72792543       24      -0.00413140      -0.00406221       0.00191286
O        4.91676385      -1.62739689       3.31563273       25       0.00245275       0.00524919       0.00191286
O        5.95937110       3.11530592       1.62203716       26      -0.00413140       0.00037452      -0.00447441
O        3.44161210       2.22514369       3.66074201       27      -0.00245275       0.00096801       0.00550236
O        0.65548678       4.02781184       6.47947611       28      -0.00245275       0.00428118      -0.00358950
O        2.13063853      -0.08763563       0.34510927       29       0.00245275      -0.00428118       0.00358950
O       -3.17324579       0.82487029       5.20254822       30       0.00413140      -0.00037452       0.00447441
O        4.77941413       0.68142801       1.87048648       31      -0.00485392      -0.00355131       0.00102795
O        0.95068156       1.17704679       5.28277917       32       0.00173023       0.00576009       0.00102795
O        3.17324578      -0.99229024       5.29920818       33      -0.00413140       0.00368769       0.00256154
O        1.99328881       0.00948529       3.06718341       34      -0.00485392       0.00088542      -0.00358950
O        0.95068156      -1.92376674       6.57613607       35       0.00173023      -0.00198981      -0.00550236
O       -0.65548679       1.71503252       3.16384337       36       0.00245275      -0.00096801      -0.00550236
O       -0.95068156      -0.74671995       5.03432985       37      -0.00173023       0.00377028      -0.00447441
O       -0.38712047       4.93246646       1.52537720       38       0.00413140      -0.00368769      -0.00256154
O        3.57896182       4.63108951       4.93766990       39       0.00485392      -0.00266589      -0.00256154
