40
Lattice="8.523931208977093 6.6808099155494e-10 1.9018746059852066e-14 -2.841310403622238 8.03643941342444 -1.157164509283974e-09 -2.841310402677444 -4.018219706044133 6.959760688771508" Properties=species:S:1:pos:R:3:spacegroup_kinds:I:1:forces:R:3 spacegroup="P 1" unit_cell=conventional occupancy="_JSON {\"0\": {\"In\": 1}, \"1\": {\"In\": 1}, \"2\": {\"In\": 1}, \"3\": {\"In\": 1}, \"4\": {\"In\": 1}, \"5\": {\"In\": 1}, \"6\": {\"In\": 1}, \"7\": {\"In\": 1}, \"8\": {\"In\": 1}, \"9\": {\"In\": 1}, \"10\": {\"In\": 1}, \"11\": {\"In\": 1}, \"12\": {\"In\": 1}, \"13\": {\"In\": 1}, \"14\": {\"In\": 1}, \"15\": {\"In\": 1}, \"16\": {\"O\": 1}, \"17\": {\"O\": 1}, \"18\": {\"O\": 1}, \"19\": {\"O\": 1}, \"20\": {\"O\": 1}, \"21\": {\"O\": 1}, \"22\": {\"O\": 1}, \"23\": {\"O\": 1}, \"24\": {\"O\": 1}, \"25\": {\"O\": 1}, \"26\": {\"O\": 1}, \"27\": {\"O\": 1}, \"28\": {\"O\": 1}, \"29\": {\"O\": 1}, \"30\": {\"O\": 1}, \"31\": {\"O\": 1}, \"32\": {\"O\": 1}, \"33\": {\"O\": 1}, \"34\": {\"O\": 1}, \"35\": {\"O\": 1}, \"36\": {\"O\": 1}, \"37\": {\"O\": 1}, \"38\": {\"O\": 1}, \"39\": {\"O\": 1}}" n_minim_iter=1 energy=-45146.96579206486 stress="-0.16603008795363366 3.376256124475763e-14 5.36798758860248e-15 3.376256124475763e-14 -0.16603008795382834 -9.587411197238586e-14 5.36798758860248e-15 -9.587411197238586e-14 -0.16603008795390028" free_energy=-45146.96579206486 pbc="T T T"
In      -4.06533798       2.87462805       5.46063919        0      -0.01774427       0.01254709      -0.02173220
In       6.90664838       1.14359166       1.49912149        1       0.01774427      -0.01254709       0.02173220
In       1.22402757      -0.86551820       4.97900184        2       0.01774427      -0.01254709       0.02173220
In      -1.42065520      -2.00910985       3.47988034        3      -0.00000000       0.00000000       0.00000000
In      -1.22402758       3.87918298       3.23906167        4      -0.01774427       0.01254709       0.02173220
In       4.45859323      -2.73559132       5.21982051        5      -0.01774427      -0.02509419      -0.00000000
In      -1.22402758       1.28262838       5.21982051        6      -0.01774427      -0.02509419       0.00000000
In      -1.61728283       6.75381103       1.73994017        7       0.01774427       0.02509419      -0.00000000
In       4.06533798       0.13903673       3.72069902        8       0.01774427      -0.01254709      -0.02173220
In      -1.42065520       4.01821971      -0.00000000        9      -0.00000000      -0.00000000      -0.00000000
In       4.06533798       6.16636629       0.24081867       10       0.01774427      -0.01254709      -0.02173220
In      -1.22402758      -2.14814658       6.71894201       11      -0.01774427       0.01254709       0.02173220
In       4.06533798       2.73559133       1.73994017       12       0.01774427       0.02509419      -0.00000000
In       1.61728283       4.88373791       1.98075885       13      -0.01774427       0.01254709      -0.02173220
In       4.26196560       0.00000000      -0.00000000       14       0.00000000      -0.00000000       0.00000000
In       1.42065520       2.00910986       3.47988034       15       0.00000000       0.00000000      -0.00000000
O        0.81794772       4.01273996       3.81243103       16      -0.02110396      -0.00925294       0.07263466
O       -2.02336269       3.30440200       5.05829077       17      -0.02110396       0.06752993      -0.02830405
O       -0.40551091       2.16040804       0.07998575       18       0.04790942       0.01873010       0.05621973
O       -0.81794772      -0.71929745       1.91096111       19       0.02110396       0.05827699       0.04433061
O        3.78987431       4.78369696       1.83097536       20       0.07070248      -0.02581852      -0.01188912
O        1.89274649       2.81528716       1.57841043       21      -0.07070248      -0.00261298      -0.02830405
O        1.89274649       5.98662951       0.25256493       22      -0.07070248      -0.02320554       0.01641493
O       -2.17202253       5.68951290       3.55986610       23      -0.00168910      -0.05141281       0.05621973
O        3.24682131       1.85781168       6.87977493       24      -0.04790942      -0.01873010      -0.05621973
O        5.01333293      -1.67129319       3.39989459       25       0.00168910       0.05141281      -0.05621973
O        6.08813171       3.15858357       1.64890498       26      -0.04790942       0.05805277       0.01188912
O        3.51059827       2.24728788       3.73244528       27      -0.00168910       0.07439412       0.01641493
O        0.66928787       4.11785835       6.62721000       28      -0.00168910      -0.02298131      -0.07263466
O        2.17202253      -0.09963864       0.33255069       29       0.00168910       0.02298131       0.07263466
O       -3.24682131       0.85963614       5.31085570       30       0.04790942      -0.05805277      -0.01188912
O        4.86467309       0.71381771       1.90146991       31       0.02110396      -0.06752993       0.02830405
O        0.94856391       1.20293255       5.38135026       32       0.07070248       0.00261298       0.02830405
O        3.24682131      -0.99817553       5.39084146       33      -0.04790942      -0.03932266       0.04433061
O        2.02336268       0.00547975       3.14732965       34       0.02110396       0.00925294      -0.07263466
O        0.94856391      -1.96840980       6.70719575       35       0.07070248       0.02320554      -0.01641493
O       -0.66928788       1.77093183       3.22731541       36       0.00168910      -0.07439412      -0.01641493
O       -0.94856391      -0.76547725       5.12878532       37      -0.07070248       0.02581852       0.01188912
O       -0.40551091       5.01639524       1.56891922       38       0.04790942       0.03932266      -0.04433061
O        3.65925812       4.73751716       5.04879957       39      -0.02110396      -0.05827699      -0.04433061
40
Lattice="8.52393120897709 6.680809915549396e-10 1.901874605985205e-14 -2.8413104036222365 8.036439413424434 -1.1571645092839736e-09 -2.8413104026774425 -4.01821970604413 6.959760688771508" Properties=species:S:1:pos:R:3:spacegroup_kinds:I:1:forces:R:3 spacegroup="P 1" unit_cell=conventional occupancy="_JSON {\"0\": {\"In\": 1}, \"1\": {\"In\": 1}, \"2\": {\"In\": 1}, \"3\": {\"In\": 1}, \"4\": {\"In\": 1}, \"5\": {\"In\": 1}, \"6\": {\"In\": 1}, \"7\": {\"In\": 1}, \"8\": {\"In\": 1}, \"9\": {\"In\": 1}, \"10\": {\"In\": 1}, \"11\": {\"In\": 1}, \"12\": {\"In\": 1}, \"13\": {\"In\": 1}, \"14\": {\"In\": 1}, \"15\": {\"In\": 1}, \"16\": {\"O\": 1}, \"17\": {\"O\": 1}, \"18\": {\"O\": 1}, \"19\": {\"O\": 1}, \"20\": {\"O\": 1}, \"21\": {\"O\": 1}, \"22\": {\"O\": 1}, \"23\": {\"O\": 1}, \"24\": {\"O\": 1}, \"25\": {\"O\": 1}, \"26\": {\"O\": 1}, \"27\": {\"O\": 1}, \"28\": {\"O\": 1}, \"29\": {\"O\": 1}, \"30\": {\"O\": 1}, \"31\": {\"O\": 1}, \"32\": {\"O\": 1}, \"33\": {\"O\": 1}, \"34\": {\"O\": 1}, \"35\": {\"O\": 1}, \"36\": {\"O\": 1}, \"37\": {\"O\": 1}, \"38\": {\"O\": 1}, \"39\": {\"O\": 1}}" n_minim_iter=2 energy=-45146.96931839182 stress="-0.16549651881123337 -7.01938051247185e-14 3.910737833404058e-14 -7.01938051247185e-14 -0.16549651881131267 5.272679989516735e-14 3.910737833404058e-14 5.272679989516735e-14 -0.1654965188110876" free_energy=-45146.96931839182 pbc="T T T"
In      -4.06616792       2.87521491       5.45962272        0       0.02524589      -0.01785154       0.03091978
In       6.90747832       1.14300480       1.50013796        1      -0.02524589       0.01785154      -0.03091978
In       1.22485752      -0.86610505       4.98001831        2      -0.02524589       0.01785154      -0.03091978
In      -1.42065520      -2.00910985       3.47988034        3       0.00000000       0.00000000      -0.00000000
In      -1.22485752       3.87976984       3.24007813        4       0.02524589      -0.01785154      -0.03091978
In       4.45776329      -2.73676504       5.21982051        5       0.02524589       0.03570308      -0.00000000
In      -1.22485752       1.28145467       5.21982051        6       0.02524589       0.03570308      -0.00000000
In      -1.61645289       6.75498475       1.73994017        7      -0.02524589      -0.03570308       0.00000000
In       4.06616792       0.13844987       3.71968255        8      -0.02524589       0.01785154       0.03091978
In      -1.42065520       4.01821971      -0.00000000        9      -0.00000000       0.00000000       0.00000000
In       4.06616792       6.16577943       0.23980221       10      -0.02524589       0.01785154       0.03091978
In      -1.22485752      -2.14755972       6.71995848       11       0.02524589      -0.01785154      -0.03091978
In       4.06616792       2.73676504       1.73994017       12      -0.02524589      -0.03570308       0.00000000
In       1.61645288       4.88432477       1.97974238       13       0.02524589      -0.01785154       0.03091978
In       4.26196560       0.00000000      -0.00000000       14      -0.00000000      -0.00000000       0.00000000
In       1.42065520       2.00910986       3.47988034       15       0.00000000      -0.00000000      -0.00000000
O        0.81696063       4.01230718       3.81582833       16      -0.03299436      -0.02236567      -0.00306154
O       -2.02434977       3.30756054       5.05696692       17      -0.03299436       0.00853146       0.02090001
O       -0.40327007       2.16128409       0.08261528       18      -0.02404114       0.00220058       0.03186543
O       -0.81696064      -0.71657170       1.91303456       19       0.03299436      -0.01383421       0.01783847
O        3.79318123       4.78248937       1.83041928       20       0.01904166       0.03223172      -0.01402696
O        1.88943957       2.81516494       1.57708658       21      -0.01904166       0.02826356       0.02090001
O        1.88943957       5.98554413       0.25333270       22      -0.01904166       0.00396816      -0.03492697
O       -2.17210153       5.68710820       3.56249563       23      -0.01008844       0.02193268       0.03186543
O        3.24458047       1.85693562       6.87714540       24       0.02404114      -0.00220058      -0.03186543
O        5.01341193      -1.66888849       3.39726506       25       0.01008844      -0.02193268      -0.03186543
O        6.08589087       3.16129883       1.64946106       26       0.02404114       0.02869656       0.01402696
O        3.51051927       2.25076747       3.73321304       27      -0.01008844       0.01662993      -0.03492697
O        0.66920887       4.11678345       6.62381270       28      -0.01008844      -0.03856261       0.00306154
O        2.17210153      -0.09856374       0.33594798       29       0.01008844       0.03856261      -0.00306154
O       -3.24458047       0.85692088       5.31029962       30      -0.02404114      -0.02869656      -0.01402696
O        4.86566017       0.71065917       1.90279376       31       0.03299436      -0.00853146      -0.02090001
O        0.95187083       1.20305477       5.38267411       32       0.01904166      -0.02826356      -0.02090001
O        3.24458047      -1.00001474       5.39291491       33       0.02404114      -0.02649598       0.01783847
O        2.02434977       0.00591253       3.14393235       34       0.03299436       0.02236567       0.00306154
O        0.95187083      -1.96732442       6.70642799       35       0.01904166      -0.00396816       0.03492697
O       -0.66920887       1.76745224       3.22654764       36       0.01008844      -0.01662993       0.03492697
O       -0.95187083      -0.76426966       5.12934141       37      -0.01904166      -0.03223172       0.01402696
O       -0.40327007       5.01823446       1.56684578       38      -0.02404114       0.02649598      -0.01783847
O        3.65827104       4.73479141       5.04672612       39      -0.03299436       0.01383421      -0.01783847
40
Lattice="8.52393120897708 6.680809915549392e-10 1.901874605985201e-14 -2.8413104036222347 8.036439413424425 -1.157164509283973e-09 -2.8413104026774407 -4.018219706044126 6.959760688771503" Properties=species:S:1:pos:R:3:spacegroup_kinds:I:1:forces:R:3 spacegroup="P 1" unit_cell=conventional occupancy="_JSON {\"0\": {\"In\": 1}, \"1\": {\"In\": 1}, \"2\": {\"In\": 1}, \"3\": {\"In\": 1}, \"4\": {\"In\": 1}, \"5\": {\"In\": 1}, \"6\": {\"In\": 1}, \"7\": {\"In\": 1}, \"8\": {\"In\": 1}, \"9\": {\"In\": 1}, \"10\": {\"In\": 1}, \"11\": {\"In\": 1}, \"12\": {\"In\": 1}, \"13\": {\"In\": 1}, \"14\": {\"In\": 1}, \"15\": {\"In\": 1}, \"16\": {\"O\": 1}, \"17\": {\"O\": 1}, \"18\": {\"O\": 1}, \"19\": {\"O\": 1}, \"20\": {\"O\": 1}, \"21\": {\"O\": 1}, \"22\": {\"O\": 1}, \"23\": {\"O\": 1}, \"24\": {\"O\": 1}, \"25\": {\"O\": 1}, \"26\": {\"O\": 1}, \"27\": {\"O\": 1}, \"28\": {\"O\": 1}, \"29\": {\"O\": 1}, \"30\": {\"O\": 1}, \"31\": {\"O\": 1}, \"32\": {\"O\": 1}, \"33\": {\"O\": 1}, \"34\": {\"O\": 1}, \"35\": {\"O\": 1}, \"36\": {\"O\": 1}, \"37\": {\"O\": 1}, \"38\": {\"O\": 1}, \"39\": {\"O\": 1}}" n_minim_iter=3 energy=-45146.97115432796 stress="-0.16518243667597027 8.134335624957828e-14 -7.926773360575418e-14 8.134335624957828e-14 -0.1651824366762317 5.618362881124718e-14 -7.926773360575418e-14 5.618362881124718e-14 -0.16518243667606175" free_energy=-45146.97115432796 pbc="T T T"
In      -4.06509741       2.87445795       5.46093383        0      -0.00002384       0.00001685      -0.00002919
In       6.90640781       1.14376177       1.49882686        1       0.00002384      -0.00001685       0.00002919
In       1.22378700      -0.86534809       4.97870720        2       0.00002384      -0.00001685       0.00002919
In      -1.42065520      -2.00910985       3.47988034        3      -0.00000000      -0.00000000       0.00000000
In      -1.22378701       3.87901287       3.23876703        4      -0.00002384       0.00001685       0.00002919
In       4.45883380      -2.73525110       5.21982051        5      -0.00002384      -0.00003371       0.00000000
In      -1.22378701       1.28296860       5.21982051        6      -0.00002384      -0.00003371      -0.00000000
In      -1.61752340       6.75347082       1.73994017        7       0.00002384       0.00003371       0.00000000
In       4.06509741       0.13920684       3.72099366        8       0.00002384      -0.00001685      -0.00002919
In      -1.42065520       4.01821971      -0.00000000        9       0.00000000       0.00000000       0.00000000
In       4.06509741       6.16653640       0.24111331       10       0.00002384      -0.00001685      -0.00002919
In      -1.22378701      -2.14831669       6.71864737       11      -0.00002384       0.00001685       0.00002919
In       4.06509741       2.73525111       1.73994017       12       0.00002384       0.00003371      -0.00000000
In       1.61752340       4.88356780       1.98105348       13      -0.00002384       0.00001685      -0.00002919
In       4.26196560       0.00000000      -0.00000000       14       0.00000000      -0.00000000      -0.00000000
In       1.42065520       2.00910986       3.47988034       15      -0.00000000      -0.00000000      -0.00000000
O        0.81447750       4.01074762       3.81742350       16      -0.00921425       0.01279107      -0.00112243
O       -2.02683290       3.30972178       5.05751996       17      -0.00921425      -0.00736759      -0.01051618
O       -0.40353051       2.16187365       0.08589054       18       0.00204189      -0.01532688       0.00326972
O       -0.81447751      -0.71597002       1.91518277       19       0.00921425       0.00542348      -0.01163861
O        3.79604658       4.78377866       1.82929223       20      -0.00387481      -0.00353571      -0.01490833
O        1.88657422       2.81678564       1.57763961       21       0.00387481       0.01114314      -0.01051618
O        1.88657422       5.98521273       0.25165261       22       0.00387481      -0.01467885      -0.00439215
O       -2.17274420       5.68715723       3.56577088       23       0.01513095       0.00318385       0.00326972
O        3.24484091       1.85634606       6.87387014       24      -0.00204189       0.01532688      -0.00326972
O        5.01405460      -1.66893752       3.39398980       25      -0.01513095      -0.00318385      -0.00326972
O        6.08615132       3.16443007       1.65058811       26      -0.00204189      -0.00483178       0.01490833
O        3.50987661       2.25357942       3.73153295       27       0.01513095       0.00123974      -0.00439215
O        0.66856621       4.11392248       6.62221753       28       0.01513095      -0.00442359       0.00112243
O        2.17274419      -0.09570277       0.33754315       29      -0.01513095       0.00442359      -0.00112243
O       -3.24484092       0.85378964       5.30917257       30       0.00204189       0.00483178      -0.01490833
O        4.86814330       0.70849793       1.90224073       31       0.00921425       0.00736759       0.01051618
O        0.95473617       1.20143407       5.38212107       32      -0.00387481      -0.01114314       0.01051618
O        3.24484091      -1.00255642       5.39506311       33      -0.00204189      -0.01049510      -0.01163861
O        2.02683290       0.00747209       3.14233719       34       0.00921425      -0.01279107       0.00112243
O        0.95473618      -1.96699302       6.70810807       35      -0.00387481       0.01467885       0.00439215
O       -0.66856621       1.76464029       3.22822773       36      -0.01513095      -0.00123974       0.00439215
O       -0.95473618      -0.76555895       5.13046846       37       0.00387481       0.00353571       0.01490833
O       -0.40353051       5.02077613       1.56469757       38       0.00204189       0.01049510       0.01163861
O        3.65578791       4.73418973       5.04457791       39      -0.00921425      -0.00542348       0.01163861
40
Lattice="8.523931208977078 6.680809915549394e-10 1.9018746059852037e-14 -2.8413104036222356 8.036439413424423 -1.1571645092839728e-09 -2.8413104026774416 -4.018219706044125 6.959760688771503" Properties=species:S:1:pos:R:3:spacegroup_kinds:I:1:forces:R:3 spacegroup="P 1" unit_cell=conventional occupancy="_JSON {\"0\": {\"In\": 1}, \"1\": {\"In\": 1}, \"2\": {\"In\": 1}, \"3\": {\"In\": 1}, \"4\": {\"In\": 1}, \"5\": {\"In\": 1}, \"6\": {\"In\": 1}, \"7\": {\"In\": 1}, \"8\": {\"In\": 1}, \"9\": {\"In\": 1}, \"10\": {\"In\": 1}, \"11\": {\"In\": 1}, \"12\": {\"In\": 1}, \"13\": {\"In\": 1}, \"14\": {\"In\": 1}, \"15\": {\"In\": 1}, \"16\": {\"O\": 1}, \"17\": {\"O\": 1}, \"18\": {\"O\": 1}, \"19\": {\"O\": 1}, \"20\": {\"O\": 1}, \"21\": {\"O\": 1}, \"22\": {\"O\": 1}, \"23\": {\"O\": 1}, \"24\": {\"O\": 1}, \"25\": {\"O\": 1}, \"26\": {\"O\": 1}, \"27\": {\"O\": 1}, \"28\": {\"O\": 1}, \"29\": {\"O\": 1}, \"30\": {\"O\": 1}, \"31\": {\"O\": 1}, \"32\": {\"O\": 1}, \"33\": {\"O\": 1}, \"34\": {\"O\": 1}, \"35\": {\"O\": 1}, \"36\": {\"O\": 1}, \"37\": {\"O\": 1}, \"38\": {\"O\": 1}, \"39\": {\"O\": 1}}" n_minim_iter=4 energy=-45146.97134008275 stress="-0.16512435675916848 -3.0864036571077746e-14 4.7747820538860515e-14 -3.0864036571077746e-14 -0.1651243567586149 -2.6009234790270082e-14 4.7747820538860515e-14 -2.6009234790270082e-14 -0.16512435675871173" free_energy=-45146.97134008275 pbc="T T T"
In      -4.06496725       2.87436591       5.46109323        0      -0.00298461       0.00211044      -0.00365539
In       6.90627765       1.14385380       1.49866745        1       0.00298461      -0.00211044       0.00365539
In       1.22365685      -0.86525605       4.97854779        2       0.00298461      -0.00211044       0.00365539
In      -1.42065520      -2.00910985       3.47988034        3       0.00000000       0.00000000       0.00000000
In      -1.22365685       3.87892084       3.23860762        4      -0.00298461       0.00211044       0.00365539
In       4.45896396      -2.73506704       5.21982051        5      -0.00298461      -0.00422088      -0.00000000
In      -1.22365685       1.28315267       5.21982051        6      -0.00298461      -0.00422088       0.00000000
In      -1.61765356       6.75328675       1.73994017        7       0.00298461       0.00422088       0.00000000
In       4.06496725       0.13929887       3.72115306        8       0.00298461      -0.00211044      -0.00365539
In      -1.42065520       4.01821971      -0.00000000        9      -0.00000000       0.00000000      -0.00000000
In       4.06496725       6.16662843       0.24127272       10       0.00298461      -0.00211044      -0.00365539
In      -1.22365685      -2.14840872       6.71848797       11      -0.00298461       0.00211044       0.00365539
In       4.06496725       2.73506704       1.73994017       12       0.00298461       0.00422088       0.00000000
In       1.61765355       4.88347576       1.98121289       13      -0.00298461       0.00211044      -0.00365539
In       4.26196560       0.00000000      -0.00000000       14      -0.00000000      -0.00000000      -0.00000000
In       1.42065520       2.00910986       3.47988034       15      -0.00000000      -0.00000000      -0.00000000
O        0.81359866       4.01134056       3.81755982       16      -0.00116260      -0.00047665      -0.00146961
O       -2.02771174       3.30954336       5.05693829       17      -0.00116260      -0.00103439       0.00114759
O       -0.40343263       2.16100459       0.08650511       18      -0.00181216      -0.00057509       0.00035206
O       -0.81359867      -0.71555549       1.91473742       19       0.00116260      -0.00151104      -0.00032201
O        3.79617132       4.78371894       1.82823232       20      -0.00058770       0.00171430      -0.00067407
O        1.88644949       2.81767369       1.57705794       21       0.00058770       0.00144091       0.00114759
O        1.88644949       5.98426496       0.25117437       22       0.00058770       0.00027339      -0.00182166
O       -2.17189221       5.68735463       3.56638545       23      -0.00006185       0.00190022       0.00035206
O        3.24474303       1.85721512       6.87325558       24       0.00181216       0.00057509      -0.00035206
O        5.01320261      -1.66913492       3.39337523       25       0.00006185      -0.00190022      -0.00035206
O        6.08605343       3.16452777       1.65164802       26       0.00181216       0.00001735       0.00067407
O        3.51072859       2.25401294       3.73105472       27      -0.00006185      -0.00064522      -0.00182166
O        0.66941819       4.11329155       6.62208120       28      -0.00006185      -0.00125500       0.00146961
O        2.17189221      -0.09507184       0.33767948       29       0.00006185       0.00125500      -0.00146961
O       -3.24474303       0.85369194       5.30811266       30      -0.00181216      -0.00001735      -0.00067407
O        4.86902214       0.70867635       1.90282240       31       0.00116260       0.00103439      -0.00114759
O        0.95486091       1.20054602       5.38270274       32      -0.00058770      -0.00144091      -0.00114759
O        3.24474303      -1.00352318       5.39461777       33       0.00181216      -0.00059243      -0.00032201
O        2.02771174       0.00687915       3.14220086       34       0.00116260       0.00047665       0.00146961
O        0.95486091      -1.96604525       6.70858631       35      -0.00058770      -0.00027339       0.00182166
O       -0.66941820       1.76420677       3.22870597       36       0.00006185       0.00064522       0.00182166
O       -0.95486092      -0.76549923       5.13152837       37       0.00058770      -0.00171430       0.00067407
O       -0.40343263       5.02174289       1.56514291       38      -0.00181216       0.00059243       0.00032201
O        3.65490907       4.73377520       5.04502326       39      -0.00116260       0.00151104       0.00032201
