40
Lattice="9.19958310240162 7.210351096555527e-10 4.839671962427198e-15 -3.0665277014803385 8.673450127489472 -1.2488818414857153e-09 -3.0665277004606453 -4.336725063023691 7.511428149695844" Properties=species:S:1:pos:R:3:spacegroup_kinds:I:1:forces:R:3 spacegroup="P 1" unit_cell=conventional occupancy="_JSON {\"0\": {\"In\": 1}, \"1\": {\"In\": 1}, \"2\": {\"In\": 1}, \"3\": {\"In\": 1}, \"4\": {\"In\": 1}, \"5\": {\"In\": 1}, \"6\": {\"In\": 1}, \"7\": {\"In\": 1}, \"8\": {\"In\": 1}, \"9\": {\"In\": 1}, \"10\": {\"In\": 1}, \"11\": {\"In\": 1}, \"12\": {\"In\": 1}, \"13\": {\"In\": 1}, \"14\": {\"In\": 1}, \"15\": {\"In\": 1}, \"16\": {\"O\": 1}, \"17\": {\"O\": 1}, \"18\": {\"O\": 1}, \"19\": {\"O\": 1}, \"20\": {\"O\": 1}, \"21\": {\"O\": 1}, \"22\": {\"O\": 1}, \"23\": {\"O\": 1}, \"24\": {\"O\": 1}, \"25\": {\"O\": 1}, \"26\": {\"O\": 1}, \"27\": {\"O\": 1}, \"28\": {\"O\": 1}, \"29\": {\"O\": 1}, \"30\": {\"O\": 1}, \"31\": {\"O\": 1}, \"32\": {\"O\": 1}, \"33\": {\"O\": 1}, \"34\": {\"O\": 1}, \"35\": {\"O\": 1}, \"36\": {\"O\": 1}, \"37\": {\"O\": 1}, \"38\": {\"O\": 1}, \"39\": {\"O\": 1}}" n_minim_iter=1 energy=-45149.86055140094 stress="0.06868913955331415 -1.710265666954142e-13 -3.768229471491218e-14 -1.710265666954142e-13 0.068689139553179 3.640904521319885e-14 -3.768229471491218e-14 3.640904521319885e-14 0.06868913955334682" free_energy=-45149.86055140094 pbc="T T T"
In      -4.37788856       3.09563469       5.90534566        0       0.03385147      -0.02393660       0.04145942
In       7.44441626       1.24109038       1.60608248        1      -0.03385147       0.02393660      -0.04145942
In       1.31136085      -0.92727215       5.36179655        2      -0.03385147       0.02393660      -0.04145942
In      -1.53326385      -2.16836253       3.75571407        3       0.00000000      -0.00000000      -0.00000000
In      -1.31136086       4.17981595       3.48393952        4       0.03385147      -0.02393661      -0.04145942
In       4.82169454      -2.93872557       5.63357111        5       0.03385147       0.04787321      -0.00000000
In      -1.31136086       1.39799949       5.63357111        6       0.03385147       0.04787321      -0.00000000
In      -1.75516685       7.27545064       1.87785703        7      -0.03385147      -0.04787321       0.00000000
In       4.37788856       0.15690911       4.02748863        8      -0.03385147       0.02393661       0.04145942
In      -1.53326385       4.33672507      -0.00000000        9       0.00000000      -0.00000000      -0.00000000
In       4.37788855       6.66199671       0.27177455       10      -0.03385147       0.02393661       0.04145942
In      -1.31136086      -2.32527164       7.23965359       11       0.03385147      -0.02393660      -0.04145942
In       4.37788855       2.93872558       1.87785703       12      -0.03385147      -0.04787321       0.00000000
In       1.75516684       5.26399722       2.14963159       13       0.03385147      -0.02393660       0.04145942
In       4.59979155       0.00000000      -0.00000000       14       0.00000000      -0.00000000       0.00000000
In       1.53326385       2.16836253       3.75571407       15       0.00000000       0.00000000      -0.00000000
O        0.94896942       4.34473670       4.07488233       16       0.02506382       0.01624030      -0.04960010
O       -2.11755828       3.52494581       5.46704870       17       0.02506382      -0.05107510       0.01073554
O       -0.44147625       2.33977683       0.00839343       18      -0.02448795      -0.01603670      -0.04995275
O       -0.94896942      -0.80376762       2.03050289       19      -0.02506382      -0.03483480      -0.03886457
O        4.02920354       5.14533864       2.02210946       20      -0.05650867       0.00599457       0.01108818
O        2.10385186       2.98983369       1.71133463       21       0.05650867      -0.00660537       0.01073554
O        2.10385186       6.49223001       0.31077483       22       0.05650867       0.01259993       0.00035265
O       -2.35312150       6.14138978       3.76410750       23       0.00695690       0.02843303      -0.04995275
O        3.50800394       1.99694824       7.50303471       24       0.02448795       0.01603670       0.04995275
O        5.41964920      -1.80466471       3.74732064       25      -0.00695690      -0.02843303       0.04995275
O        6.57453164       3.34551988       1.73360461       26       0.02448795      -0.05127870      -0.01108818
O        3.77993390       2.35748037       4.06648890       27       0.00695690      -0.05747687       0.00035265
O        0.71340620       4.51130505       7.19225988       28       0.00695690       0.02904383       0.04960010
O        2.35312150      -0.17457998       0.31916826       29      -0.00695690      -0.02904383      -0.04960010
O       -3.50800395       0.99120519       5.77782353       30      -0.02448795       0.05127870       0.01108818
O        5.18408598       0.81177926       2.04437944       31      -0.02506382       0.05107510      -0.01073554
O        0.96267583       1.34689138       5.80009352       32      -0.05650867       0.00660537      -0.01073554
O        3.50800394      -1.00574304       5.78621696       33       0.02448795       0.03524200      -0.03886457
O        2.11755828      -0.00801163       3.43654581       34      -0.02506382      -0.01624030       0.04960010
O        0.96267584      -2.15550495       7.20065332       35      -0.05650867      -0.01259993      -0.00035265
O       -0.71340620       1.97924470       3.44493924       36      -0.00695690       0.05747687      -0.00035265
O       -0.96267584      -0.80861357       5.48931869       37       0.05650867      -0.00599457      -0.01108818
O       -0.44147625       5.34246811       1.72521118       38      -0.02448795      -0.03524200       0.03886457
O        4.01549712       5.14049269       5.48092525       39       0.02506382       0.03483480       0.03886457
40
Lattice="9.199583102401624 7.210351096555532e-10 4.8396719624272e-15 -3.0665277014803403 8.673450127489476 -1.2488818414857157e-09 -3.066527700460647 -4.336725063023692 7.511428149695847" Properties=species:S:1:pos:R:3:spacegroup_kinds:I:1:forces:R:3 spacegroup="P 1" unit_cell=conventional occupancy="_JSON {\"0\": {\"In\": 1}, \"1\": {\"In\": 1}, \"2\": {\"In\": 1}, \"3\": {\"In\": 1}, \"4\": {\"In\": 1}, \"5\": {\"In\": 1}, \"6\": {\"In\": 1}, \"7\": {\"In\": 1}, \"8\": {\"In\": 1}, \"9\": {\"In\": 1}, \"10\": {\"In\": 1}, \"11\": {\"In\": 1}, \"12\": {\"In\": 1}, \"13\": {\"In\": 1}, \"14\": {\"In\": 1}, \"15\": {\"In\": 1}, \"16\": {\"O\": 1}, \"17\": {\"O\": 1}, \"18\": {\"O\": 1}, \"19\": {\"O\": 1}, \"20\": {\"O\": 1}, \"21\": {\"O\": 1}, \"22\": {\"O\": 1}, \"23\": {\"O\": 1}, \"24\": {\"O\": 1}, \"25\": {\"O\": 1}, \"26\": {\"O\": 1}, \"27\": {\"O\": 1}, \"28\": {\"O\": 1}, \"29\": {\"O\": 1}, \"30\": {\"O\": 1}, \"31\": {\"O\": 1}, \"32\": {\"O\": 1}, \"33\": {\"O\": 1}, \"34\": {\"O\": 1}, \"35\": {\"O\": 1}, \"36\": {\"O\": 1}, \"37\": {\"O\": 1}, \"38\": {\"O\": 1}, \"39\": {\"O\": 1}}" n_minim_iter=2 energy=-45149.86667645549 stress="0.0680552637091886 3.538842421333928e-14 -2.2665503632347053e-14 3.538842421333928e-14 0.06805526370911796 -2.950392018997691e-14 -2.2665503632347053e-14 -2.950392018997691e-14 0.06805526370903943" free_energy=-45149.86667645549 pbc="T T T"
In      -4.37547060       3.09392493       5.90830705        0       0.01179045      -0.00833711       0.01444029
In       7.44199829       1.24280014       1.60312109        1      -0.01179045       0.00833711      -0.01444029
In       1.30894289      -0.92556239       5.35883517        2      -0.01179045       0.00833711      -0.01444029
In      -1.53326385      -2.16836253       3.75571407        3       0.00000000      -0.00000000       0.00000000
In      -1.30894290       4.17810620       3.48097813        4       0.01179045      -0.00833711      -0.01444029
In       4.82411251      -2.93530606       5.63357111        5       0.01179045       0.01667421      -0.00000000
In      -1.30894290       1.40141901       5.63357111        6       0.01179045       0.01667421      -0.00000000
In      -1.75758481       7.27203112       1.87785703        7      -0.01179045      -0.01667421      -0.00000000
In       4.37547059       0.15861887       4.03045001        8      -0.01179045       0.00833711       0.01444029
In      -1.53326385       4.33672507      -0.00000000        9       0.00000000       0.00000000       0.00000000
In       4.37547059       6.66370647       0.27473594       10      -0.01179045       0.00833711       0.01444029
In      -1.30894289      -2.32698140       7.23669221       11       0.01179045      -0.00833711      -0.01444029
In       4.37547059       2.93530606       1.87785703       12      -0.01179045      -0.01667421      -0.00000000
In       1.75758481       5.26228746       2.15259298       13       0.01179045      -0.00833711       0.01444029
In       4.59979155       0.00000000      -0.00000000       14      -0.00000000      -0.00000000      -0.00000000
In       1.53326385       2.16836253       3.75571407       15      -0.00000000       0.00000000      -0.00000000
O        0.95075969       4.34589672       4.07133947       16       0.02658649       0.00968696      -0.01293492
O       -2.11576801       3.52129759       5.46781552       17       0.02658649      -0.01604545      -0.00192169
O       -0.44322539       2.33863135       0.00482538       18       0.00286732       0.00072653      -0.03097163
O       -0.95075969      -0.80625582       2.02772685       19      -0.02658649      -0.00635849      -0.01485662
O        4.02516720       5.14576683       2.02290147       20      -0.02398996      -0.01152299       0.01611501
O        2.10788820       2.98936188       1.71210145       21       0.02398996      -0.01971750      -0.00192169
O        2.10788820       6.49313001       0.31080002       22       0.02398996       0.00819452       0.01803671
O       -2.35262458       6.14342071       3.76053945       23       0.00027079      -0.00294552      -0.03097163
O        3.50975308       1.99809371       7.50660277       24      -0.00286732      -0.00072653       0.03097163
O        5.41915228      -1.80669565       3.75088869       25      -0.00027079       0.00294552       0.03097163
O        6.57628078       3.34185711       1.73281260       26      -0.00286732      -0.02645895      -0.01611501
O        3.78043082       2.35337488       4.06651409       27       0.00027079      -0.02534946       0.01803671
O        0.71390312       4.51337961       7.19580275       28       0.00027079       0.02829497       0.01293492
O        2.35262458      -0.17665454       0.31562540       29      -0.00027079      -0.02829497      -0.01293492
O       -3.50975309       0.99486796       5.77861554       30       0.00286732       0.02645895       0.01611501
O        5.18229571       0.81542748       2.04361262       31      -0.02658649       0.01604545       0.00192169
O        0.95863950       1.34736319       5.79932669       32      -0.02398996       0.01971750       0.00192169
O        3.50975308      -1.00322575       5.78344092       33      -0.00286732       0.02718548      -0.01485662
O        2.11576801      -0.00917165       3.44008867       34      -0.02658649      -0.00968696       0.01293492
O        0.95863950      -2.15640494       7.20062813       35      -0.02398996      -0.00819452      -0.01803671
O       -0.71390312       1.98335019       3.44491405       36      -0.00027079       0.02534946      -0.01803671
O       -0.95863950      -0.80904176       5.48852667       37       0.02398996       0.01152299      -0.01611501
O       -0.44322539       5.33995082       1.72798722       38       0.00286732      -0.02718548       0.01485662
O        4.01728739       5.14298089       5.48370129       39       0.02658649       0.00635849       0.01485662
40
Lattice="9.199583102401625 7.210351096555535e-10 4.839671962427204e-15 -3.0665277014803416 8.673450127489478 -1.2488818414857161e-09 -3.0665277004606484 -4.336725063023693 7.51142814969585" Properties=species:S:1:pos:R:3:spacegroup_kinds:I:1:forces:R:3 spacegroup="P 1" unit_cell=conventional occupancy="_JSON {\"0\": {\"In\": 1}, \"1\": {\"In\": 1}, \"2\": {\"In\": 1}, \"3\": {\"In\": 1}, \"4\": {\"In\": 1}, \"5\": {\"In\": 1}, \"6\": {\"In\": 1}, \"7\": {\"In\": 1}, \"8\": {\"In\": 1}, \"9\": {\"In\": 1}, \"10\": {\"In\": 1}, \"11\": {\"In\": 1}, \"12\": {\"In\": 1}, \"13\": {\"In\": 1}, \"14\": {\"In\": 1}, \"15\": {\"In\": 1}, \"16\": {\"O\": 1}, \"17\": {\"O\": 1}, \"18\": {\"O\": 1}, \"19\": {\"O\": 1}, \"20\": {\"O\": 1}, \"21\": {\"O\": 1}, \"22\": {\"O\": 1}, \"23\": {\"O\": 1}, \"24\": {\"O\": 1}, \"25\": {\"O\": 1}, \"26\": {\"O\": 1}, \"27\": {\"O\": 1}, \"28\": {\"O\": 1}, \"29\": {\"O\": 1}, \"30\": {\"O\": 1}, \"31\": {\"O\": 1}, \"32\": {\"O\": 1}, \"33\": {\"O\": 1}, \"34\": {\"O\": 1}, \"35\": {\"O\": 1}, \"36\": {\"O\": 1}, \"37\": {\"O\": 1}, \"38\": {\"O\": 1}, \"39\": {\"O\": 1}}" n_minim_iter=3 energy=-45149.868186669 stress="0.0675822150087898 2.4942042899454156e-14 -4.433758136821466e-14 2.4942042899454156e-14 0.06758221500864985 -8.283343687696182e-14 -4.433758136821466e-14 -8.283343687696182e-14 0.06758221500863268" free_energy=-45149.868186669 pbc="T T T"
In      -4.37376762       3.09272074       5.91039276        0      -0.00358116       0.00253226      -0.00438601
In       7.44029532       1.24400432       1.60103538        1       0.00358116      -0.00253226       0.00438601
In       1.30723992      -0.92435821       5.35674946        2       0.00358116      -0.00253226       0.00438601
In      -1.53326385      -2.16836253       3.75571407        3      -0.00000000       0.00000000      -0.00000000
In      -1.30723992       4.17690201       3.47889242        4      -0.00358116       0.00253226       0.00438601
In       4.82581548      -2.93289768       5.63357111        5      -0.00358116      -0.00506453       0.00000000
In      -1.30723992       1.40382738       5.63357111        6      -0.00358116      -0.00506453      -0.00000000
In      -1.75928779       7.26962275       1.87785703        7       0.00358116       0.00506453       0.00000000
In       4.37376762       0.15982306       4.03253573        8       0.00358116      -0.00253226      -0.00438601
In      -1.53326385       4.33672507      -0.00000000        9      -0.00000000      -0.00000000       0.00000000
In       4.37376762       6.66491065       0.27682165       10       0.00358116      -0.00253226      -0.00438601
In      -1.30723992      -2.32818559       7.23460649       11      -0.00358116       0.00253226       0.00438601
In       4.37376762       2.93289769       1.87785703       12       0.00358116       0.00506453      -0.00000000
In       1.75928778       5.26108328       2.15467869       13      -0.00358116       0.00253226      -0.00438601
In       4.59979155       0.00000000      -0.00000000       14       0.00000000      -0.00000000      -0.00000000
In       1.53326385       2.16836253       3.75571407       15      -0.00000000      -0.00000000      -0.00000000
O        0.95245077       4.34681082       4.06894879       16       0.02649316       0.00351683       0.01183116
O       -2.11407693       3.51877015       5.46821922       17       0.02649316       0.00848766      -0.00896125
O       -0.44418276       2.33797666       0.00198540       18       0.02014900       0.01297366      -0.01673122
O       -0.95245077      -0.80786916       2.02573987       19      -0.02649316       0.01200450       0.00286991
O        4.02222062       5.14574050       2.02375447       20      -0.00082881      -0.02166427       0.01960113
O        2.11083478       2.98860999       1.71250515       21       0.00082881      -0.02780722      -0.00896125
O        2.11083478       6.49385557       0.31124932       22       0.00082881       0.00614294       0.02856238
O       -2.35232645       6.14454157       3.75769947       23      -0.00551535      -0.02332122      -0.01673122
O        3.51071046       1.99874841       7.50944275       24      -0.02014900      -0.01297366       0.01673122
O        5.41885415      -1.80781650       3.75372867       25       0.00551535       0.02332122       0.01673122
O        6.57723816       3.33907027       1.73195960       26      -0.02014900      -0.00800283      -0.01960113
O        3.78072895       2.35035496       4.06696339       27      -0.00551535      -0.00282906       0.02856238
O        0.71420125       4.51527867       7.19819342       28      -0.00551535       0.02615027      -0.01183116
O        2.35232645      -0.17855361       0.31323472       29       0.00551535      -0.02615027       0.01183116
O       -3.51071046       0.99765480       5.77946855       30       0.02014900       0.00800283       0.01960113
O        5.18060463       0.81795492       2.04320892       31      -0.02649316      -0.00848766       0.00896125
O        0.95569292       1.34811507       5.79892299       32      -0.00082881       0.02780722       0.00896125
O        3.51071046      -1.00109361       5.78145395       33      -0.02014900       0.02097650       0.00286991
O        2.11407693      -0.01008576       3.44247935       34      -0.02649316      -0.00351683      -0.01183116
O        0.95569292      -2.15713050       7.20017882       35      -0.00082881      -0.00614294      -0.02856238
O       -0.71420126       1.98637011       3.44446475       36       0.00551535       0.00282906      -0.02856238
O       -0.95569292      -0.80901543       5.48767367       37       0.00082881       0.02166427      -0.01960113
O       -0.44418276       5.33781868       1.72997420       38       0.02014900      -0.02097650      -0.00286991
O        4.01897847       5.14459423       5.48568827       39       0.02649316      -0.01200450      -0.00286991
40
Lattice="9.199583102401627 7.210351096555536e-10 4.839671962427204e-15 -3.0665277014803425 8.673450127489478 -1.2488818414857161e-09 -3.0665277004606493 -4.336725063023693 7.511428149695852" Properties=species:S:1:pos:R:3:spacegroup_kinds:I:1:forces:R:3 spacegroup="P 1" unit_cell=conventional occupancy="_JSON {\"0\": {\"In\": 1}, \"1\": {\"In\": 1}, \"2\": {\"In\": 1}, \"3\": {\"In\": 1}, \"4\": {\"In\": 1}, \"5\": {\"In\": 1}, \"6\": {\"In\": 1}, \"7\": {\"In\": 1}, \"8\": {\"In\": 1}, \"9\": {\"In\": 1}, \"10\": {\"In\": 1}, \"11\": {\"In\": 1}, \"12\": {\"In\": 1}, \"13\": {\"In\": 1}, \"14\": {\"In\": 1}, \"15\": {\"In\": 1}, \"16\": {\"O\": 1}, \"17\": {\"O\": 1}, \"18\": {\"O\": 1}, \"19\": {\"O\": 1}, \"20\": {\"O\": 1}, \"21\": {\"O\": 1}, \"22\": {\"O\": 1}, \"23\": {\"O\": 1}, \"24\": {\"O\": 1}, \"25\": {\"O\": 1}, \"26\": {\"O\": 1}, \"27\": {\"O\": 1}, \"28\": {\"O\": 1}, \"29\": {\"O\": 1}, \"30\": {\"O\": 1}, \"31\": {\"O\": 1}, \"32\": {\"O\": 1}, \"33\": {\"O\": 1}, \"34\": {\"O\": 1}, \"35\": {\"O\": 1}, \"36\": {\"O\": 1}, \"37\": {\"O\": 1}, \"38\": {\"O\": 1}, \"39\": {\"O\": 1}}" n_minim_iter=4 energy=-45149.86945962973 stress="0.06723853675571599 -6.681207673614504e-14 4.546724905974551e-14 -6.681207673614504e-14 0.06723853675568614 -3.737966380714153e-15 4.546724905974551e-14 -3.737966380714153e-15 0.06723853675557709" free_energy=-45149.86945962973 pbc="T T T"
In      -4.37274059       3.09199453       5.91165061        0      -0.01021249       0.00722132      -0.01250770
In       7.43926829       1.24473054       1.59977754        1       0.01021249      -0.00722132       0.01250770
In       1.30621289      -0.92363199       5.35549161        2       0.01021249      -0.00722132       0.01250770
In      -1.53326385      -2.16836253       3.75571407        3       0.00000000       0.00000000      -0.00000000
In      -1.30621289       4.17617579       3.47763457        4      -0.01021249       0.00722132       0.01250770
In       4.82684251      -2.93144525       5.63357111        5      -0.01021249      -0.01444265       0.00000000
In      -1.30621289       1.40527981       5.63357111        6      -0.01021249      -0.01444265       0.00000000
In      -1.76031481       7.26817032       1.87785703        7       0.01021249       0.01444265      -0.00000000
In       4.37274059       0.16054927       4.03379357        8       0.01021249      -0.00722132      -0.01250770
In      -1.53326385       4.33672507      -0.00000000        9       0.00000000      -0.00000000      -0.00000000
In       4.37274059       6.66563687       0.27807949       10       0.01021249      -0.00722132      -0.01250770
In      -1.30621289      -2.32891180       7.23334865       11      -0.01021249       0.00722132       0.01250770
In       4.37274059       2.93144526       1.87785703       12       0.01021249       0.01444265      -0.00000000
In       1.76031481       5.26035706       2.15593653       13      -0.01021249       0.00722132      -0.01250770
In       4.59979155       0.00000000      -0.00000000       14       0.00000000       0.00000000       0.00000000
In       1.53326385       2.16836253       3.75571407       15      -0.00000000      -0.00000000      -0.00000000
O        0.95573897       4.34776839       4.06801904       16       0.02176804      -0.00423593       0.02132663
O       -2.11078873       3.51748617       5.46785482       17       0.02176804       0.02058737      -0.00699490
O       -0.44339443       2.33846035      -0.00144071       18       0.02267230       0.01994796      -0.00588741
O       -0.95573897      -0.80819556       2.02444572       19      -0.02176804       0.01635144       0.01433174
O        4.01991401       5.14408884       2.02588642       20       0.01215394      -0.01975054       0.02021914
O        2.11314139       2.98593785       1.71214075       21      -0.01215394      -0.02738556      -0.00699490
O        2.11314139       6.49487606       0.31374567       22      -0.01215394       0.00763502       0.02721404
O       -2.35251971       6.14363709       3.75427337       23      -0.01124968      -0.02802497      -0.00588741
O        3.50992213       1.99826471       7.51286885       24      -0.02267230      -0.01994796       0.00588741
O        5.41904741      -1.80691202       3.75715477       25       0.01124968       0.02802497       0.00588741
O        6.57644983       3.33634503       1.72982765       26      -0.02267230       0.00487534      -0.02021914
O        3.78053569       2.34784010       4.06945975       27      -0.01124968       0.00891384       0.02721404
O        0.71400799       4.51869801       7.19912318       28      -0.01124968       0.01911113      -0.02132663
O        2.35251971      -0.18197294       0.31230497       29       0.01124968      -0.01911113       0.02132663
O       -3.50992213       1.00038004       5.78160049       30       0.02267230      -0.00487534       0.02021914
O        5.17731643       0.81923889       2.04357332       31      -0.02176804      -0.02058737       0.00699490
O        0.95338631       1.35078722       5.79928740       32       0.01215394       0.02738556       0.00699490
O        3.50992213      -0.99788467       5.78015979       33      -0.02267230       0.01507262       0.01433174
O        2.11078873      -0.01104333       3.44340910       34      -0.02176804       0.00423593      -0.02132663
O        0.95338631      -2.15815099       7.19768247       35       0.01215394      -0.00763502      -0.02721404
O       -0.71400800       1.98888496       3.44196840       36       0.01124968      -0.00891384      -0.02721404
O       -0.95338631      -0.80736377       5.48554172       37      -0.01215394       0.01975054      -0.02021914
O       -0.44339443       5.33460974       1.73126835       38       0.02267230      -0.01507262      -0.01433174
O        4.02226667       5.14492063       5.48698243       39       0.02176804      -0.01635144      -0.01433174
40
Lattice="9.199583102401627 7.210351096555536e-10 4.839671962427208e-15 -3.0665277014803425 8.673450127489478 -1.2488818414857161e-09 -3.0665277004606493 -4.336725063023693 7.511428149695852" Properties=species:S:1:pos:R:3:spacegroup_kinds:I:1:forces:R:3 spacegroup="P 1" unit_cell=conventional occupancy="_JSON {\"0\": {\"In\": 1}, \"1\": {\"In\": 1}, \"2\": {\"In\": 1}, \"3\": {\"In\": 1}, \"4\": {\"In\": 1}, \"5\": {\"In\": 1}, \"6\": {\"In\": 1}, \"7\": {\"In\": 1}, \"8\": {\"In\": 1}, \"9\": {\"In\": 1}, \"10\": {\"In\": 1}, \"11\": {\"In\": 1}, \"12\": {\"In\": 1}, \"13\": {\"In\": 1}, \"14\": {\"In\": 1}, \"15\": {\"In\": 1}, \"16\": {\"O\": 1}, \"17\": {\"O\": 1}, \"18\": {\"O\": 1}, \"19\": {\"O\": 1}, \"20\": {\"O\": 1}, \"21\": {\"O\": 1}, \"22\": {\"O\": 1}, \"23\": {\"O\": 1}, \"24\": {\"O\": 1}, \"25\": {\"O\": 1}, \"26\": {\"O\": 1}, \"27\": {\"O\": 1}, \"28\": {\"O\": 1}, \"29\": {\"O\": 1}, \"30\": {\"O\": 1}, \"31\": {\"O\": 1}, \"32\": {\"O\": 1}, \"33\": {\"O\": 1}, \"34\": {\"O\": 1}, \"35\": {\"O\": 1}, \"36\": {\"O\": 1}, \"37\": {\"O\": 1}, \"38\": {\"O\": 1}, \"39\": {\"O\": 1}}" n_minim_iter=5 energy=-45149.871866671834 stress="0.06675451976519302 -6.697364968751632e-14 -5.894740681688717e-14 -6.697364968751632e-14 0.06675451976550853 -1.6055424062772916e-13 -5.894740681688717e-14 -1.6055424062772916e-13 0.06675451976521486" free_energy=-45149.871866671834 pbc="T T T"
In      -4.37179060       3.09132278       5.91281410        0      -0.00855222       0.00604733      -0.01047428
In       7.43831830       1.24540229       1.59861404        1       0.00855222      -0.00604733       0.01047428
In       1.30526290      -0.92296025       5.35432812        2       0.00855222      -0.00604733       0.01047428
In      -1.53326385      -2.16836253       3.75571407        3      -0.00000000      -0.00000000      -0.00000000
In      -1.30526290       4.17550405       3.47647108        4      -0.00855222       0.00604733       0.01047428
In       4.82779250      -2.93010176       5.63357111        5      -0.00855222      -0.01209466       0.00000000
In      -1.30526290       1.40662330       5.63357111        6      -0.00855222      -0.01209466       0.00000000
In      -1.76126480       7.26682683       1.87785703        7       0.00855222       0.01209466       0.00000000
In       4.37179060       0.16122102       4.03495707        8       0.00855222      -0.00604733      -0.01047428
In      -1.53326385       4.33672507      -0.00000000        9      -0.00000000       0.00000000      -0.00000000
In       4.37179060       6.66630862       0.27924299       10       0.00855222      -0.00604733      -0.01047428
In      -1.30526290      -2.32958355       7.23218515       11      -0.00855222       0.00604733       0.01047428
In       4.37179060       2.93010176       1.87785703       12       0.00855222       0.01209466      -0.00000000
In       1.76126480       5.25968531       2.15710003       13      -0.00855222       0.00604733      -0.01047428
In       4.59979155       0.00000000      -0.00000000       14       0.00000000       0.00000000      -0.00000000
In       1.53326385       2.16836253       3.75571407       15       0.00000000      -0.00000000       0.00000000
O        0.96538740       4.34962787       4.06864484       16       0.00420838      -0.02017356       0.01444448
O       -2.10114030       3.51709839       5.46593157       17       0.00420838       0.02259607       0.01024858
O       -0.43879076       2.34163976      -0.00954250       18       0.00368676       0.02296492       0.00960972
O       -0.96538740      -0.80672387       2.02314826       19      -0.00420838       0.00242251       0.02469306
O        4.01633226       5.13793957       2.03269076       20       0.01990099       0.00312566       0.01508334
O        2.11672314       2.97697048       1.71021750       21      -0.01990099      -0.01149973       0.01024858
O        2.11672314       6.49769416       0.32247326       22      -0.01990099       0.01462539       0.00483477
O       -2.35398272       6.13823691       3.74617157       23      -0.02042261      -0.01113088       0.00960972
O        3.50531846       1.99508531       7.52097065       24      -0.00368676      -0.02296492      -0.00960972
O        5.42051042      -1.80151184       3.76525657       25       0.02042261       0.01113088      -0.00960972
O        6.57184616       3.33091836       1.72302331       26      -0.00368676       0.01980472      -0.01508334
O        3.77907268       2.34352383       4.07818734       27      -0.02042261       0.01388770       0.00483477
O        0.71254498       4.52841446       7.19849738       28      -0.02042261      -0.00275682      -0.01444448
O        2.35398272      -0.19168939       0.31293076       29       0.02042261       0.00275682       0.01444448
O       -3.50531847       1.00580670       5.78840484       30       0.00368676      -0.01980472       0.01508334
O        5.16766800       0.81962668       2.04549657       31      -0.00420838      -0.02259607      -0.01024858
O        0.94980456       1.35975459       5.80121065       32       0.01990099       0.01149973      -0.01024858
O        3.50531846      -0.98927860       5.77886234       33      -0.00368676       0.00316020       0.02469306
O        2.10114030      -0.01290280       3.44278331       34      -0.00420838       0.02017356      -0.01444448
O        0.94980456      -2.16096909       7.18895488       35       0.01990099      -0.01462539      -0.00483477
O       -0.71254498       1.99320124       3.43324081       36       0.02042261      -0.01388770      -0.00483477
O       -0.94980456      -0.80121451       5.47873738       37      -0.01990099      -0.00312566      -0.01508334
O       -0.43879076       5.32600367       1.73256581       38       0.00368676      -0.00316020      -0.02469306
O        4.03191510       5.14344894       5.48827988       39       0.00420838      -0.00242251      -0.02469306
40