40
Lattice="8.523931208977078 6.680809915549394e-10 1.9018746059852037e-14 -2.8413104036222356 8.036439413424423 -1.1571645092839728e-09 -2.8413104026774416 -4.018219706044125 6.959760688771503" Properties=species:S:1:pos:R:3:spacegroup_kinds:I:1:forces:R:3 spacegroup="P 1" unit_cell=conventional occupancy="_JSON {\"0\": {\"In\": 1}, \"1\": {\"In\": 1}, \"2\": {\"In\": 1}, \"3\": {\"In\": 1}, \"4\": {\"In\": 1}, \"5\": {\"In\": 1}, \"6\": {\"In\": 1}, \"7\": {\"In\": 1}, \"8\": {\"In\": 1}, \"9\": {\"In\": 1}, \"10\": {\"In\": 1}, \"11\": {\"In\": 1}, \"12\": {\"In\": 1}, \"13\": {\"In\": 1}, \"14\": {\"In\": 1}, \"15\": {\"In\": 1}, \"16\": {\"O\": 1}, \"17\": {\"O\": 1}, \"18\": {\"O\": 1}, \"19\": {\"O\": 1}, \"20\": {\"O\": 1}, \"21\": {\"O\": 1}, \"22\": {\"O\": 1}, \"23\": {\"O\": 1}, \"24\": {\"O\": 1}, \"25\": {\"O\": 1}, \"26\": {\"O\": 1}, \"27\": {\"O\": 1}, \"28\": {\"O\": 1}, \"29\": {\"O\": 1}, \"30\": {\"O\": 1}, \"31\": {\"O\": 1}, \"32\": {\"O\": 1}, \"33\": {\"O\": 1}, \"34\": {\"O\": 1}, \"35\": {\"O\": 1}, \"36\": {\"O\": 1}, \"37\": {\"O\": 1}, \"38\": {\"O\": 1}, \"39\": {\"O\": 1}}" n_minim_iter=4 energy=-45146.97134008275 stress="-0.16512435675916848 -3.0864036571077746e-14 4.7747820538860515e-14 -3.0864036571077746e-14 -0.1651243567586149 -2.6009234790270082e-14 4.7747820538860515e-14 -2.6009234790270082e-14 -0.16512435675871173" free_energy=-45146.97134008275 pbc="T T T"
In      -4.06496725       2.87436591       5.46109323        0      -0.00298461       0.00211044      -0.00365539
In       6.90627765       1.14385380       1.49866745        1       0.00298461      -0.00211044       0.00365539
In       1.22365685      -0.86525605       4.97854779        2       0.00298461      -0.00211044       0.00365539
In      -1.42065520      -2.00910985       3.47988034        3       0.00000000       0.00000000       0.00000000
In      -1.22365685       3.87892084       3.23860762        4      -0.00298461       0.00211044       0.00365539
In       4.45896396      -2.73506704       5.21982051        5      -0.00298461      -0.00422088      -0.00000000
In      -1.22365685       1.28315267       5.21982051        6      -0.00298461      -0.00422088       0.00000000
In      -1.61765356       6.75328675       1.73994017        7       0.00298461       0.00422088       0.00000000
In       4.06496725       0.13929887       3.72115306        8       0.00298461      -0.00211044      -0.00365539
In      -1.42065520       4.01821971      -0.00000000        9      -0.00000000       0.00000000      -0.00000000
In       4.06496725       6.16662843       0.24127272       10       0.00298461      -0.00211044      -0.00365539
In      -1.22365685      -2.14840872       6.71848797       11      -0.00298461       0.00211044       0.00365539
In       4.06496725       2.73506704       1.73994017       12       0.00298461       0.00422088       0.00000000
In       1.61765355       4.88347576       1.98121289       13      -0.00298461       0.00211044      -0.00365539
In       4.26196560       0.00000000      -0.00000000       14      -0.00000000      -0.00000000      -0.00000000
In       1.42065520       2.00910986       3.47988034       15      -0.00000000      -0.00000000      -0.00000000
O        0.81359866       4.01134056       3.81755982       16      -0.00116260      -0.00047665      -0.00146961
O       -2.02771174       3.30954336       5.05693829       17      -0.00116260      -0.00103439       0.00114759
O       -0.40343263       2.16100459       0.08650511       18      -0.00181216      -0.00057509       0.00035206
O       -0.81359867      -0.71555549       1.91473742       19       0.00116260      -0.00151104      -0.00032201
O        3.79617132       4.78371894       1.82823232       20      -0.00058770       0.00171430      -0.00067407
O        1.88644949       2.81767369       1.57705794       21       0.00058770       0.00144091       0.00114759
O        1.88644949       5.98426496       0.25117437       22       0.00058770       0.00027339      -0.00182166
O       -2.17189221       5.68735463       3.56638545       23      -0.00006185       0.00190022       0.00035206
O        3.24474303       1.85721512       6.87325558       24       0.00181216       0.00057509      -0.00035206
O        5.01320261      -1.66913492       3.39337523       25       0.00006185      -0.00190022      -0.00035206
O        6.08605343       3.16452777       1.65164802       26       0.00181216       0.00001735       0.00067407
O        3.51072859       2.25401294       3.73105472       27      -0.00006185      -0.00064522      -0.00182166
O        0.66941819       4.11329155       6.62208120       28      -0.00006185      -0.00125500       0.00146961
O        2.17189221      -0.09507184       0.33767948       29       0.00006185       0.00125500      -0.00146961
O       -3.24474303       0.85369194       5.30811266       30      -0.00181216      -0.00001735      -0.00067407
O        4.86902214       0.70867635       1.90282240       31       0.00116260       0.00103439      -0.00114759
O        0.95486091       1.20054602       5.38270274       32      -0.00058770      -0.00144091      -0.00114759
O        3.24474303      -1.00352318       5.39461777       33       0.00181216      -0.00059243      -0.00032201
O        2.02771174       0.00687915       3.14220086       34       0.00116260       0.00047665       0.00146961
O        0.95486091      -1.96604525       6.70858631       35      -0.00058770      -0.00027339       0.00182166
O       -0.66941820       1.76420677       3.22870597       36       0.00006185       0.00064522       0.00182166
O       -0.95486092      -0.76549923       5.13152837       37       0.00058770      -0.00171430       0.00067407
O       -0.40343263       5.02174289       1.56514291       38      -0.00181216       0.00059243       0.00032201
O        3.65490907       4.73377520       5.04502326       39      -0.00116260       0.00151104       0.00032201
