40
Lattice="9.404084887075008 7.370626241676607e-10 1.5510881482987676e-14 -3.1346949630532475 8.86625625909387 -1.2766520851137553e-09 -3.1346949620108964 -4.433128128809858 7.678403157689164" Properties=species:S:1:pos:R:3:spacegroup_kinds:I:1:forces:R:3 spacegroup="P 1" unit_cell=conventional occupancy="_JSON {\"0\": {\"In\": 1}, \"1\": {\"In\": 1}, \"2\": {\"In\": 1}, \"3\": {\"In\": 1}, \"4\": {\"In\": 1}, \"5\": {\"In\": 1}, \"6\": {\"In\": 1}, \"7\": {\"In\": 1}, \"8\": {\"In\": 1}, \"9\": {\"In\": 1}, \"10\": {\"In\": 1}, \"11\": {\"In\": 1}, \"12\": {\"In\": 1}, \"13\": {\"In\": 1}, \"14\": {\"In\": 1}, \"15\": {\"In\": 1}, \"16\": {\"O\": 1}, \"17\": {\"O\": 1}, \"18\": {\"O\": 1}, \"19\": {\"O\": 1}, \"20\": {\"O\": 1}, \"21\": {\"O\": 1}, \"22\": {\"O\": 1}, \"23\": {\"O\": 1}, \"24\": {\"O\": 1}, \"25\": {\"O\": 1}, \"26\": {\"O\": 1}, \"27\": {\"O\": 1}, \"28\": {\"O\": 1}, \"29\": {\"O\": 1}, \"30\": {\"O\": 1}, \"31\": {\"O\": 1}, \"32\": {\"O\": 1}, \"33\": {\"O\": 1}, \"34\": {\"O\": 1}, \"35\": {\"O\": 1}, \"36\": {\"O\": 1}, \"37\": {\"O\": 1}, \"38\": {\"O\": 1}, \"39\": {\"O\": 1}}" n_minim_iter=4 energy=-45146.53099363828 stress="0.09364011471657459 -3.558302969605807e-14 4.1355179365383095e-14 -3.558302969605807e-14 0.09364011471669058 -1.0625464430757415e-13 4.1355179365383095e-14 -1.0625464430757415e-13 0.09364011471667942" free_energy=-45146.53099363828 pbc="T T T"
In      -4.45689417       3.15150009       6.05904646        0      -0.00460805       0.00325838      -0.00564368
In       7.59158913       1.28162804       1.61935669        1       0.00460805      -0.00325838       0.00564368
In       1.32219920      -0.93493602       5.45855827        2       0.00460805      -0.00325838       0.00564368
In      -1.56734748      -2.21656406       3.83920158        3       0.00000000      -0.00000000       0.00000000
In      -1.32219921       4.25978212       3.53895748        4      -0.00460805       0.00325838       0.00564368
In       4.94719072      -2.97815408       5.75880237        5      -0.00460805      -0.00651676       0.00000000
In      -1.32219921       1.45497405       5.75880237        6      -0.00460805      -0.00651676      -0.00000000
In      -1.81249576       7.41128221       1.91960079        7       0.00460805       0.00651676       0.00000000
In       4.45689416       0.17334601       4.13944567        8       0.00460805      -0.00325838      -0.00564368
In      -1.56734748       4.43312813      -0.00000000        9       0.00000000      -0.00000000      -0.00000000
In       4.45689416       6.82303821       0.30024409       10       0.00460805      -0.00325838      -0.00564368
In      -1.32219921      -2.38991007       7.37815906       11      -0.00460805       0.00325838       0.00564368
In       4.45689416       2.97815408       1.91960079       12       0.00460805       0.00651676       0.00000000
In       1.81249576       5.36806415       2.21984488       13      -0.00460805       0.00325838      -0.00564368
In       4.70204244       0.00000000      -0.00000000       14       0.00000000      -0.00000000       0.00000000
In       1.56734748       2.21656407       3.83920158       15      -0.00000000      -0.00000000       0.00000000
O        1.05622557       4.45213045       4.14054180       16       0.00131188       0.00392079      -0.00561188
O       -2.07846939       3.57631323       5.59167576       17       0.00131188      -0.00682043      -0.00058956
O       -0.43782209       2.41620040      -0.07735302       18      -0.00229651      -0.00426891      -0.00500892
O       -1.05622557      -0.83781258       2.05381441       19      -0.00131188      -0.00289964      -0.00620144
O        4.06460358       5.22628093       2.13116743       20      -0.00686765       0.00000774      -0.00119253
O        2.20478634       2.98405939       1.75247418       21       0.00686765       0.00103663      -0.00058956
O        2.20478634       6.67534967       0.37869324       22       0.00686765      -0.00102889      -0.00060296
O       -2.42395628       6.25707469       3.76184856       23       0.00325926       0.00358814      -0.00500892
O        3.57251705       2.01692774       7.75575617       24       0.00229651       0.00426891       0.00500892
O        5.55865124      -1.82394655       3.91655460       25      -0.00325926      -0.00358814       0.00500892
O        6.70721201       3.35767459       1.70803414       26       0.00229651      -0.00647230       0.00119253
O        3.84543365       2.34588314       4.21789482       27       0.00325926      -0.00613192      -0.00060296
O        0.71073868       4.69642657       7.37706293       28       0.00325926       0.00254378       0.00561188
O        2.42395627      -0.26329843       0.30134022       29      -0.00325926      -0.00254378      -0.00561188
O       -3.57251705       1.07545355       5.97036901       30      -0.00229651       0.00647230      -0.00119253
O        5.21316435       0.85681490       2.08672739       31      -0.00131188       0.00682043       0.00058956
O        0.92990862       1.44906874       5.92592897       32      -0.00686765      -0.00103663       0.00058956
O        3.57251705      -0.94147418       5.89301599       33       0.00229651       0.00220339      -0.00620144
O        2.07846939      -0.01900231       3.53786135       34      -0.00131188      -0.00392079       0.00561188
O        0.92990862      -2.24222153       7.29970991       35      -0.00686765       0.00102889       0.00060296
O       -0.71073869       2.08724499       3.46050833       36      -0.00325926       0.00613192       0.00060296
O       -0.92990862      -0.79315279       5.54723572       37       0.00686765      -0.00000774       0.00119253
O       -0.43782209       5.37460232       1.78538716       38      -0.00229651      -0.00220339       0.00620144
O        4.19092053       5.27094071       5.62458874       39       0.00131188       0.00289964       0.00620144
