40
Lattice="8.441965255142614 6.616567379600953e-10 1.8835862174082352e-14 -2.813988419004691 7.9591611710495345 -1.1460372382606028e-09 -2.813988418068982 -3.9795805848631045 6.89283576770762" Properties=species:S:1:pos:R:3:spacegroup_kinds:I:1:forces:R:3 spacegroup="P 1" unit_cell=conventional occupancy="_JSON {\"0\": {\"In\": 1}, \"1\": {\"In\": 1}, \"2\": {\"In\": 1}, \"3\": {\"In\": 1}, \"4\": {\"In\": 1}, \"5\": {\"In\": 1}, \"6\": {\"In\": 1}, \"7\": {\"In\": 1}, \"8\": {\"In\": 1}, \"9\": {\"In\": 1}, \"10\": {\"In\": 1}, \"11\": {\"In\": 1}, \"12\": {\"In\": 1}, \"13\": {\"In\": 1}, \"14\": {\"In\": 1}, \"15\": {\"In\": 1}, \"16\": {\"O\": 1}, \"17\": {\"O\": 1}, \"18\": {\"O\": 1}, \"19\": {\"O\": 1}, \"20\": {\"O\": 1}, \"21\": {\"O\": 1}, \"22\": {\"O\": 1}, \"23\": {\"O\": 1}, \"24\": {\"O\": 1}, \"25\": {\"O\": 1}, \"26\": {\"O\": 1}, \"27\": {\"O\": 1}, \"28\": {\"O\": 1}, \"29\": {\"O\": 1}, \"30\": {\"O\": 1}, \"31\": {\"O\": 1}, \"32\": {\"O\": 1}, \"33\": {\"O\": 1}, \"34\": {\"O\": 1}, \"35\": {\"O\": 1}, \"36\": {\"O\": 1}, \"37\": {\"O\": 1}, \"38\": {\"O\": 1}, \"39\": {\"O\": 1}}" n_minim_iter=4 energy=-45146.97134008275 stress="-0.16512435675916848 -3.0864036571077746e-14 4.7747820538860515e-14 -3.0864036571077746e-14 -0.1651243567586149 -2.6009234790270082e-14 4.7747820538860515e-14 -2.6009234790270082e-14 -0.16512435675871173" free_energy=-45146.97134008275 pbc="T T T"
In      -4.02587861       2.84672607       5.40857947        0      -0.00298461       0.00211044      -0.00365539
In       6.83986702       1.13285452       1.48425629        1       0.00298461      -0.00211044       0.00365539
In       1.21189019      -0.85693577       4.93067418        2       0.00298461      -0.00211044       0.00365539
In      -1.40699421      -1.98979029       3.44641788        3       0.00000000       0.00000000       0.00000000
In      -1.21189019       3.84162121       3.20746523        4      -0.00298461       0.00211044       0.00365539
In       4.41608665      -2.70876669       5.16962682        5      -0.00298461      -0.00422088      -0.00000000
In      -1.21189019       1.27081390       5.16962682        6      -0.00298461      -0.00422088       0.00000000
In      -1.60209823       6.68834728       1.72320894        7       0.00298461       0.00422088       0.00000000
In       4.02587861       0.13795938       3.68537053        8       0.00298461      -0.00211044      -0.00365539
In      -1.40699421       3.97958059      -0.00000000        9      -0.00000000       0.00000000      -0.00000000
In       4.02587861       6.10733026       0.23895264       10       0.00298461      -0.00211044      -0.00365539
In      -1.21189019      -2.12774967       6.65388312       11      -0.00298461       0.00211044       0.00365539
In       4.02587861       2.70876669       1.72320894       12       0.00298461       0.00422088       0.00000000
In       1.60209823       4.83651636       1.96216159       13      -0.00298461       0.00211044      -0.00365539
In       4.22098263       0.00000000      -0.00000000       14      -0.00000000      -0.00000000      -0.00000000
In       1.40699421       1.98979029       3.44641788       15      -0.00000000      -0.00000000      -0.00000000
O        0.80577511       3.97276759       3.78085024       16      -0.00116260      -0.00047665      -0.00146961
O       -2.00821330       3.27771886       5.00831087       17      -0.00116260      -0.00103439       0.00114759
O       -0.39955323       2.14022441       0.08567327       18      -0.00181216      -0.00057509       0.00035206
O       -0.80577512      -0.70867472       1.89632535       19       0.00116260      -0.00151104      -0.00032201
O        3.75966741       4.73771880       1.81065207       20      -0.00058770       0.00171430      -0.00067407
O        1.86830943       2.79057900       1.56189298       21       0.00058770       0.00144091       0.00114759
O        1.86830942       5.92672038       0.24875908       22       0.00058770       0.00027339      -0.00182166
O       -2.15100734       5.63266514       3.53209116       23      -0.00006185       0.00190022       0.00035206
O        3.21354165       1.83935618       6.80716249       24       0.00181216       0.00057509      -0.00035206
O        4.96499575      -1.65308455       3.36074460       25       0.00006185      -0.00190022      -0.00035206
O        6.02753006       3.13409774       1.63576581       26       0.00181216       0.00001735       0.00067407
O        3.47696950       2.23233840       3.69517697       27      -0.00006185      -0.00064522      -0.00182166
O        0.66298108       4.07373822       6.55840340       28      -0.00006185      -0.00125500       0.00146961
O        2.15100734      -0.09415763       0.33443236       29       0.00006185       0.00125500      -0.00146961
O       -3.21354165       0.84548285       5.25706995       30      -0.00181216      -0.00001735      -0.00067407
O        4.82220172       0.70186173       1.88452490       31       0.00116260       0.00103439      -0.00114759
O        0.94567899       1.18900159       5.33094278       32      -0.00058770      -0.00144091      -0.00114759
O        3.21354165      -0.99387332       5.34274323       33       0.00181216      -0.00059243      -0.00032201
O        2.00821330       0.00681300       3.11198552       34       0.00116260       0.00047665       0.00146961
O        0.94567899      -1.94713980       6.64407668       35      -0.00058770      -0.00027339       0.00182166
O       -0.66298108       1.74724219       3.19765879       36       0.00006185       0.00064522       0.00182166
O       -0.94567899      -0.75813821       5.08218369       37       0.00058770      -0.00171430       0.00067407
O       -0.39955323       4.97345391       1.55009253       38      -0.00181216       0.00059243       0.00032201
O        3.61976353       4.68825531       4.99651041       39      -0.00116260       0.00151104       0.00032201
