40
Lattice="9.404084887074996 7.370626452789498e-10 8.116675194949039e-15 -3.1346949630532426 8.866256259093857 -1.2766458031649136e-09 -3.134694962010888 -4.433128128809853 7.678403157689161" Properties=species:S:1:pos:R:3:spacegroup_kinds:I:1:forces:R:3 spacegroup="P 1" unit_cell=conventional occupancy="_JSON {\"0\": {\"In\": 1}, \"1\": {\"In\": 1}, \"2\": {\"In\": 1}, \"3\": {\"In\": 1}, \"4\": {\"In\": 1}, \"5\": {\"In\": 1}, \"6\": {\"In\": 1}, \"7\": {\"In\": 1}, \"8\": {\"In\": 1}, \"9\": {\"In\": 1}, \"10\": {\"In\": 1}, \"11\": {\"In\": 1}, \"12\": {\"In\": 1}, \"13\": {\"In\": 1}, \"14\": {\"In\": 1}, \"15\": {\"In\": 1}, \"16\": {\"O\": 1}, \"17\": {\"O\": 1}, \"18\": {\"O\": 1}, \"19\": {\"O\": 1}, \"20\": {\"O\": 1}, \"21\": {\"O\": 1}, \"22\": {\"O\": 1}, \"23\": {\"O\": 1}, \"24\": {\"O\": 1}, \"25\": {\"O\": 1}, \"26\": {\"O\": 1}, \"27\": {\"O\": 1}, \"28\": {\"O\": 1}, \"29\": {\"O\": 1}, \"30\": {\"O\": 1}, \"31\": {\"O\": 1}, \"32\": {\"O\": 1}, \"33\": {\"O\": 1}, \"34\": {\"O\": 1}, \"35\": {\"O\": 1}, \"36\": {\"O\": 1}, \"37\": {\"O\": 1}, \"38\": {\"O\": 1}, \"39\": {\"O\": 1}}" n_minim_iter=5 energy=-45147.75941599926 stress="0.08637938884819511 1.1583351268446202e-15 -1.2854197723099056e-14 1.1583351268446202e-15 0.08637938884842454 3.765541521909534e-15 -1.2854197723099056e-14 3.765541521909534e-15 0.08637938884819642" free_energy=-45147.75941599926 pbc="T T T"
In      -4.46197650       3.15509384       6.05282191        0      -0.00231168       0.00163461      -0.00283122
In       7.59667145       1.27803430       1.62558125        1       0.00231168      -0.00163461       0.00283122
In       1.32728153      -0.93852977       5.46478282        2       0.00231168      -0.00163461       0.00283122
In      -1.56734748      -2.21656406       3.83920158        3       0.00000000      -0.00000000       0.00000000
In      -1.32728153       4.26337587       3.54518203        4      -0.00231168       0.00163461       0.00283122
In       4.94210839      -2.98534157       5.75880237        5      -0.00231168      -0.00326922       0.00000000
In      -1.32728153       1.44778656       5.75880237        6      -0.00231168      -0.00326922       0.00000000
In      -1.80741343       7.41846971       1.91960079        7       0.00231168       0.00326922      -0.00000000
In       4.46197649       0.16975226       4.13322112        8       0.00231168      -0.00163461      -0.00283122
In      -1.56734748       4.43312813      -0.00000000        9      -0.00000000       0.00000000      -0.00000000
In       4.46197649       6.81944446       0.29401954       10       0.00231168      -0.00163461      -0.00283122
In      -1.32728153      -2.38631632       7.38438361       11      -0.00231168       0.00163461       0.00283122
In       4.46197649       2.98534158       1.91960079       12       0.00231168       0.00326922       0.00000000
In       1.80741343       5.37165790       2.21362033       13      -0.00231168       0.00163461      -0.00283122
In       4.70204244       0.00000000      -0.00000000       14       0.00000000       0.00000000      -0.00000000
In       1.56734748       2.21656407       3.83920158       15      -0.00000000       0.00000000      -0.00000000
O        1.03206172       4.45145891       4.14633344       16       0.00101884      -0.00816503      -0.00302503
O       -2.10263324       3.58166470       5.58936151       17       0.00101884       0.00146276       0.00858364
O       -0.44146442       2.40704096      -0.05453365       18      -0.00597934       0.00641123       0.00001264
O       -1.03206172      -0.83313265       2.05729180       19      -0.00101884      -0.00670227       0.00555861
O        4.07770361       5.23477576       2.11182544       20       0.00103949       0.00670957       0.00554596
O        2.19168631       3.00505746       1.75015993       21      -0.00103949      -0.00144816       0.00858364
O        2.19168631       6.66284643       0.36166550       22      -0.00103949       0.00815773      -0.00303767
O       -2.41653479       6.26356185       3.78466793       23      -0.00803768       0.00350030       0.00001264
O        3.57615938       2.02608717       7.73293680       24       0.00597934      -0.00641123      -0.00001264
O        5.55122975      -1.83043372       3.89373522       25       0.00803768      -0.00350030      -0.00001264
O        6.71085434       3.37285703       1.72737613       26       0.00597934       0.00321656      -0.00554596
O        3.85285513       2.36240171       4.20086708       27      -0.00803768      -0.00173920      -0.00303767
O        0.71816017       4.67342083       7.37127129       28      -0.00803768      -0.00176110       0.00302503
O        2.41653479      -0.24029269       0.30713186       29       0.00803768       0.00176110      -0.00302503
O       -3.57615938       1.06027111       5.95102702       30      -0.00597934      -0.00321656       0.00554596
O        5.23732820       0.85146343       2.08904164       31      -0.00101884      -0.00146276      -0.00858364
O        0.94300865       1.42807067       5.92824322       32       0.00103949       0.00144816      -0.00858364
O        3.57615938      -0.96581606       5.89649337       33       0.00597934       0.00319467       0.00555861
O        2.10263324      -0.01833078       3.53206971       34      -0.00101884       0.00816503       0.00302503
O        0.94300865      -2.22971830       7.31673765       35       0.00103949      -0.00815773       0.00303767
O       -0.71816017       2.07072642       3.47753607       36       0.00803768       0.00173920       0.00303767
O       -0.94300865      -0.80164763       5.56657771       37      -0.00103949      -0.00670957      -0.00554596
O       -0.44146442       5.39894419       1.78190978       38      -0.00597934      -0.00319467      -0.00555861
O        4.16675668       5.26626078       5.62111136       39       0.00101884       0.00670227      -0.00555861
