40
Lattice="8.185988923181448 6.415960728615115e-10 2.7153832786898858e-14 -2.728662974998721 7.717824370852226 -1.1112903857865956e-09 -2.728662974091391 -3.858912184784512 6.683831967845531" Properties=species:S:1:pos:R:3:spacegroup_kinds:I:1:forces:R:3 spacegroup="P 1" unit_cell=conventional occupancy="_JSON {\"0\": {\"In\": 1}, \"1\": {\"In\": 1}, \"2\": {\"In\": 1}, \"3\": {\"In\": 1}, \"4\": {\"In\": 1}, \"5\": {\"In\": 1}, \"6\": {\"In\": 1}, \"7\": {\"In\": 1}, \"8\": {\"In\": 1}, \"9\": {\"In\": 1}, \"10\": {\"In\": 1}, \"11\": {\"In\": 1}, \"12\": {\"In\": 1}, \"13\": {\"In\": 1}, \"14\": {\"In\": 1}, \"15\": {\"In\": 1}, \"16\": {\"O\": 1}, \"17\": {\"O\": 1}, \"18\": {\"O\": 1}, \"19\": {\"O\": 1}, \"20\": {\"O\": 1}, \"21\": {\"O\": 1}, \"22\": {\"O\": 1}, \"23\": {\"O\": 1}, \"24\": {\"O\": 1}, \"25\": {\"O\": 1}, \"26\": {\"O\": 1}, \"27\": {\"O\": 1}, \"28\": {\"O\": 1}, \"29\": {\"O\": 1}, \"30\": {\"O\": 1}, \"31\": {\"O\": 1}, \"32\": {\"O\": 1}, \"33\": {\"O\": 1}, \"34\": {\"O\": 1}, \"35\": {\"O\": 1}, \"36\": {\"O\": 1}, \"37\": {\"O\": 1}, \"38\": {\"O\": 1}, \"39\": {\"O\": 1}}" n_minim_iter=6 energy=-45136.945711462686 stress="-0.3377282449573092 -8.290970820138363e-14 -1.0929228985119515e-13 -8.290970820138363e-14 -0.3377282449570155 -5.802849249356789e-15 -1.0929228985119515e-13 -5.802849249356789e-15 -0.3377282449571306" free_energy=-45136.945711462686 pbc="T T T"
In      -3.89390381       2.75340579       5.25670923        0      -0.00198600       0.00140431      -0.00243234
In       6.62256678       1.10550640       1.42712273        1       0.00198600      -0.00140431       0.00243234
In       1.16524083      -0.82394969       4.76903872        2       0.00198600      -0.00140431       0.00243234
In      -1.36433149      -1.92945609       3.34191598        3       0.00000000       0.00000000       0.00000000
In      -1.16524084       3.71813384       3.09808072        4      -0.00198600       0.00140431       0.00243234
In       4.29208511      -2.61262744       5.01287397        5      -0.00198600      -0.00280863       0.00000000
In      -1.16524084       1.24628475       5.01287397        6      -0.00198600      -0.00280863       0.00000000
In      -1.56342214       6.47153962       1.67095799        7       0.00198600       0.00280863       0.00000000
In       3.89390381       0.14077835       3.58575124        8       0.00198600      -0.00140431      -0.00243234
In      -1.36433149       3.85891219      -0.00000000        9       0.00000000       0.00000000       0.00000000
In       3.89390381       5.92914663       0.24383525       10       0.00198600      -0.00140431      -0.00243234
In      -1.16524084      -2.07023444       6.43999671       11      -0.00198600       0.00140431       0.00243234
In       3.89390381       2.61262744       1.67095799       12       0.00198600       0.00280863      -0.00000000
In       1.56342214       4.68286188       1.91479325       13      -0.00198600       0.00140431      -0.00243234
In       4.09299446       0.00000000      -0.00000000       14       0.00000000       0.00000000      -0.00000000
In       1.36433149       1.92945609       3.34191598       15       0.00000000       0.00000000      -0.00000000
O        0.77584002       3.84887830       3.68872869       16       0.00241790       0.00024979       0.00331408
O       -1.95282295       3.19954970       4.84815722       17       0.00241790       0.00274518      -0.00187336
O       -0.37249961       2.08209235       0.09981816       18       0.00362965       0.00188835      -0.00038928
O       -0.77584002      -0.66939637       1.85305395       19      -0.00241790       0.00299497       0.00144072
O        3.66750537       4.58593860       1.75323578       20       0.00178222      -0.00321972       0.00183000
O        1.78982058       2.70407866       1.50624123       21      -0.00178222      -0.00319468      -0.00187336
O        1.78982058       5.74077212       0.24699455       22      -0.00178222      -0.00002504       0.00370336
O       -2.08718203       5.44553350       3.44173414       23      -0.00057047      -0.00405152      -0.00038928
O        3.10116258       1.77681984       6.58401380       24      -0.00362965      -0.00188835       0.00038928
O        4.81584500      -1.58662131       3.24209782       25       0.00057047       0.00405152       0.00038928
O        5.82982556       3.05694733       1.58868019       26      -0.00362965       0.00060705      -0.00183000
O        3.37014392       2.18731855       3.58891053       27      -0.00057047       0.00168863       0.00370336
O        0.64148094       3.94388452       6.33701925       28      -0.00057047       0.00236288      -0.00331408
O        2.08718203      -0.08497233       0.34681271       29       0.00057047      -0.00236288       0.00331408
O       -3.10116259       0.80196486       5.09515177       30       0.00362965      -0.00060705       0.00183000
O        4.68148592       0.65936249       1.83567475       31      -0.00241790      -0.00274518       0.00187336
O        0.93884239       1.15483353       5.17759073       32       0.00178222       0.00319468       0.00187336
O        3.10116258      -0.97485498       5.19496993       33      -0.00362965       0.00128130       0.00144072
O        1.95282295       0.01003389       2.99510327       34      -0.00241790      -0.00024979      -0.00331408
O        0.93884239      -1.88185993       6.43683741       35       0.00178222       0.00002504      -0.00370336
O       -0.64148095       1.67159364       3.09492143       36       0.00057047      -0.00168863      -0.00370336
O       -0.93884240      -0.72702641       4.93059618       37      -0.00178222       0.00321972      -0.00183000
O       -0.37249961       4.83376717       1.48886203       38       0.00362965      -0.00128130      -0.00144072
O        3.50450300       4.52830856       4.83077802       39       0.00241790      -0.00299497      -0.00144072
