40
Lattice="9.268755497468506 7.264566298382631e-10 4.876061839800207e-15 -3.089585166507747 8.738666486984611 -1.2582722831143752e-09 -3.0895851654803868 -4.369333242765838 7.567907173767235" Properties=species:S:1:pos:R:3:spacegroup_kinds:I:1:forces:R:3 spacegroup="P 1" unit_cell=conventional occupancy="_JSON {\"0\": {\"In\": 1}, \"1\": {\"In\": 1}, \"2\": {\"In\": 1}, \"3\": {\"In\": 1}, \"4\": {\"In\": 1}, \"5\": {\"In\": 1}, \"6\": {\"In\": 1}, \"7\": {\"In\": 1}, \"8\": {\"In\": 1}, \"9\": {\"In\": 1}, \"10\": {\"In\": 1}, \"11\": {\"In\": 1}, \"12\": {\"In\": 1}, \"13\": {\"In\": 1}, \"14\": {\"In\": 1}, \"15\": {\"In\": 1}, \"16\": {\"O\": 1}, \"17\": {\"O\": 1}, \"18\": {\"O\": 1}, \"19\": {\"O\": 1}, \"20\": {\"O\": 1}, \"21\": {\"O\": 1}, \"22\": {\"O\": 1}, \"23\": {\"O\": 1}, \"24\": {\"O\": 1}, \"25\": {\"O\": 1}, \"26\": {\"O\": 1}, \"27\": {\"O\": 1}, \"28\": {\"O\": 1}, \"29\": {\"O\": 1}, \"30\": {\"O\": 1}, \"31\": {\"O\": 1}, \"32\": {\"O\": 1}, \"33\": {\"O\": 1}, \"34\": {\"O\": 1}, \"35\": {\"O\": 1}, \"36\": {\"O\": 1}, \"37\": {\"O\": 1}, \"38\": {\"O\": 1}, \"39\": {\"O\": 1}}" n_minim_iter=8 energy=-45149.87267931535 stress="0.06705573915810821 3.8063431368114543e-14 -1.0685144828166478e-13 3.8063431368114543e-14 0.0670557391583338 7.0551901275263824e-15 -1.0685144828166478e-13 7.0551901275263824e-15 0.06705573915824732" free_energy=-45149.87267931535 pbc="T T T"
In      -4.40573721       3.11532666       5.95595670        0       0.00370322      -0.00261857       0.00453550
In       7.49532237       1.25400659       1.61195046        1      -0.00370322       0.00261857      -0.00453550
In       1.31615204      -0.93066003       5.39590405        2      -0.00370322       0.00261857      -0.00453550
In      -1.54479258      -2.18466662       3.78395358        3      -0.00000000       0.00000000      -0.00000000
In      -1.31615205       4.20765997       3.50392726        4       0.00370322      -0.00261857      -0.00453550
In       4.86301829      -2.95365338       5.67593038        5       0.00370322       0.00523715      -0.00000000
In      -1.31615205       1.41567986       5.67593038        6       0.00370322       0.00523715      -0.00000000
In      -1.77343312       7.32298663       1.89197679        7      -0.00370322      -0.00523715       0.00000000
In       4.40573721       0.16167328       4.06397991        8      -0.00370322       0.00261857       0.00453550
In      -1.54479258       4.36933325      -0.00000000        9      -0.00000000      -0.00000000      -0.00000000
In       4.40573721       6.71567314       0.28002632       10      -0.00370322       0.00261857       0.00453550
In      -1.31615205      -2.34633989       7.28788084       11       0.00370322      -0.00261857      -0.00453550
In       4.40573721       2.95365338       1.89197679       12      -0.00370322      -0.00523715       0.00000000
In       1.77343312       5.29999328       2.17200312       13       0.00370322      -0.00261857       0.00453550
In       4.63437775       0.00000000      -0.00000000       14       0.00000000       0.00000000      -0.00000000
In       1.54479258       2.18466662       3.78395358       15      -0.00000000      -0.00000000       0.00000000
O        0.97330612       4.38058454       4.10117136       16       0.00018119      -0.00200388      -0.00469264
O       -2.11627904       3.54609294       5.50757758       17       0.00018119      -0.00306201       0.00408173
O       -0.44111521       2.36157323      -0.00868127       18      -0.00471577       0.00040066      -0.00191579
O       -0.97330613      -0.81198901       2.04084177       19      -0.00018119      -0.00506589      -0.00061091
O        4.04871483       5.17631012       2.04952304       20      -0.00294729       0.00395980       0.00130488
O        2.13045550       2.99788266       1.72362400       21       0.00294729       0.00084985       0.00408173
O        2.13045550       6.54776071       0.32589905       22       0.00294729       0.00310996      -0.00277685
O       -2.37355100       6.18269619       3.77527231       23      -0.00194967       0.00431252      -0.00191579
O        3.53070037       2.00776001       7.57658844       24       0.00471577      -0.00040066       0.00191579
O        5.46313616      -1.81336295       3.79263486       25       0.00194967      -0.00431252       0.00191579
O        6.62028553       3.35793504       1.73443054       26       0.00471577      -0.00145879      -0.00130488
O        3.80561933       2.36280026       4.10985263       27      -0.00194967      -0.00381538      -0.00277685
O        0.71603417       4.56250328       7.25068939       28      -0.00194967      -0.00049713       0.00469264
O        2.37355100      -0.19317004       0.31721778       29       0.00194967       0.00049713      -0.00469264
O       -3.53070037       1.01139821       5.83347663       30      -0.00471577       0.00145879       0.00130488
O        5.20586421       0.82324030       2.06032959       31      -0.00018119       0.00306201      -0.00408173
O        0.95912967       1.37145059       5.84428317       32      -0.00294729      -0.00084985      -0.00408173
O        3.53070037      -0.99636180       5.82479536       33       0.00471577       0.00185945      -0.00061091
O        2.11627904      -0.01125129       3.46673581       34      -0.00018119       0.00200388       0.00469264
O        0.95912967      -2.17842746       7.24200812       35      -0.00294729      -0.00310996       0.00277685
O       -0.71603417       2.00653299       3.45805453       36       0.00194967       0.00381538       0.00277685
O       -0.95912967      -0.80697687       5.51838412       37       0.00294729      -0.00395980      -0.00130488
O       -0.44111521       5.36569505       1.74311181       38      -0.00471577      -0.00185945       0.00061091
O        4.06289129       5.18132226       5.52706539       39       0.00018119       0.00506589       0.00061091
