320
Lattice="17.82381151134451 1.396980435227381e-09 -1.0201877723356966e-15 -5.941270505098593 16.804450647884405 -2.419643708114923e-09 -5.941270503122966 -8.402225322545233 14.55308115932287" Properties=species:S:1:pos:R:3:spacegroup_kinds:I:1:forces:R:3 spacegroup="P 1" unit_cell=conventional occupancy="_JSON {\"0\": {\"In\": 1}, \"1\": {\"In\": 1}, \"2\": {\"In\": 1}, \"3\": {\"In\": 1}, \"4\": {\"In\": 1}, \"5\": {\"In\": 1}, \"6\": {\"In\": 1}, \"7\": {\"In\": 1}, \"8\": {\"In\": 1}, \"9\": {\"In\": 1}, \"10\": {\"In\": 1}, \"11\": {\"In\": 1}, \"12\": {\"In\": 1}, \"13\": {\"In\": 1}, \"14\": {\"In\": 1}, \"15\": {\"In\": 1}, \"16\": {\"O\": 1}, \"17\": {\"O\": 1}, \"18\": {\"O\": 1}, \"19\": {\"O\": 1}, \"20\": {\"O\": 1}, \"21\": {\"O\": 1}, \"22\": {\"O\": 1}, \"23\": {\"O\": 1}, \"24\": {\"O\": 1}, \"25\": {\"O\": 1}, \"26\": {\"O\": 1}, \"27\": {\"O\": 1}, \"28\": {\"O\": 1}, \"29\": {\"O\": 1}, \"30\": {\"O\": 1}, \"31\": {\"O\": 1}, \"32\": {\"O\": 1}, \"33\": {\"O\": 1}, \"34\": {\"O\": 1}, \"35\": {\"O\": 1}, \"36\": {\"O\": 1}, \"37\": {\"O\": 1}, \"38\": {\"O\": 1}, \"39\": {\"O\": 1}}" n_minim_iter=5 energy=-361215.26159987744 stress="0.00012583153513835073 3.427097803199459e-07 1.2234418207958576e-08 3.427097803199459e-07 0.00012744212374800633 2.7956891343636143e-08 1.2234418207958576e-08 2.7956891343636143e-08 0.00012743204002533498" free_energy=-45151.90777701582 pbc="T T T"
In      -4.25547801       3.00907736       5.70293600        0       0.00347807      -0.00239053       0.00419937
In       4.65642775       3.00907736       5.70293600        0       0.00358179      -0.00273828       0.00420800
In      -7.22611326      11.41130268       5.70293600        0       0.00369844      -0.00247123       0.00435696
In       1.68579249      11.41130268       5.70293600        0       0.00237486      -0.00110172       0.00442970
In      -7.22611326      -1.19203530      12.97947658        0       0.00356667      -0.00246659       0.00437589
In       1.68579249      -1.19203530      12.97947658        0       0.00353429      -0.00249757       0.00433745
In     -10.19674851       7.21019002      12.97947658        0       0.00339290      -0.00259237       0.00432482
In      -1.28484276       7.21019002      12.97947658        0       0.00349454      -0.00262141       0.00341486
In       7.22611326       1.19203531       1.57360457        1      -0.00470853       0.00387782      -0.00421150
In      16.13801902       1.19203531       1.57360457        1      -0.00338009       0.00253430      -0.00431217
In       4.25547801       9.59426063       1.57360457        1      -0.00349567       0.00225487      -0.00447223
In      13.16738376       9.59426063       1.57360457        1      -0.00360020       0.00261240      -0.00446982
In       4.25547801      -3.00907735       8.85014515        1      -0.00358619       0.00238530      -0.00522476
In      13.16738376      -3.00907735       8.85014515        1      -0.00368789       0.00241260      -0.00434427
In       1.28484276       5.39314797       8.85014515        1      -0.00354400       0.00250755      -0.00433161
In      10.19674851       5.39314797       8.85014515        1      -0.00351162       0.00253769      -0.00429370
In       1.28484275      -0.90852102       5.21187486        2      -0.00385613       0.00272449      -0.00433555
In      10.19674851      -0.90852102       5.21187486        2       0.00484322       0.00825474       0.00332047
In      -1.68579250       7.49370430       5.21187486        2      -0.00347087       0.00265911      -0.00432098
In       7.22611325       7.49370430       5.21187486        2      -0.00350083       0.00240805      -0.00432328
In      -1.68579250      -5.10963368      12.48841544        2      -0.00340462       0.00251175      -0.00424374
In       7.22611325      -5.10963368      12.48841544        2      -0.00351303       0.00251031      -0.00437192
In      -4.65642775       3.29259164      12.48841544        2      -0.00346376       0.00250285      -0.00431252
In       4.25547800       3.29259164      12.48841544        2      -0.00353012       0.00250665      -0.00432651
In       7.43658813      -2.10055633       3.63827029        3      -0.12326618      -0.01907213      -0.00000244
In      16.33849388      -2.10055633       3.63827029        3       0.00031241      -0.00000779      -0.00004671
In       4.45595287       6.30166899       3.63827029        3      -0.00001352      -0.00005370      -0.00000006
In      13.36785863       6.30166900       3.63827029        3      -0.00003552      -0.00004594       0.00000685
In       4.45595287      -6.30166899      10.91481087        3      -0.00007778       0.00005698      -0.00007531
In      13.36785863      -6.30166899      10.91481087        3      -0.00004823       0.00002563      -0.00004310
In       1.48531762       2.10055633      10.91481087        3      -0.00002569       0.00002167       0.00003607
In      10.39722338       2.10055633      10.91481087        3       0.00003190       0.00006022       0.00012184
In      -1.28484276       4.05935552       3.39273971        4       0.00359905      -0.00255477      -0.00433319
In       7.62706300       4.05935552       3.39273971        4       0.00353091      -0.00208630      -0.00433149
In      -4.25547801      12.46158084       3.39273971        4       0.00386155      -0.00239168      -0.00495755
In       4.65642774      12.46158084       3.39273971        4       0.00864176      -0.00919250      -0.00549516
In      -4.25547801      -0.14175714      10.66928029        4       0.00358806      -0.00246592      -0.00417720
In       4.65642774      -0.14175714      10.66928029        4       0.00359317      -0.00263052      -0.00445895
In      -7.22611326       8.26046818      10.66928029        4       0.00368472      -0.00257645      -0.00429451
In       1.68579249       8.26046818      10.66928029        4       0.00358312      -0.00249727      -0.00440082
In       4.65642775      -2.86732021       5.45740543        5       0.01213318       0.00964332      -0.00895969
In      13.56833351      -2.86732021       5.45740543        5       0.00335887       0.00487386      -0.00007358
In       1.68579250       5.53490511       5.45740543        5       0.00354967       0.00497608       0.00000977
In      10.59769825       5.53490511       5.45740543        5       0.00365515       0.00504617      -0.00006986
In       1.68579250      -7.06843287      12.73394601        5       0.00349988       0.00491182      -0.00000865
In      10.59769825      -7.06843287      12.73394601        5       0.00354727       0.00500725      -0.00000321
In      -1.28484275       1.33379245      12.73394601        5       0.00358430       0.00494264      -0.00017033
In       7.62706300       1.33379245      12.73394601        5       0.00357562       0.00510311       0.00010795
In      -1.28484276       1.33379245       5.45740543        6       0.00378438       0.00501467      -0.00002630
In       7.62706300       1.33379245       5.45740543        6       0.00268853       0.00644872       0.00014835
In      -4.25547801       9.73601777       5.45740543        6       0.00335560       0.00504402       0.00007134
In       4.65642774       9.73601777       5.45740543        6       0.00357716       0.00469404       0.00008841
In      -4.25547801      -2.86732021      12.73394601        6       0.00353786       0.00500780      -0.00000267
In       4.65642774      -2.86732021      12.73394601        6       0.00353325       0.00500164       0.00000535
In      -7.22611326       5.53490511      12.73394601        6       0.00357792       0.00513854       0.00009691
In       1.68579249       5.53490511      12.73394601        6       0.00342961       0.00486652       0.00000595
In      -1.68579250       7.06843288       1.81913514        7      -0.00342282      -0.00496303      -0.00006949
In       7.22611326       7.06843288       1.81913514        7      -0.00352828      -0.00503481       0.00000990
In      -4.65642775      15.47065820       1.81913514        7      -0.00372116      -0.00513697      -0.00007527
In       4.25547800      15.47065820       1.81913514        7       0.00517431      -0.00032681      -0.00906785
In      -4.65642775       2.86732022       9.09567572        7      -0.00350314      -0.00490642       0.00010829
In       4.25547800       2.86732022       9.09567572        7      -0.00349379      -0.00506766      -0.00016965
In      -7.62706300      11.26954554       9.09567572        7      -0.00353094      -0.00500290      -0.00000322
In       1.28484275      11.26954554       9.09567572        7      -0.00357885      -0.00509865      -0.00000877
In       4.25547800       0.14175714       3.88380086        8       0.00157192      -0.00418302       0.00312984
In      13.16738376       0.14175714       3.88380086        8      -0.00320323       0.00261710       0.00369799
In       1.28484275       8.54398246       3.88380086        8      -0.00355023       0.00292227       0.00433647
In      10.19674850       8.54398246       3.88380086        8      -0.00347700       0.00244840       0.00433579
In       1.28484275      -4.05935552      11.16034144        8      -0.00349545       0.00250734       0.00426871
In      10.19674850      -4.05935552      11.16034144        8      -0.00339343       0.00242826       0.00437519
In      -1.68579250       4.34286980      11.16034144        8      -0.00348475       0.00237438       0.00421025
In       7.22611325       4.34286980      11.16034144        8      -0.00349050       0.00253880       0.00449006
In       7.42658813       4.20111266      -0.00000000        9      -0.00022796       0.00008933      -0.00011370
In      16.33849388       4.20111266      -0.00000000        9       0.00000003       0.00000004      -0.00000005
In       4.45595287      12.60333798      -0.00000000        9       0.00034170      -0.00020027      -0.00064718
In      13.36785863      12.60333799      -0.00000000        9       0.00010777       0.00020688       0.00032908
In       4.45595287      -0.00000000       7.27654058        9       0.00031679      -0.00020084      -0.00063168
In      13.36785863       0.00000000       7.27654058        9       0.00011087       0.00021167       0.00033672
In       1.48531762       8.40222532       7.27654058        9      -0.00022860       0.00009052      -0.00011403
In      10.39722338       8.40222532       7.27654058        9       0.00000003       0.00000004      -0.00000005
In       4.25547800       6.44342614       0.24553057       10      -0.00353850       0.00246725       0.00432584
In      13.16738376       6.44342614       0.24553057       10      -0.00353928       0.00250228       0.00433622
In       1.28484275      14.84565146       0.24553057       10      -0.00616452       0.00153329       0.00540846
In      10.19674850      14.84565146       0.24553057       10      -0.00329603       0.00249861       0.00433188
In       1.28484275       2.24231348       7.52207115       10      -0.00361346       0.00256691       0.00431177
In      10.19674850       2.24231348       7.52207115       10      -0.00356912       0.00224617       0.00430164
In      -1.68579250      10.64453880       7.52207115       10      -0.00367257       0.00250660       0.00447907
In       7.22611325      10.64453880       7.52207115       10      -0.00362741       0.00250344       0.00436411
In      -1.28484275      -2.24231347       7.03101001       11       0.00378560      -0.00250540      -0.00433603
In       7.62706301      -2.24231347       7.03101001       11       0.00088620      -0.00347438      -0.00323190
In      -4.25547800       6.15991185       7.03101001       11       0.00353887      -0.00250276      -0.00433280
In       4.65642775       6.15991185       7.03101001       11       0.00353999      -0.00253799      -0.00434249
In      -4.25547800      -6.44342613      14.30755059       11       0.00345342      -0.00250227      -0.00430500
In       4.65642775      -6.44342613      14.30755059       11       0.00340415      -0.00249673      -0.00419017
In      -7.22611325       1.95879919      14.30755059       11       0.00351010      -0.00275972      -0.00436597
In       1.68579250       1.95879919      14.30755059       11       0.00346258      -0.00243664      -0.00435762
In       4.25547800       2.86732021       1.81913514       12      -0.00350353      -0.00530463       0.00007972
In      13.16738376       2.86732021       1.81913514       12      -0.00372391      -0.00496725       0.00007256
In       1.28484275      11.26954553       1.81913514       12      -0.00437534      -0.00352246       0.00016231
In      10.19674850      11.26954553       1.81913514       12      -0.00329403      -0.00499577      -0.00002737
In       1.28484275      -1.33379245       9.09567572       12      -0.00364753      -0.00514270       0.00000483
In      10.19674850      -1.33379245       9.09567572       12      -0.00350049      -0.00486879       0.00010534
In      -1.68579250       7.06843287       9.09567572       12      -0.00354529      -0.00500863       0.00000588
In       7.22611325       7.06843287       9.09567572       12      -0.00354043      -0.00500241      -0.00000271
In       1.68579250       5.10963369       2.06466571       13       0.00357713      -0.00259494       0.00434549
In      10.59769826       5.10963369       2.06466571       13       0.00360704      -0.00234652       0.00434851
In      -1.28484275      13.51185901       2.06466571       13       0.01181178       0.00324879       0.01191057
In       7.62706300      13.51185901       2.06466571       13       0.00321175      -0.00227666       0.00432342
In      -1.28484275       0.90852103       9.34120629       13       0.00354816      -0.00249839       0.00434264
In       7.62706300       0.90852103       9.34120629       13       0.00361602      -0.00250179       0.00435597
In      -4.25547800       9.31074635       9.34120629       13       0.00356489      -0.00249492       0.00429794
In       4.65642775       9.31074635       9.34120629       13       0.00367362      -0.00249310       0.00442560
In       1.48531763       8.40222532      -0.00000000       14      -0.00022427       0.00006716       0.00009373
In      10.39722338       8.40222532      -0.00000000       14      -0.00000004      -0.00000001      -0.00000003
In      -1.48531763      16.80445065      -0.00000000       14       0.00078564      -0.00028507       0.00065152
In       7.42658813      16.80445065      -0.00000000       14       0.00022345       0.00001443      -0.00005872
In      -1.48531762       4.20111266       7.27654058       14      -0.00000004      -0.00000001      -0.00000003
In       7.42658813       4.20111266       7.27654058       14      -0.00022262       0.00006504       0.00009305
In      -4.45595288      12.60333799       7.27654058       14       0.00022068       0.00001705      -0.00006010
In       4.45595288      12.60333799       7.27654058       14       0.00078954      -0.00029759       0.00066592
In       1.48531762       2.10055633       3.63827029       15       0.00021393      -0.00034571      -0.00005200
In      10.39722338       2.10055633       3.63827029       15       0.00079340       0.00082984      -0.00016956
In      -1.48531763      10.50278165       3.63827029       15       0.00078196       0.00080229      -0.00018034
In       7.42658812      10.50278165       3.63827029       15       0.00023044      -0.00036044      -0.00005257
In      -1.48531763      -2.10055633      10.91481087       15       0.00000006       0.00000004      -0.00000005
In       7.42658812      -2.10055633      10.91481087       15      -0.00022316       0.00005551       0.00000143
In      -4.45595288       6.30166899      10.91481087       15      -0.00022354       0.00005528       0.00000183
In       4.45595287       6.30166899      10.91481087       15       0.00000006       0.00000004      -0.00000005
O        0.87432193       4.20174310       3.95985246       16       0.00136466      -0.00887263      -0.00335018
O        9.78622769       4.20174310       3.95985246       16       0.00126303      -0.00876487      -0.00328306
O       -2.09631332      12.60396842       3.95985246       16       0.00116664      -0.01068173      -0.00319948
O        6.81559243      12.60396842       3.95985246       16       0.00044668      -0.00865750      -0.00326560
O       -2.09631332       0.00063044      11.23639304       16       0.00131057      -0.00884102      -0.00332613
O        6.81559243       0.00063044      11.23639304       16       0.00132958      -0.00882980      -0.00329550
O       -5.06694857       8.40285576      11.23639304       16       0.00137000      -0.00881945      -0.00342330
O        3.84495718       8.40285576      11.23639304       16       0.00129412      -0.00888949      -0.00332202
O       -2.09631332       3.42901761       5.29606837       17       0.00126314       0.00150605       0.00937329
O        6.81559244       3.42901761       5.29606837       17       0.00132566       0.00141757       0.00938626
O       -5.06694857      11.83124293       5.29606837       17       0.00111647       0.00152218       0.00948057
O        3.84495718      11.83124293       5.29606837       17       0.00101706       0.00288538       0.00845918
O       -5.06694857      -0.77209505      12.57260895       17       0.00129445       0.00155121       0.00937833
O        3.84495718      -0.77209505      12.57260895       17       0.00132334       0.00151738       0.00935098
O       -8.03758382       7.63013027      12.57260895       17       0.00133277       0.00158641       0.00952636
O        0.87432193       7.63013027      12.57260895       17       0.00117999       0.00147654       0.00942065
O       -0.43590317       2.25493033       0.05310660       18      -0.00649963       0.00705589      -0.00018899
O        8.47600259       2.25493033       0.05310660       18      -0.00651350       0.00694750      -0.00005144
O       -3.40653842      10.65715565       0.05310660       18      -0.00653478       0.00687713      -0.00032047
O        5.50536733      10.65715565       0.05310660       18      -0.00640897       0.00683219      -0.00027940
O       -3.40653842      -1.94618233       7.32964718       18      -0.00660044       0.00696780      -0.00025577
O        5.50536733      -1.94618233       7.32964718       18      -0.00598857       0.00754000      -0.00035663
O       -6.37717367       6.45604299       7.32964718       18      -0.00647096       0.00708642      -0.00016309
O        2.53473208       6.45604299       7.32964718       18      -0.00649437       0.00703653      -0.00017227
O       -0.87432193      -0.77146461       1.97938025       19      -0.00134776      -0.00731130       0.00602550
O        8.03758383      -0.77146461       1.97938025       19       0.00446633      -0.00285703      -0.00119033
O       -3.84495718       7.63076071       1.97938025       19      -0.00124952      -0.00725774       0.00607219
O        5.06694857       7.63076071       1.97938025       19      -0.00132757      -0.00738099       0.00602285
O       -3.84495718      -4.97257727       9.25592083       19      -0.00121740      -0.00732119       0.00602271
O        5.06694857      -4.97257727       9.25592083       19      -0.00133544      -0.00731345       0.00601102
O       -6.81559243       3.42964805       9.25592083       19      -0.00131054      -0.00734828       0.00603018
O        2.09631332       3.42964805       9.25592083       19      -0.00126399      -0.00741046       0.00597060
O        3.93167991       5.00323839       1.92627364       20       0.00099382       0.00724065       0.00615718
O       12.84358567       5.00323839       1.92627364       20       0.00106110       0.00727905       0.00612622
O        0.96104466      13.40546371       1.92627364       20       0.00531108       0.01064271       0.01256213
O        9.87295041      13.40546371       1.92627364       20       0.00096870       0.00722773       0.00625065
O        0.96104466       0.80212573       9.20281422       20       0.00109415       0.00722069       0.00615977
O        9.87295041       0.80212573       9.20281422       20       0.00085461       0.00725143       0.00632759
O       -2.00959059       9.20435105       9.20281422       20       0.00102793       0.00720718       0.00618401
O        6.90231516       9.20435105       9.20281422       20       0.00105873       0.00717752       0.00621525
O        2.00959059       2.93397362       1.65779808       21      -0.00103955      -0.00166288       0.00936137
O       10.92149635       2.93397362       1.65779808       21      -0.00099624      -0.00158677       0.00927128
O       -0.96104466      11.33619894       1.65779808       21      -0.00128651      -0.00243109       0.00951576
O        7.95086109      11.33619894       1.65779808       21      -0.00104949      -0.00170275       0.00942164
O       -0.96104466      -1.26713904       8.93433866       21      -0.00101951      -0.00172378       0.00930567
O        7.95086109      -1.26713904       8.93433866       21      -0.00106415      -0.00161610       0.00948171
O       -3.93167991       7.13508628       8.93433866       21      -0.00102929      -0.00173289       0.00933413
O        4.98022584       7.13508628       8.93433866       21      -0.00101387      -0.00174917       0.00936200
O        2.00959059       6.27037744       0.26847556       22      -0.00103010       0.00896047      -0.00317893
O       10.92149635       6.27037744       0.26847556       22      -0.00101823       0.00894205      -0.00314583
O       -0.96104466      14.67260276       0.26847556       22      -0.00087805       0.00938038      -0.00432846
O        7.95086109      14.67260276       0.26847556       22      -0.00114091       0.00900189      -0.00308485
O       -0.96104466       2.06926478       7.54501614       22      -0.00098067       0.00892568      -0.00319126
O        7.95086109       2.06926478       7.54501614       22      -0.00100003       0.00888741      -0.00317214
O       -3.93167991      10.47149010       7.54501614       22      -0.00111222       0.00897619      -0.00306350
O        4.98022584      10.47149010       7.54501614       22      -0.00108028       0.00879833      -0.00313802
O       -2.27126976       5.96099900       3.69137689       23      -0.00879340       0.00385285      -0.00018693
O        6.64063600       5.96099900       3.69137689       23      -0.00882311       0.00376130      -0.00017501
O       -5.24190501      14.36322432       3.69137689       23      -0.00872838       0.00378392       0.00004373
O        3.67000074      14.36322432       3.69137689       23       0.02771415      -0.00110099       0.00131048
O       -5.24190501       1.75988634      10.96791747       23      -0.00882625       0.00375282      -0.00017957
O        3.67000074       1.75988634      10.96791747       23      -0.00877943       0.00371640      -0.00027869
O       -8.21254026      10.16211166      10.96791747       23      -0.00879203       0.00370357      -0.00005772
O        0.69936549      10.16211166      10.96791747       23      -0.00881269       0.00374860      -0.00014522
O        3.40653842       1.94618233       7.22343397       24       0.00655795      -0.00724882       0.00007994
O       12.31844418       1.94618233       7.22343397       24       0.00643210      -0.00721008       0.00003431
O        0.43590317      10.34840765       7.22343397       24       0.00645403      -0.00713673       0.00030370
O        9.34780892      10.34840765       7.22343397       24       0.00646712      -0.00702786       0.00016698
O        0.43590317      -2.25493033      14.49997455       24       0.00647192      -0.00704692       0.00018439
O        9.34780892      -2.25493033      14.49997455       24       0.00649534      -0.00699755       0.00019302
O       -2.53473208       6.14729499      14.49997455       24       0.00700011      -0.00654613       0.00000619
O        6.37717367       6.14729499      14.49997455       24       0.00636688      -0.00711577       0.00010246
O        5.24190501      -1.75988634       3.58516368       25       0.04160961      -0.00797786       0.00155446
O       14.15381077      -1.75988634       3.58516368       25       0.00887084      -0.00374509       0.00040292
O        2.27126976       6.64233898       3.58516368       25       0.00877624      -0.00376848       0.00018104
O       11.18317551       6.64233898       3.58516368       25       0.00880690      -0.00367733       0.00016911
O        2.27126976      -5.96099900      10.86170426       25       0.00878824      -0.00378185       0.00021105
O       11.18317551      -5.96099900      10.86170426       25       0.00880824      -0.00382654       0.00029813
O       -0.69936549       2.44122632      10.86170426       25       0.00882073      -0.00381360       0.00007795
O        8.21254026       2.44122632      10.86170426       25       0.00877361      -0.00377736       0.00017704
O        6.37717367       3.27401317       1.71199664       26       0.00641498       0.00312669      -0.00608644
O       15.28907943       3.27401317       1.71199664       26       0.00646163       0.00338308      -0.00621063
O        3.40653842      11.67623849       1.71199664       26       0.00670105       0.00446165      -0.00503074
O       12.31844417      11.67623849       1.71199664       26       0.00632410       0.00328148      -0.00627510
O        3.40653842      -0.92709949       8.98853722       26       0.00656744       0.00334896      -0.00645351
O       12.31844417      -0.92709949       8.98853722       26       0.00643949       0.00327468      -0.00630322
O        0.43590317       7.47512583       8.98853722       26       0.00648022       0.00335321      -0.00618498
O        9.34780892       7.47512583       8.98853722       26       0.00648173       0.00336676      -0.00618417
O        3.67000074       2.31688300       3.90674585       27      -0.00885231      -0.00148590      -0.00326254
O       12.58190650       2.31688300       3.90674585       27      -0.00849185      -0.00183323      -0.00322835
O        0.69936549      10.71910832       3.90674585       27      -0.00877275      -0.00251396      -0.00324728
O        9.61127124      10.71910832       3.90674585       27      -0.00878557      -0.00207971      -0.00315633
O        0.69936549      -1.88422966      11.18328643       27      -0.00881351      -0.00202108      -0.00314435
O        9.61127124      -1.88422966      11.18328643       27      -0.00885268      -0.00205352      -0.00327560
O       -2.27126976       6.51799566      11.18328643       27      -0.00875900      -0.00204287      -0.00297089
O        6.64063599       6.51799566      11.18328643       27      -0.00880289      -0.00203992      -0.00321967
O        0.69936549       4.32545599       6.95495841       28      -0.00879298      -0.00173093       0.00336214
O        9.61127125       4.32545599       6.95495841       28      -0.00884013      -0.00178431       0.00332334
O       -2.27126976      12.72768131       6.95495841       28      -0.00920839      -0.00247439       0.00427079
O        6.64063599      12.72768131       6.95495841       28      -0.00863795      -0.00173285       0.00327593
O       -2.27126976       0.12434333      14.23149899       28      -0.00881649      -0.00163464       0.00342998
O        6.64063599       0.12434333      14.23149899       28      -0.00878180      -0.00174268       0.00334800
O       -5.24190501       8.52656865      14.23149899       28      -0.00859772      -0.00157737       0.00324588
O        3.67000074       8.52656865      14.23149899       28      -0.00877628      -0.00168910       0.00327639
O        2.27126976      -0.12434332       0.32158217       29       0.00896300       0.00172323      -0.00342221
O       11.18317552      -0.12434332       0.32158217       29       0.00835549       0.00094317      -0.00238105
O       -0.69936549       8.27788200       0.32158217       29       0.00876018       0.00167232      -0.00337610
O        8.21254026       8.27788200       0.32158217       29       0.00880701       0.00172602      -0.00333686
O       -0.69936549      -4.32545598       7.59812275       29       0.00882214       0.00176626      -0.00342303
O        8.21254026      -4.32545598       7.59812275       29       0.00902134       0.00187850      -0.00344355
O       -3.67000074       4.07676934       7.59812275       29       0.00881879       0.00171386      -0.00335154
O        5.24190501       4.07676934       7.59812275       29       0.00878322       0.00182409      -0.00326882
O       -3.40653842       0.92709950       5.56454393       30      -0.00664553      -0.00345494       0.00609843
O        5.50536734       0.92709950       5.56454393       30      -0.00625017      -0.00231221       0.00731526
O       -6.37717367       9.32932482       5.56454393       30      -0.00650432      -0.00334944       0.00616419
O        2.53473208       9.32932482       5.56454393       30      -0.00655121      -0.00360816       0.00628737
O       -6.37717367      -3.27401316      12.84108451       30      -0.00648474      -0.00336673       0.00619062
O        2.53473208      -3.27401316      12.84108451       30      -0.00648622      -0.00338023       0.00618992
O       -9.34780892       5.12821216      12.84108451       30      -0.00652766      -0.00345930       0.00607336
O       -0.43590317       5.12821216      12.84108451       30      -0.00639980      -0.00338619       0.00591788
O        5.06694857       0.77209506       1.98047220       31      -0.00157066      -0.00018926      -0.01025928
O       13.97885433       0.77209506       1.98047220       31      -0.00149172      -0.00154984      -0.00923674