320
Lattice="17.82381151134451 1.396980435227381e-09 -1.0201877723356966e-15 -5.941270505098593 16.804450647884405 -2.419643708114923e-09 -5.941270503122966 -8.402225322545233 14.55308115932287" Properties=species:S:1:pos:R:3:spacegroup_kinds:I:1:forces:R:3 spacegroup="P 1" unit_cell=conventional occupancy="_JSON {\"0\": {\"In\": 1}, \"1\": {\"In\": 1}, \"2\": {\"In\": 1}, \"3\": {\"In\": 1}, \"4\": {\"In\": 1}, \"5\": {\"In\": 1}, \"6\": {\"In\": 1}, \"7\": {\"In\": 1}, \"8\": {\"In\": 1}, \"9\": {\"In\": 1}, \"10\": {\"In\": 1}, \"11\": {\"In\": 1}, \"12\": {\"In\": 1}, \"13\": {\"In\": 1}, \"14\": {\"In\": 1}, \"15\": {\"In\": 1}, \"16\": {\"O\": 1}, \"17\": {\"O\": 1}, \"18\": {\"O\": 1}, \"19\": {\"O\": 1}, \"20\": {\"O\": 1}, \"21\": {\"O\": 1}, \"22\": {\"O\": 1}, \"23\": {\"O\": 1}, \"24\": {\"O\": 1}, \"25\": {\"O\": 1}, \"26\": {\"O\": 1}, \"27\": {\"O\": 1}, \"28\": {\"O\": 1}, \"29\": {\"O\": 1}, \"30\": {\"O\": 1}, \"31\": {\"O\": 1}, \"32\": {\"O\": 1}, \"33\": {\"O\": 1}, \"34\": {\"O\": 1}, \"35\": {\"O\": 1}, \"36\": {\"O\": 1}, \"37\": {\"O\": 1}, \"38\": {\"O\": 1}, \"39\": {\"O\": 1}}" n_minim_iter=5 energy=-361215.2617087902 stress="0.0001263459954301319 -8.003121906100036e-06 -7.566730939137195e-06 -8.003121906100036e-06 0.0001336169941380345 3.5551553782751307e-06 -7.566730939137195e-06 3.5551553782751307e-06 0.00012000655323879255" free_energy=-45151.90777701582 pbc="T T T"
In      -4.25547801       3.00907736       5.70293600        0       0.00400933      -0.00258916       0.00409916
In       4.65642775       3.00907736       5.70293600        0       0.00380356      -0.00188865       0.00512572
In      -7.22611326      11.41130268       5.70293600        0       0.00350889      -0.00251957       0.00433396
In       1.68579249      11.41130268       5.70293600        0       0.00349042      -0.00265705       0.00436004
In      -7.22611326      -1.19203530      12.97947658        0       0.00357418      -0.00248825       0.00402478
In       1.68579249      -1.19203530      12.97947658        0       0.00353833      -0.00251040       0.00432521
In     -10.19674851       7.21019002      12.97947658        0       0.00351196      -0.00260210       0.00424030
In      -1.28484276       7.21019002      12.97947658        0       0.00354469      -0.00250020       0.00434343
In       7.22611326       1.19203531       1.57360457        1      -0.00337290       0.00255818      -0.00442213
In      16.13801902       1.19203531       1.57360457        1      -0.00440453       0.00221039      -0.00549043
In       4.25547801       9.59426063       1.57360457        1      -0.00340402       0.00254602      -0.00438100
In      13.16738376       9.59426063       1.57360457        1      -0.00353402       0.00246783      -0.00423525
In       4.25547801      -3.00907735       8.85014515        1      -0.00354141       0.00250973      -0.00432199
In      13.16738376      -3.00907735       8.85014515        1      -0.00356912       0.00247510      -0.00430094
In       1.28484276       5.39314797       8.85014515        1      -0.00318172       0.00259578      -0.00460664
In      10.19674851       5.39314797       8.85014515        1      -0.00354088       0.00251165      -0.00432782
In       1.28484275      -0.90852102       5.21187486        2      -0.00375514       0.00109200      -0.00403540
In      10.19674851      -0.90852102       5.21187486        2      -0.00351295       0.00251275      -0.00433251
In      -1.68579250       7.49370430       5.21187486        2      -0.00288571       0.00191791      -0.00441744
In       7.22611325       7.49370430       5.21187486        2      -0.00364981       0.00252537      -0.00432498
In      -1.68579250      -5.10963368      12.48841544        2      -0.00349313       0.00239306      -0.00435690
In       7.22611325      -5.10963368      12.48841544        2      -0.00356596       0.00249580      -0.00434806
In      -4.65642775       3.29259164      12.48841544        2      -0.00350452       0.00252532      -0.00434693
In       4.25547800       3.29259164      12.48841544        2      -0.00356054       0.00251048      -0.00433128
In       7.42658813      -2.10055633       3.63827029        3      -0.00001892       0.00002369      -0.00000503
In      16.33849388      -2.10055633       3.63827029        3       0.00011431       0.00030011       0.00004569
In       4.45595287       6.30166899       3.63827029        3      -0.00164355       0.00049615       0.00002191
In      13.36785863       6.30166900       3.63827029        3       0.00049938      -0.00017033      -0.00000707
In       4.45595287      -6.30166899      10.91481087        3       0.00002824      -0.00000757      -0.00003006
In      13.36785863      -6.30166899      10.91481087        3       0.00003244      -0.00002598       0.00003928
In       1.48531762       2.10055633      10.91481087        3       0.00002860       0.00005675       0.00012511
In      10.39722338       2.10055633      10.91481087        3      -0.00001233       0.00003069      -0.00005897
In      -1.28484276       4.05935552       3.39273971        4      -0.00465554       0.00096137      -0.00440497
In       7.62706300       4.05935552       3.39273971        4       0.00345347      -0.00260853      -0.00433485
In      -4.25547801      12.46158084       3.39273971        4       0.00355725      -0.00238530      -0.00432569
In       4.65642774      12.46158084       3.39273971        4       0.00367928      -0.00239491      -0.00435076
In      -4.25547801      -0.14175714      10.66928029        4       0.00353228      -0.00246594      -0.00434256
In       4.65642774      -0.14175714      10.66928029        4       0.00352220      -0.00251095      -0.00432437
In      -7.22611326       8.26046818      10.66928029        4       0.00353066      -0.00249137      -0.00431558
In       1.68579249       8.26046818      10.66928029        4       0.00351070      -0.00254430      -0.00451267
In       4.65642775      -2.86732021       5.45740543        5       0.00365561       0.00488920       0.00004200
In      13.56833351      -2.86732021       5.45740543        5       0.00355251       0.00505081       0.00003733
In       1.68579250       5.53490511       5.45740543        5       0.01115466       0.02214133       0.01635187
In      10.59769825       5.53490511       5.45740543        5       0.00358077       0.00500103      -0.00002348
In       1.68579250      -7.06843287      12.73394601        5       0.00345051       0.00503331       0.00009683
In      10.59769825      -7.06843287      12.73394601        5       0.00350923       0.00490544      -0.00011633
In      -1.28484275       1.33379245      12.73394601        5       0.00351706       0.00499951      -0.00003370
In       7.62706300       1.33379245      12.73394601        5       0.00342697       0.00509818      -0.00012058
In      -1.28484276       1.33379245       5.45740543        6       0.00226512       0.00489708       0.00124567
In       7.62706300       1.33379245       5.45740543        6       0.00361950       0.00503885       0.00002306
In      -4.25547801       9.73601777       5.45740543        6       0.00380643       0.00479319      -0.00012493
In       4.65642774       9.73601777       5.45740543        6       0.00359283       0.00507197       0.00005352
In      -4.25547801      -2.86732021      12.73394601        6       0.00361221       0.00512498       0.00012382
In       4.65642774      -2.86732021      12.73394601        6       0.00356954       0.00500946       0.00000871
In      -7.22611326       5.53490511      12.73394601        6       0.00349470       0.00499127       0.00000188
In       1.68579249       5.53490511      12.73394601        6       0.00353094       0.00498880      -0.00004019
In      -1.68579250       7.06843288       1.81913514        7      -0.00289467      -0.00505955       0.00047745
In       7.22611326       7.06843288       1.81913514        7      -0.00365010      -0.00499033      -0.00000219
In      -4.65642775      15.47065820       1.81913514        7      -0.00377941      -0.00577393      -0.00045474
In       4.25547800      15.47065820       1.81913514        7      -0.00350878      -0.00501637       0.00000008
In      -4.65642775       2.86732022       9.09567572        7      -0.00357457      -0.00498593       0.00000120
In       4.25547800       2.86732022       9.09567572        7      -0.00352568      -0.00488830       0.00012242
In      -7.62706300      11.26954554       9.09567572        7      -0.00353497      -0.00499787      -0.00004067
In       1.28484275      11.26954554       9.09567572        7      -0.00358538      -0.00491210       0.00008115
In       4.25547800       0.14175714       3.88380086        8      -0.00212951       0.00094166       0.00451817
In      13.16738376       0.14175714       3.88380086        8      -0.00353551       0.00243175       0.00439520
In       1.28484275       8.54398246       3.88380086        8      -0.00305578       0.00151224       0.00437923
In      10.19674850       8.54398246       3.88380086        8      -0.00355977       0.00248933       0.00433885
In       1.28484275      -4.05935552      11.16034144        8      -0.00351851       0.00252309       0.00431456
In      10.19674850      -4.05935552      11.16034144        8      -0.00349646       0.00255191       0.00437231
In      -1.68579250       4.34286980      11.16034144        8      -0.00354047       0.00253498       0.00433935
In       7.22611325       4.34286980      11.16034144        8      -0.00355262       0.00249066       0.00429029
In       7.42658813       4.20111266      -0.00000000        9       0.00001144      -0.00001366      -0.00003571
In      16.33849388       4.20111266      -0.00000000        9       0.00084565       0.00052321       0.00130567
In       4.45595287      12.60333798      -0.00000000        9       0.00003729       0.00003239      -0.00002727
In      13.36785863      12.60333799      -0.00000000        9      -0.00000507       0.00002210      -0.00001188
In       4.45595287      -0.00000000       7.27654058        9      -0.00003323       0.00015968      -0.00010192
In      13.36785863       0.00000000       7.27654058        9      -0.00003863      -0.00005676       0.00000368
In       1.48531762       8.40222532       7.27654058        9      -0.00024298      -0.00054894      -0.00034312
In      10.39722338       8.40222532       7.27654058        9      -0.00001869       0.00000090       0.00000060
In       4.25547800       6.44342614       0.24553057       10      -0.00382240       0.00231864       0.00431724
In      13.16738376       6.44342614       0.24553057       10      -0.00376330       0.00240090       0.00429660
In       1.28484275      14.84565146       0.24553057       10      -0.00350800       0.00249439       0.00433837
In      10.19674850      14.84565146       0.24553057       10      -0.00355979       0.00249657       0.00428296
In       1.28484275       2.24231348       7.52207115       10      -0.00340496       0.00320404       0.00564913
In      10.19674850       2.24231348       7.52207115       10      -0.00353525       0.00249411       0.00433082
In      -1.68579250      10.64453880       7.52207115       10      -0.00341022       0.00242967       0.00432013
In       7.22611325      10.64453880       7.52207115       10      -0.00358109       0.00250860       0.00432420
In      -1.28484275      -2.24231347       7.03101001       11       0.00344311      -0.00260892      -0.00422503
In       7.62706301      -2.24231347       7.03101001       11       0.00356879      -0.00254659      -0.00431410
In      -4.25547800       6.15991185       7.03101001       11       0.00353259      -0.00250643      -0.00424342
In       4.65642775       6.15991185       7.03101001       11       0.00327021      -0.00250680      -0.00408575
In      -4.25547800      -6.44342613      14.30755059       11       0.00364659      -0.00319186      -0.00579745
In       4.65642775      -6.44342613      14.30755059       11       0.00353610      -0.00249850      -0.00433466
In      -7.22611325       1.95879919      14.30755059       11       0.00356428      -0.00254259      -0.00431877
In       1.68579250       1.95879919      14.30755059       11       0.00354949      -0.00249657      -0.00433144
In       4.25547800       2.86732021       1.81913514       12      -0.00272286      -0.00465293      -0.00045206
In      13.16738376       2.86732021       1.81913514       12      -0.00331522      -0.00493265       0.00005481
In       1.28484275      11.26954553       1.81913514       12      -0.00359302      -0.00496118      -0.00002032
In      10.19674850      11.26954553       1.81913514       12      -0.00353386      -0.00499031       0.00000025
In       1.28484275      -1.33379245       9.09567572       12      -0.00353027      -0.00513201       0.00018091
In      10.19674850      -1.33379245       9.09567572       12      -0.00354980      -0.00500468       0.00001499
In      -1.68579250       7.06843287       9.09567572       12      -0.00365424      -0.00497684       0.00011004
In       7.22611325       7.06843287       9.09567572       12      -0.00352281      -0.00501630       0.00002400
In       1.68579250       5.10963369       2.06466571       13       0.00443323       0.00382806       0.00048307
In      10.59769826       5.10963369       2.06466571       13       0.00359415      -0.00248582       0.00433621
In      -1.28484275      13.51185901       2.06466571       13       0.00345968      -0.00236294       0.00433936
In       7.62706300      13.51185901       2.06466571       13       0.00358890      -0.00245765       0.00428198
In      -1.28484275       0.90852103       9.34120629       13       0.00364763      -0.00261237       0.00427099
In       7.62706300       0.90852103       9.34120629       13       0.00349868      -0.00246692       0.00427311
In      -4.25547800       9.31074635       9.34120629       13       0.00349062      -0.00247564       0.00442767
In       4.65642775       9.31074635       9.34120629       13       0.00355251      -0.00249820       0.00435994
In       1.48531763       8.40222532      -0.00000000       14       0.00002738      -0.00003258      -0.00026414
In      10.39722338       8.40222532      -0.00000000       14       0.00001562      -0.00000895      -0.00000492
In      -1.48531763      16.80445065      -0.00000000       14      -0.00016489       0.00026369       0.00020107
In       7.42658813      16.80445065      -0.00000000       14       0.00002008      -0.00004890      -0.00000710
In      -1.48531762       4.20111266       7.27654058       14       0.00018703       0.00009923      -0.00055854
In       7.42658813       4.20111266       7.27654058       14      -0.00003148       0.00003297       0.00003608
In      -4.45595288      12.60333799       7.27654058       14      -0.00002063       0.00000753      -0.00000734
In       4.45595288      12.60333799       7.27654058       14       0.00000803      -0.00000088       0.00002064
In       1.48531762       2.10055633       3.63827029       15      -0.00930615       0.03141767       0.00483477
In      10.39722338       2.10055633       3.63827029       15       0.00001479      -0.00002269       0.00000668
In      -1.48531763      10.50278165       3.63827029       15       0.00000201       0.00007180      -0.00004138
In       7.42658812      10.50278165       3.63827029       15      -0.00002487       0.00001308       0.00001320
In      -1.48531763      -2.10055633      10.91481087       15       0.00002450      -0.00000458      -0.00003283
In       7.42658812      -2.10055633      10.91481087       15      -0.00001033       0.00000348      -0.00001555
In      -4.45595288       6.30166899      10.91481087       15      -0.00000416       0.00000695       0.00000465
In       4.45595287       6.30166899      10.91481087       15       0.00003992      -0.00001068       0.00004441
O        0.87098860       4.21117119       3.95985246       16       0.00824447      -0.09476372      -0.02000287
O        9.78622769       4.20174310       3.95985246       16       0.00127647      -0.00887499      -0.00334418
O       -2.09631332      12.60396842       3.95985246       16       0.00121898      -0.00861207      -0.00330976
O        6.81559243      12.60396842       3.95985246       16       0.00125481      -0.00893704      -0.00334340
O       -2.09631332       0.00063044      11.23639304       16       0.00132297      -0.00883401      -0.00339707
O        6.81559243       0.00063044      11.23639304       16       0.00130887      -0.00885813      -0.00334399
O       -5.06694857       8.40285576      11.23639304       16       0.00130006      -0.00886157      -0.00336285
O        3.84495718       8.40285576      11.23639304       16       0.00136849      -0.00886087      -0.00328961
O       -2.09631332       3.42901761       5.29606837       17       0.00077295       0.00126968       0.01001167
O        6.81559244       3.42901761       5.29606837       17       0.00101818       0.00141437       0.00940289
O       -5.06694857      11.83124293       5.29606837       17       0.00129078       0.00158176       0.00933714
O        3.84495718      11.83124293       5.29606837       17       0.00123206       0.00147658       0.00934474
O       -5.06694857      -0.77209505      12.57260895       17       0.00125606       0.00144067       0.00940074
O        3.84495718      -0.77209505      12.57260895       17       0.00130662       0.00152879       0.00936442
O       -8.03758382       7.63013027      12.57260895       17       0.00126793       0.00155888       0.00940017
O        0.87432193       7.63013027      12.57260895       17       0.00129813       0.00158549       0.00941724
O       -0.43590317       2.25493033       0.05310660       18      -0.00625384       0.00731328       0.00100658
O        8.47600259       2.25493033       0.05310660       18      -0.00654885       0.00703746      -0.00013585
O       -3.40653842      10.65715565       0.05310660       18      -0.00652913       0.00712935      -0.00017465
O        5.50536733      10.65715565       0.05310660       18      -0.00641126       0.00709410      -0.00022096
O       -3.40653842      -1.94618233       7.32964718       18      -0.00643666       0.00709599      -0.00020726
O        5.50536733      -1.94618233       7.32964718       18      -0.00651736       0.00708140      -0.00031499
O       -6.37717367       6.45604299       7.32964718       18      -0.00651865       0.00701962      -0.00014838
O        2.53473208       6.45604299       7.32964718       18      -0.00690440       0.00685181      -0.00092765
O       -0.87432193      -0.77146461       1.97938025       19      -0.00172608      -0.00748312       0.00599983
O        8.03758383      -0.77146461       1.97938025       19      -0.00135971      -0.00733276       0.00604613
O       -3.84495718       7.63076071       1.97938025       19      -0.00132043      -0.00711252       0.00596176
O        5.06694857       7.63076071       1.97938025       19      -0.00119068      -0.00745159       0.00601227
O       -3.84495718      -4.97257727       9.25592083       19      -0.00131403      -0.00734967       0.00604728
O        5.06694857      -4.97257727       9.25592083       19      -0.00133680      -0.00730781       0.00601130
O       -6.81559243       3.42964805       9.25592083       19      -0.00130919      -0.00733466       0.00601420
O        2.09631332       3.42964805       9.25592083       19      -0.00124570      -0.00716471       0.00609884
O        3.93167991       5.00323839       1.92627364       20       0.00092546       0.00705364       0.00628605
O       12.84358567       5.00323839       1.92627364       20       0.00096062       0.00720890       0.00611639
O        0.96104466      13.40546371       1.92627364       20       0.00099408       0.00743834       0.00622723
O        9.87295041      13.40546371       1.92627364       20       0.00107045       0.00721356       0.00627146
O        0.96104466       0.80212573       9.20281422       20       0.00106822       0.00729332       0.00602758
O        9.87295041       0.80212573       9.20281422       20       0.00101517       0.00723270       0.00619299
O       -2.00959059       9.20435105       9.20281422       20       0.00105082       0.00709866       0.00600958
O        6.90231516       9.20435105       9.20281422       20       0.00104998       0.00730014       0.00628451
O        2.00959059       2.93397362       1.65779808       21      -0.00554826       0.00142690       0.02046788
O       10.92149635       2.93397362       1.65779808       21      -0.00101823      -0.00175093       0.00936545
O       -0.96104466      11.33619894       1.65779808       21      -0.00097919      -0.00198595       0.00948180
O        7.95086109      11.33619894       1.65779808       21      -0.00100626      -0.00172462       0.00936226
O       -0.96104466      -1.26713904       8.93433866       21      -0.00110452      -0.00188914       0.00947839
O        7.95086109      -1.26713904       8.93433866       21      -0.00100671      -0.00174278       0.00934984
O       -3.93167991       7.13508628       8.93433866       21      -0.00099861      -0.00175895       0.00932655
O        4.98022584       7.13508628       8.93433866       21      -0.00110548      -0.00183647       0.00929184
O        2.00959059       6.27037744       0.26847556       22      -0.00102791       0.00891733      -0.00287450
O       10.92149635       6.27037744       0.26847556       22      -0.00110281       0.00897088      -0.00318353
O       -0.96104466      14.67260276       0.26847556       22      -0.00098936       0.00903492      -0.00312692
O        7.95086109      14.67260276       0.26847556       22      -0.00094746       0.00901726      -0.00315614
O       -0.96104466       2.06926478       7.54501614       22      -0.00069304       0.00927931      -0.00362709
O        7.95086109       2.06926478       7.54501614       22      -0.00110239       0.00898196      -0.00323077
O       -3.93167991      10.47149010       7.54501614       22      -0.00110167       0.00904766      -0.00307747
O        4.98022584      10.47149010       7.54501614       22      -0.00098536       0.00897643      -0.00317872
O       -2.27126976       5.96099900       3.69137689       23      -0.00987687       0.00555666       0.00017196
O        6.64063600       5.96099900       3.69137689       23      -0.00897098       0.00377558      -0.00018467
O       -5.24190501      14.36322432       3.69137689       23      -0.00888693       0.00343335      -0.00025848
O        3.67000074      14.36322432       3.69137689       23      -0.00879963       0.00372962      -0.00018079
O       -5.24190501       1.75988634      10.96791747       23      -0.00873144       0.00377060      -0.00019355
O        3.67000074       1.75988634      10.96791747       23      -0.00881567       0.00378567      -0.00013725
O       -8.21254026      10.16211166      10.96791747       23      -0.00879393       0.00376166      -0.00020508
O        0.69936549      10.16211166      10.96791747       23      -0.00880177       0.00379532      -0.00014534
O        3.40653842       1.94618233       7.22343397       24       0.00648103      -0.00743812       0.00007124
O       12.31844418       1.94618233       7.22343397       24       0.00646231      -0.00706482       0.00019821
O        0.43590317      10.34840765       7.22343397       24       0.00650573      -0.00686208       0.00033223
O        9.34780892      10.34840765       7.22343397       24       0.00650524      -0.00702790       0.00018906
O        0.43590317      -2.25493033      14.49997455       24       0.00643721      -0.00709372       0.00021224
O        9.34780892      -2.25493033      14.49997455       24       0.00585582      -0.00705271      -0.00023383
O       -2.53473208       6.14729499      14.49997455       24       0.00646742      -0.00701637       0.00018857
O        6.37717367       6.14729499      14.49997455       24       0.00654788      -0.00705303       0.00022136
O        5.24190501      -1.75988634       3.58516368       25       0.00889842      -0.00395398       0.00013039
O       14.15381077      -1.75988634       3.58516368       25       0.00885350      -0.00380350       0.00021474
O        2.27126976       6.64233898       3.58516368       25       0.01893273       0.00747698      -0.00151361
O       11.18317551       6.64233898       3.58516368       25       0.00875196      -0.00379907       0.00018467
O        2.27126976      -5.96099900      10.86170426       25       0.00879409      -0.00376919       0.00017916
O       11.18317551      -5.96099900      10.86170426       25       0.00882806      -0.00375969       0.00013411
O       -0.69936549       2.44122632      10.86170426       25       0.00882004      -0.00376831       0.00024274
O        8.21254026       2.44122632      10.86170426       25       0.00879239      -0.00375244       0.00016642
O        6.37717367       3.27401317       1.71199664       26       0.00641985       0.00323610      -0.00611570
O       15.28907943       3.27401317       1.71199664       26       0.00666083       0.00284971      -0.00669558
O        3.40653842      11.67623849       1.71199664       26       0.00642906       0.00330322      -0.00618692
O       12.31844417      11.67623849       1.71199664       26       0.00645798       0.00345608      -0.00617216
O        3.40653842      -0.92709949       8.98853722       26       0.00651259       0.00324881      -0.00606892
O       12.31844417      -0.92709949       8.98853722       26       0.00648621       0.00338566      -0.00620091
O        0.43590317       7.47512583       8.98853722       26       0.00652170       0.00349229      -0.00592059
O        9.34780892       7.47512583       8.98853722       26       0.00650058       0.00337427      -0.00618305
O        3.67000074       2.31688300       3.90674585       27      -0.01391647      -0.00006958      -0.00309830
O       12.58190650       2.31688300       3.90674585       27      -0.00891336      -0.00205771      -0.00317086
O        0.69936549      10.71910832       3.90674585       27      -0.00900893      -0.00229627      -0.00327168
O        9.61127124      10.71910832       3.90674585       27      -0.00880793      -0.00205092      -0.00316807
O        0.69936549      -1.88422966      11.18328643       27      -0.00879440      -0.00203539      -0.00317441
O        9.61127124      -1.88422966      11.18328643       27      -0.00881414      -0.00206059      -0.00321472
O       -2.27126976       6.51799566      11.18328643       27      -0.00882398      -0.00202184      -0.00321864
O        6.64063599       6.51799566      11.18328643       27      -0.00873931      -0.00201112      -0.00311230
O        0.69936549       4.32545599       6.95495841       28      -0.00954508      -0.00386238       0.00450495
O        9.61127125       4.32545599       6.95495841       28      -0.00884934      -0.00171590       0.00334166
O       -2.27126976      12.72768131       6.95495841       28      -0.00884876      -0.00165491       0.00329444
O        6.64063599      12.72768131       6.95495841       28      -0.00880322      -0.00175147       0.00334877
O       -2.27126976       0.12434333      14.23149899       28      -0.00879186      -0.00175098       0.00341297
O        6.64063599       0.12434333      14.23149899       28      -0.00881950      -0.00171544       0.00333696
O       -5.24190501       8.52656865      14.23149899       28      -0.00878004      -0.00174636       0.00333809
O        3.67000074       8.52656865      14.23149899       28      -0.00879018      -0.00173510       0.00342497
O        2.27126976      -0.12434332       0.32158217       29       0.00881980       0.00185725      -0.00388682
O       11.18317552      -0.12434332       0.32158217       29       0.00882619       0.00173451      -0.00333977
O       -0.69936549       8.27788200       0.32158217       29       0.00883308       0.00198475      -0.00296394
O        8.21254026       8.27788200       0.32158217       29       0.00880907       0.00172975      -0.00335209
O       -0.69936549      -4.32545598       7.59812275       29       0.00882550       0.00179222      -0.00341182
O        8.21254026      -4.32545598       7.59812275       29       0.00880960       0.00178515      -0.00332408
O       -3.67000074       4.07676934       7.59812275       29       0.00882098       0.00181951      -0.00350949
O        5.24190501       4.07676934       7.59812275       29       0.00883922       0.00182784      -0.00319865
O       -3.40653842       0.92709950       5.56454393       30      -0.00669912      -0.00344699       0.00597937
O        5.50536734       0.92709950       5.56454393       30      -0.00633726      -0.00334833       0.00607793
O       -6.37717367       9.32932482       5.56454393       30      -0.00652453      -0.00331619       0.00619094
O        2.53473208       9.32932482       5.56454393       30      -0.00610765      -0.00312532       0.00640569
O       -6.37717367      -3.27401316      12.84108451       30      -0.00639490      -0.00334209       0.00606098
O        2.53473208      -3.27401316      12.84108451       30      -0.00645879      -0.00335784       0.00617710
O       -9.34780892       5.12821216      12.84108451       30      -0.00646964      -0.00336285       0.00617022
O       -0.43590317       5.12821216      12.84108451       30      -0.00647357      -0.00336943       0.00618089
O        5.06694857       0.77209506       1.98047220       31      -0.00102978      -0.00134134      -0.00959478
O       13.97885433       0.77209506       1.98047220       31      -0.00105879      -0.00156843      -0.00927077