320
Lattice="17.82277229767026 1.3968990124634205e-09 -1.3016760742157139e-15 -5.940924100540427 16.803470867836204 -2.419501786820327e-09 -5.940924098564913 -8.401735432521198 14.55223264491091" Properties=species:S:1:pos:R:3:spacegroup_kinds:I:1:forces:R:3 spacegroup="P 1" unit_cell=conventional occupancy="_JSON {\"0\": {\"In\": 1}, \"1\": {\"In\": 1}, \"2\": {\"In\": 1}, \"3\": {\"In\": 1}, \"4\": {\"In\": 1}, \"5\": {\"In\": 1}, \"6\": {\"In\": 1}, \"7\": {\"In\": 1}, \"8\": {\"In\": 1}, \"9\": {\"In\": 1}, \"10\": {\"In\": 1}, \"11\": {\"In\": 1}, \"12\": {\"In\": 1}, \"13\": {\"In\": 1}, \"14\": {\"In\": 1}, \"15\": {\"In\": 1}, \"16\": {\"O\": 1}, \"17\": {\"O\": 1}, \"18\": {\"O\": 1}, \"19\": {\"O\": 1}, \"20\": {\"O\": 1}, \"21\": {\"O\": 1}, \"22\": {\"O\": 1}, \"23\": {\"O\": 1}, \"24\": {\"O\": 1}, \"25\": {\"O\": 1}, \"26\": {\"O\": 1}, \"27\": {\"O\": 1}, \"28\": {\"O\": 1}, \"29\": {\"O\": 1}, \"30\": {\"O\": 1}, \"31\": {\"O\": 1}, \"32\": {\"O\": 1}, \"33\": {\"O\": 1}, \"34\": {\"O\": 1}, \"35\": {\"O\": 1}, \"36\": {\"O\": 1}, \"37\": {\"O\": 1}, \"38\": {\"O\": 1}, \"39\": {\"O\": 1}}" n_minim_iter=5 energy=-361215.27565242053 stress="-3.782596137532858e-05 3.4557880304395524e-07 1.2547485228099778e-08 3.4557880304395524e-07 -3.629907394290289e-05 4.5814896076635084e-08 1.2547485228099778e-08 4.5814896076635084e-08 -3.627697194802245e-05" free_energy=-45151.909527623415 pbc="T T T"
In      -4.25505494       3.00877820       5.70281776        0       0.00129269      -0.00080902       0.00148310
In       4.65633121       3.00877820       5.70281776        0      -0.00007057       0.00028382       0.00132031
In      -7.22551699      11.41051363       5.70281776        0       0.00125309      -0.00066047       0.00141513
In       1.68586916      11.41051363       5.70281776        0       0.00116176      -0.00106806       0.00136424
In      -7.22551699      -1.19208952      12.97893408        0       0.00122356      -0.00092023       0.00154538
In       1.68586916      -1.19208952      12.97893408        0       0.00105425      -0.00092087       0.00073057
In     -10.19597904       7.20964592      12.97893408        0       0.00119289      -0.00080761       0.00147302
In      -1.28459289       7.20964592      12.97893408        0       0.00117485      -0.00082791       0.00144581
In       7.22551699       1.19208952       1.57329855        1      -0.00119412       0.00058948      -0.00153284
In      16.13690314       1.19208952       1.57329855        1      -0.00110625       0.00100482      -0.00147337
In       4.25505494       9.59382495       1.57329855        1      -0.00242727       0.00193227      -0.00155232
In      13.16644109       9.59382495       1.57329855        1      -0.00106549       0.00085863      -0.00140533
In       4.25505494      -3.00877820       8.84941487        1      -0.00118368       0.00083970      -0.00144281
In      13.16644109      -3.00877820       8.84941487        1      -0.00116569       0.00085890      -0.00141623
In       1.28459289       5.39295724       8.84941487        1      -0.00130687       0.00074692      -0.00213592
In      10.19597904       5.39295724       8.84941487        1      -0.00113581       0.00074656      -0.00134222
In       1.28459289      -0.90834434       5.21135671        2      -0.00110219       0.00102005      -0.00147755
In      10.19597904      -0.90834434       5.21135671        2      -0.00117591       0.00078359      -0.00143573
In      -1.68586916       7.49339109       5.21135671        2      -0.00140562       0.00093177      -0.00149445
In       7.22551699       7.49339109       5.21135671        2       0.00564004       0.00595849       0.00475458
In      -1.68586916      -5.10921206      12.48747303        2      -0.00114557       0.00086256      -0.00141195
In       7.22551699      -5.10921206      12.48747303        2      -0.00117231       0.00083698      -0.00143815
In      -4.65633121       3.29252338      12.48747303        2      -0.00109536       0.00083217      -0.00137181
In       4.25505494       3.29252338      12.48747303        2      -0.00116251       0.00083573      -0.00144949
In       4.46569307       6.30130157       3.63805816        3      -0.11373522      -0.01706827      -0.00000340
In      13.36707922       6.30130158       3.63805816        3       0.00002519      -0.00003385      -0.00009184
In       1.48523102      14.70303701       3.63805816        3      -0.00001638       0.00001458      -0.00000002
In      10.39661717      14.70303701       3.63805816        3       0.00004188       0.00004927       0.00000326
In       1.48523102       2.10043386      10.91417448        3      -0.00012508      -0.00002305       0.00003671
In      10.39661717       2.10043386      10.91417448        3       0.00003481      -0.00002262       0.00004110
In      -1.48523103      10.50216929      10.91417448        3       0.00004533      -0.00002438      -0.00004441
In       7.42615512      10.50216929      10.91417448        3       0.00003062       0.00002589       0.00005509
In      -1.28459289       4.05899513       3.39232763        4       0.00140378      -0.00073993      -0.00191869
In       7.62679326       4.05899513       3.39232763        4       0.00626714      -0.00711095      -0.00228720
In      -4.25505494      12.46073056       3.39232763        4       0.00125604      -0.00089850      -0.00144220
In       4.65633121      12.46073056       3.39232763        4       0.00115520      -0.00047328      -0.00144815
In      -4.25505494      -0.14187259      10.66844395        4       0.00127139      -0.00090510      -0.00137368
In       4.65633121      -0.14187259      10.66844395        4       0.00122767      -0.00084304      -0.00151668
In      -7.22551699       8.25986285      10.66844395        4       0.00120547      -0.00080516      -0.00128427
In       1.68586916       8.25986285      10.66844395        4       0.00121238      -0.00091595      -0.00164988
In       4.65633121      -2.86690561       5.45708724        5       0.00117832       0.00167296      -0.00000240
In      13.56771736      -2.86690561       5.45708724        5       0.00125161       0.00172070      -0.00005614
In       1.68586916       5.53482982       5.45708724        5       0.00787820       0.00507823      -0.00748149
In      10.59725531       5.53482982       5.45708724        5       0.00097374       0.00148318      -0.00010202
In       1.68586916      -7.06777333      12.73320356        5       0.00124590       0.00153013      -0.00019997
In      10.59725531      -7.06777333      12.73320356        5       0.00120100       0.00176690       0.00011153
In      -1.28459289       1.33396211      12.73320356        5       0.00112535       0.00162635      -0.00005435
In       7.62679326       1.33396211      12.73320356        5       0.00118622       0.00166961      -0.00000282
In      -1.28459289       1.33396210       5.45708724        6       0.00121154       0.00180368      -0.00000906
In       7.62679326       1.33396210       5.45708724        6       0.00110983       0.00137906       0.00008729
In      -4.25505494       9.73569753       5.45708724        6       0.00135019       0.00171797      -0.00000570
In       4.65633121       9.73569753       5.45708724        6      -0.00001996       0.00298698       0.00024063
In      -4.25505494      -2.86690562      12.73320356        6       0.00112620       0.00173701       0.00011537
In       4.65633121      -2.86690562      12.73320356        6       0.00122541       0.00157233      -0.00011447
In      -7.22551699       5.53482982      12.73320356        6       0.00117786       0.00167063      -0.00000183
In       1.68586916       5.53482982      12.73320356        6       0.00116279       0.00165911       0.00001419
In      -1.68586916       7.06777334       1.81902908        7      -0.00138476      -0.00185139      -0.00010296
In       7.22551699       7.06777334       1.81902908        7       0.00558139       0.00174858      -0.00753111
In      -4.65633121      15.46950877       1.81902908        7      -0.00110694      -0.00161494      -0.00005606
In       4.25505494      15.46950877       1.81902908        7      -0.00118016      -0.00166276      -0.00000250
In      -4.65633121       2.86690562       9.09514540        7      -0.00117233      -0.00166590      -0.00000285
In       4.25505494       2.86690562       9.09514540        7      -0.00123245      -0.00170978      -0.00005364
In      -7.62679326      11.26864106       9.09514540        7      -0.00115854      -0.00156780       0.00011155
In       1.28459289      11.26864106       9.09514540        7      -0.00111281      -0.00180581      -0.00020038
In       4.25505494       0.14187259       3.88378868        8      -0.00120593       0.00119570       0.00143974
In      13.16644109       0.14187259       3.88378868        8      -0.00109909       0.00076618       0.00144649
In       1.28459289       8.54360802       3.88378868        8       0.00391378      -0.00543221       0.00058652
In      10.19597904       8.54360802       3.88378868        8      -0.00093835       0.00093441       0.00095939
In       1.28459289      -4.05899513      11.15990500        8      -0.00114600       0.00075181       0.00123913
In      10.19597904      -4.05899513      11.15990500        8      -0.00115334       0.00086218       0.00160229
In      -1.68586916       4.34274031      11.15990500        8      -0.00113137       0.00082434       0.00137298
In       7.22551699       4.34274031      11.15990500        8      -0.00108741       0.00076251       0.00151483
In       7.42615512       4.20086772      -0.00000000        9       0.00064011      -0.00055479      -0.00120211
In      16.33754127       4.20086772      -0.00000000        9       0.00039354       0.00024636       0.00038277
In       4.45569307      12.60260315      -0.00000000        9      -0.00019411       0.00003900      -0.00009364
In      13.36707922      12.60260316      -0.00000000        9       0.00000003      -0.00000002      -0.00000006
In       4.45569307       0.00000000       7.27611632        9      -0.00019501       0.00004027      -0.00009422
In      13.36707922       0.00000001       7.27611632        9       0.00000003      -0.00000002      -0.00000006
In       1.48523102       8.40173544       7.27611632        9       0.00062865      -0.00055531      -0.00119033
In      10.39661717       8.40173544       7.27611632        9       0.00039636       0.00024975       0.00038857
In       4.25505494       6.44317416       0.24573052       10      -0.00340156      -0.00006335       0.00230999
In      13.16644109       6.44317416       0.24573052       10      -0.00098233       0.00083575       0.00145853
In       1.28459289      14.84490959       0.24573052       10      -0.00118880       0.00080893       0.00144195
In      10.19597904      14.84490959       0.24573052       10      -0.00117939       0.00083380       0.00144521
In       1.28459289       2.24230644       7.52184684       10      -0.00138760       0.00088653       0.00157716
In      10.19597904       2.24230644       7.52184684       10      -0.00115342       0.00080977       0.00151382
In      -1.68586916      10.64404188       7.52184684       10      -0.00121263       0.00081672       0.00140591
In       7.22551699      10.64404188       7.52184684       10      -0.00128901       0.00070055       0.00137409
In      -1.28459289      -2.24230644       7.03038579       11       0.00117915      -0.00083399      -0.00144334
In       7.62679326      -2.24230644       7.03038579       11       0.00116999      -0.00085886      -0.00144573
In      -4.25505494       6.15942899       7.03038579       11       0.00138113      -0.00083078      -0.00142933
In       4.65633121       6.15942899       7.03038579       11      -0.00105883      -0.00173512      -0.00051857
In      -4.25505494      -6.44317416      14.30650211       11       0.00107071      -0.00096638      -0.00151234
In       4.65633121      -6.44317416      14.30650211       11       0.00114639      -0.00085225      -0.00148515
In      -7.22551699       1.95856128      14.30650211       11       0.00120632      -0.00085790      -0.00137611
In       1.68586916       1.95856128      14.30650211       11       0.00096954      -0.00077844      -0.00131251
In       4.25505494       2.86690562       1.81902908       12      -0.00236594      -0.00032091       0.00025036
In      13.16644109       2.86690562       1.81902908       12      -0.00101258      -0.00161661      -0.00000598
In       1.28459289      11.26864105       1.81902908       12      -0.00125199      -0.00194545       0.00008055
In      10.19597904      11.26864105       1.81902908       12      -0.00114674      -0.00153152      -0.00000798
In       1.28459289      -1.33396210       9.09514540       12      -0.00119584      -0.00167647       0.00001431
In      10.19597904      -1.33396210       9.09514540       12      -0.00118061      -0.00166503      -0.00000190
In      -1.68586916       7.06777334       9.09514540       12      -0.00113431      -0.00176215      -0.00011303
In       7.22551699       7.06777334       9.09514540       12      -0.00123211      -0.00159697       0.00012205
In       1.68586916       5.10921206       2.06475960       13       0.00789863       0.00430400       0.00758214
In      10.59725531       5.10921206       2.06475960       13       0.00094228      -0.00073369       0.00138781
In      -1.28459289      13.51094749       2.06475960       13       0.00118284      -0.00088250       0.00145230
In       7.62679326      13.51094749       2.06475960       13       0.00125593      -0.00064829       0.00141157
In      -1.28459289       0.90834434       9.34087592       13       0.00119574      -0.00083250       0.00143985
In       7.62679326       0.90834434       9.34087592       13       0.00126314      -0.00083530       0.00151688
In      -4.25505494       9.31007978       9.34087592       13       0.00118620      -0.00083068       0.00145046
In       4.65633121       9.31007978       9.34087592       13       0.00121371      -0.00080448       0.00147677
In       1.48523102       8.40173543      -0.00000000       14       0.00101888      -0.00061880       0.00117702
In      10.39661717       8.40173543      -0.00000000       14       0.00038247       0.00010174      -0.00024780
In      -1.48523103      16.80347087      -0.00000000       14      -0.00021403      -0.00000427       0.00005718
In       7.42615512      16.80347087      -0.00000000       14       0.00000004       0.00000001      -0.00000001
In      -1.48523103       4.20086772       7.27611632       14       0.00038060       0.00010342      -0.00024912
In       7.42615512       4.20086772       7.27611632       14       0.00101853      -0.00062622       0.00118902
In      -4.45569308      12.60260315       7.27611632       14       0.00000004       0.00000001      -0.00000001
In       4.45569307      12.60260315       7.27611632       14      -0.00021360      -0.00000614       0.00005646
In       1.48523102       2.10043386       3.63805816       15       0.00101598       0.00144074      -0.00014634
In      10.39661717       2.10043386       3.63805816       15       0.00038843      -0.00046968      -0.00004225
In      -1.48523103      10.50216929       3.63805816       15       0.00037466      -0.00045600      -0.00004331
In       7.42615512      10.50216929       3.63805816       15       0.00102143       0.00145790      -0.00014175
In      -1.48523103      -2.10043386      10.91417448       15      -0.00021362       0.00005463       0.00001336
In       7.42615512      -2.10043386      10.91417448       15       0.00000004       0.00000001      -0.00000002
In      -4.45569308       6.30130158      10.91417448       15       0.00000004       0.00000001      -0.00000002
In       4.45569307       6.30130158      10.91417448       15      -0.00021402       0.00005472       0.00001252
O        0.87528657       4.20082734       3.95955174       16      -0.00058203      -0.00089116       0.00068311
O        9.78667272       4.20082734       3.95955174       16      -0.00132825       0.00047090       0.00059518
O       -2.09517548      12.60256277       3.95955174       16      -0.00086181       0.00027874       0.00057977
O        6.81621067      12.60256277       3.95955174       16      -0.00092610       0.00021724       0.00062397
O       -2.09517548      -0.00004038      11.23566806       16      -0.00082658       0.00028783       0.00050807
O        6.81621067      -0.00004038      11.23566806       16      -0.00089206       0.00025175       0.00059431
O       -5.06563753       8.40169506      11.23566806       16      -0.00088382       0.00026739       0.00058288
O        3.84574862       8.40169506      11.23566806       16      -0.00088342       0.00027896       0.00061200
O       -2.09517548       3.42909259       5.29637542       17      -0.00105812       0.00031921      -0.00035627
O        6.81621067       3.42909259       5.29637542       17      -0.00137560       0.00131658      -0.00122854
O       -5.06563753      11.83082802       5.29637542       17      -0.00091732       0.00033348      -0.00050688
O        3.84574862      11.83082802       5.29637542       17      -0.00077108       0.00039142      -0.00045184
O       -5.06563753      -0.77177513      12.57249174       17      -0.00090633       0.00046006      -0.00054017
O        3.84574862      -0.77177513      12.57249174       17      -0.00094471       0.00030331      -0.00050144
O       -8.03609958       7.62996031      12.57249174       17      -0.00088938       0.00037172      -0.00051265
O        0.87528657       7.62996031      12.57249174       17      -0.00086830       0.00035863      -0.00055090
O       -0.43591245       2.25581645       0.05243298       18       0.00021357      -0.00055046       0.00081215
O        8.47547370       2.25581645       0.05243298       18       0.00028645      -0.00049574       0.00096314
O       -3.40637450      10.65755188       0.05243298       18       0.00029049      -0.00046186       0.00092607
O        5.50501165      10.65755188       0.05243298       18       0.00033562      -0.00053710       0.00102417
O       -3.40637450      -1.94505127       7.32854930       18       0.00030885      -0.00043488       0.00094870
O        5.50501165      -1.94505127       7.32854930       18       0.00029469      -0.00046679       0.00094014
O       -6.37683655       6.45668417       7.32854930       18       0.00021341      -0.00053232       0.00090631
O        2.53454960       6.45668417       7.32854930       18       0.00071543      -0.00006607       0.00084382
O       -0.87528658      -0.77181551       1.97981084       19       0.00090486       0.00065446       0.00008760
O        8.03609957      -0.77181551       1.97981084       19       0.00088721       0.00062923       0.00008145
O       -3.84574863       7.62991992       1.97981084       19       0.00084776       0.00064842       0.00007696
O        5.06563752       7.62991992       1.97981084       19       0.00609201       0.00472833      -0.00602717
O       -3.84574863      -4.97268323       9.25592716       19       0.00087545       0.00060778       0.00006126
O        5.06563752      -4.97268323       9.25592716       19       0.00089976       0.00060345       0.00005276
O       -6.81621068       3.42905221       9.25592716       19       0.00091534       0.00065799       0.00004370
O        2.09517547       3.42905221       9.25592716       19       0.00083057       0.00068056       0.00001346
O        3.93137132       5.00295542       1.92737786       20       0.00480532       0.00333060       0.00464387
O       12.84275747       5.00295542       1.92737786       20       0.00055601      -0.00009619      -0.00083910
O        0.96090927      13.40469085       1.92737786       20       0.00063496      -0.00005415      -0.00090778
O        9.87229542      13.40469085       1.92737786       20       0.00065676      -0.00007534      -0.00091104
O        0.96090927       0.80208770       9.20349418       20       0.00065294      -0.00011269      -0.00086761
O        9.87229542       0.80208770       9.20349418       20       0.00066958      -0.00011437      -0.00085958
O       -2.00955278       9.20382314       9.20349418       20       0.00065392      -0.00009071      -0.00087495
O        6.90183337       9.20382314       9.20349418       20       0.00057243      -0.00005729      -0.00078273
O        2.00955278       2.93275338       1.65831726       21      -0.00053984       0.00066118      -0.00003134
O       10.92093893       2.93275338       1.65831726       21      -0.00072161       0.00075719      -0.00050282
O       -0.96090927      11.33448881       1.65831726       21      -0.00067067       0.00078032      -0.00051094
O        7.95047688      11.33448881       1.65831726       21      -0.00065011       0.00077419      -0.00052935
O       -0.96090927      -1.26811434       8.93443358       21      -0.00065276       0.00071650      -0.00053443
O        7.95047688      -1.26811434       8.93443358       21      -0.00064442       0.00070485      -0.00051346
O       -3.93137132       7.13362110       8.93443358       21      -0.00063666       0.00072827      -0.00055831
O        4.98001483       7.13362110       8.93443358       21      -0.00054093       0.00074317      -0.00032367
O        2.00955277       6.27106976       0.26906060       22      -0.00054871      -0.00036117      -0.00113952
O       10.92093892       6.27106976       0.26906060       22      -0.00077717      -0.00085606      -0.00026041
O       -0.96090928      14.67280519       0.26906060       22      -0.00065180      -0.00081580      -0.00036603
O        7.95047687      14.67280519       0.26906060       22      -0.00064571      -0.00081013      -0.00035364
O       -0.96090928       2.07020204       7.54517692       22      -0.00071918      -0.00080502      -0.00028418
O        7.95047687       2.07020204       7.54517692       22      -0.00070399      -0.00085481      -0.00043090
O       -3.93137133      10.47193748       7.54517692       22      -0.00062223      -0.00083290      -0.00036833
O        4.98001482      10.47193748       7.54517692       22      -0.00060174      -0.00079892      -0.00034737
O       -2.27210830       5.96034496       3.69049114       23       0.00051957      -0.00013307       0.00099640
O        6.63927785       5.96034496       3.69049114       23       0.03232997      -0.00558242       0.00259306
O       -5.24257035      14.36208039       3.69049114       23       0.00053057      -0.00011537       0.00093075
O        3.66881580      14.36208039       3.69049114       23       0.00051120      -0.00011601       0.00094285
O       -5.24257035       1.75947724      10.96660746       23       0.00054007      -0.00015594       0.00098747
O        3.66881580       1.75947724      10.96660746       23       0.00051957      -0.00014617       0.00096222
O       -8.21303240      10.16121268      10.96660746       23       0.00052521      -0.00013727       0.00092793
O        0.69835375      10.16121268      10.96660746       23       0.00055314      -0.00015076       0.00089452
O        3.40637450       1.94505127       7.22368334       24      -0.00026377       0.00039601      -0.00084848
O       12.31776065       1.94505127       7.22368334       24      -0.00030945       0.00047520      -0.00094830
O        0.43591245      10.34678670       7.22368334       24      -0.00031374       0.00044295      -0.00090971
O        9.34729860      10.34678670       7.22368334       24      -0.00038595       0.00038581      -0.00106228
O        0.43591245      -2.25581645      14.49979966       24       0.00013846       0.00086389      -0.00104459
O        9.34729860      -2.25581645      14.49979966       24      -0.00038504       0.00040519      -0.00096620
O       -2.53454960       6.14591899      14.49979966       24      -0.00030523       0.00047048      -0.00093371
O        6.37683655       6.14591899      14.49979966       24      -0.00029106       0.00050192      -0.00092553
O        5.24257035      -1.75947724       3.58562518       25      -0.00057261       0.00013707      -0.00093140
O       14.15395650      -1.75947724       3.58562518       25      -0.00055301       0.00013757      -0.00094350
O        2.27210830       6.64225819       3.58562518       25       0.02784353      -0.00460053       0.00056617
O       11.18349445       6.64225819       3.58562518       25      -0.00056348       0.00012159      -0.00087587
O        2.27210830      -5.96034496      10.86174150       25      -0.00053036       0.00010274      -0.00097916
O       11.18349445      -5.96034496      10.86174150       25      -0.00055856       0.00011602      -0.00094596
O       -0.69835375       2.44139048      10.86174150       25      -0.00056362       0.00010679      -0.00091146
O        8.21303240       2.44139048      10.86174150       25      -0.00054351       0.00009742      -0.00088697
O        6.37683655       3.27375038       1.71068029       26      -0.00012124       0.00148733       0.00191451
O       15.28822270       3.27375038       1.71068029       26      -0.00039947       0.00057069       0.00081337
O        3.40637450      11.67548581       1.71068029       26      -0.00026091       0.00056925       0.00084208
O       12.31776065      11.67548581       1.71068029       26      -0.00030303       0.00058152       0.00084071
O        3.40637450      -0.92711734       8.98679661       26      -0.00029961       0.00057315       0.00087352
O       12.31776065      -0.92711734       8.98679661       26      -0.00030213       0.00057986       0.00087875
O        0.43591245       7.47461810       8.98679661       26      -0.00027535       0.00060271       0.00079865
O        9.34729860       7.47461810       8.98679661       26      -0.00034113       0.00051447       0.00080708
O        3.66881580       2.31632046       3.90711876       27       0.00051346       0.00064231      -0.00030694
O       12.58020195       2.31632046       3.90711876       27       0.00052828       0.00085581      -0.00035319
O        0.69835375      10.71805589       3.90711876       27       0.00032698       0.00135245      -0.00042708
O        9.60973990      10.71805589       3.90711876       27       0.00066471       0.00086520      -0.00041410
O        0.69835375      -1.88454726      11.18323508       27       0.00058426       0.00088442      -0.00010814
O        9.60973990      -1.88454726      11.18323508       27       0.00053904       0.00088767      -0.00041255
O       -2.27210830       6.51718818      11.18323508       27       0.00052556       0.00089287      -0.00033181
O        6.63927785       6.51718818      11.18323508       27       0.00050774       0.00085542      -0.00042184
O        0.69835375       4.32593774       6.95462273       28       0.00061542      -0.00095476      -0.00041396
O        9.60973990       4.32593774       6.95462273       28       0.00063469      -0.00074214      -0.00063814
O       -2.27210830      12.72767317       6.95462273       28       0.00054223      -0.00074755      -0.00056900
O        6.63927785      12.72767317       6.95462273       28       0.00054310      -0.00081732      -0.00062297
O       -2.27210830       0.12507002      14.23073905       28       0.00063552      -0.00065248      -0.00060165
O        6.63927785       0.12507002      14.23073905       28       0.00054751      -0.00073323      -0.00060541
O       -5.24257035       8.52680546      14.23073905       28       0.00053772      -0.00065828      -0.00051874
O        3.66881580       8.52680546      14.23073905       28       0.00054663      -0.00076712      -0.00058140
O        2.27210830      -0.12507002       0.32149358       29      -0.00054052       0.00067976       0.00053342
O       11.18349445      -0.12507002       0.32149358       29      -0.00054142       0.00074937       0.00058751
O       -0.69835375       8.27666541       0.32149358       29      -0.00044896       0.00075373       0.00051908
O        8.21303240       8.27666541       0.32149358       29      -0.00047706       0.00052451       0.00075866
O       -0.69835375      -4.32593774       7.59760990       29      -0.00053684       0.00072923       0.00057468
O        8.21303240      -4.32593774       7.59760990       29      -0.00054623       0.00083899       0.00063731
O       -3.66881580       4.07579770       7.59760990       29      -0.00053760       0.00076252       0.00055089
O        5.24257035       4.07579770       7.59760990       29      -0.00043051       0.00083629       0.00057123
O       -3.40637450       0.92711734       5.56543602       30       0.00029739      -0.00057235      -0.00090792
O        5.50501165       0.92711734       5.56543602       30       0.00033948      -0.00058716      -0.00090583
O       -6.37683655       9.32885277       5.56543602       30       0.00019871      -0.00058520      -0.00093657
O        2.53454960       9.32885277       5.56543602       30       0.00048530       0.00026599       0.00012463
O       -6.37683655      -3.27375038      12.84155234       30       0.00025815      -0.00064001      -0.00094106
O        2.53454960      -3.27375038      12.84155234       30       0.00032492      -0.00055252      -0.00095224
O       -9.34729860       5.12798506      12.84155234       30       0.00029778      -0.00057475      -0.00086986
O       -0.43591245       5.12798506      12.84155234       30       0.00030026      -0.00058135      -0.00087516
O        5.06563752       0.77177513       1.97974090       31       0.00100096      -0.00035035       0.00057871
O       13.97702367       0.77177513       1.97974090       31       0.00085503      -0.00040572       0.00052397