320
Lattice="17.82277229767026 1.3968990124634205e-09 -1.3016760742157139e-15 -5.940924100540427 16.803470867836204 -2.419501786820327e-09 -5.940924098564913 -8.401735432521198 14.55223264491091" Properties=species:S:1:pos:R:3:spacegroup_kinds:I:1:forces:R:3 spacegroup="P 1" unit_cell=conventional occupancy="_JSON {\"0\": {\"In\": 1}, \"1\": {\"In\": 1}, \"2\": {\"In\": 1}, \"3\": {\"In\": 1}, \"4\": {\"In\": 1}, \"5\": {\"In\": 1}, \"6\": {\"In\": 1}, \"7\": {\"In\": 1}, \"8\": {\"In\": 1}, \"9\": {\"In\": 1}, \"10\": {\"In\": 1}, \"11\": {\"In\": 1}, \"12\": {\"In\": 1}, \"13\": {\"In\": 1}, \"14\": {\"In\": 1}, \"15\": {\"In\": 1}, \"16\": {\"O\": 1}, \"17\": {\"O\": 1}, \"18\": {\"O\": 1}, \"19\": {\"O\": 1}, \"20\": {\"O\": 1}, \"21\": {\"O\": 1}, \"22\": {\"O\": 1}, \"23\": {\"O\": 1}, \"24\": {\"O\": 1}, \"25\": {\"O\": 1}, \"26\": {\"O\": 1}, \"27\": {\"O\": 1}, \"28\": {\"O\": 1}, \"29\": {\"O\": 1}, \"30\": {\"O\": 1}, \"31\": {\"O\": 1}, \"32\": {\"O\": 1}, \"33\": {\"O\": 1}, \"34\": {\"O\": 1}, \"35\": {\"O\": 1}, \"36\": {\"O\": 1}, \"37\": {\"O\": 1}, \"38\": {\"O\": 1}, \"39\": {\"O\": 1}}" n_minim_iter=5 energy=-361215.2757942336 stress="-4.996309048371446e-05 -1.7767560224250771e-06 3.8120542587009255e-06 -1.7767560224250771e-06 -3.261246314306361e-05 -7.010997363988131e-07 3.8120542587009255e-06 -7.010997363988131e-07 -3.1030894029935254e-05" free_energy=-45151.909527623415 pbc="T T T"
In      -4.24505494       3.00877820       5.70281776        0      -0.08689158       0.00330286      -0.01193807
In       4.65633121       3.00877820       5.70281776        0       0.00115045      -0.00085517       0.00144515
In      -7.22551699      11.41051363       5.70281776        0       0.00118471      -0.00091557       0.00142371
In       1.68586916      11.41051363       5.70281776        0       0.00122711      -0.00076108       0.00144332
In      -7.22551699      -1.19208952      12.97893408        0       0.00116072      -0.00085077       0.00145195
In       1.68586916      -1.19208952      12.97893408        0       0.00121738      -0.00085821       0.00148658
In     -10.19597904       7.20964592      12.97893408        0       0.00122910      -0.00086601       0.00138128
In      -1.28459289       7.20964592      12.97893408        0       0.00119191      -0.00075402       0.00152070
In       7.22551699       1.19208952       1.57329855        1      -0.00094303       0.00089540      -0.00129990
In      16.13690314       1.19208952       1.57329855        1      -0.00040832       0.00023697      -0.00244057
In       4.25505494       9.59382495       1.57329855        1      -0.00117928       0.00083381      -0.00144431
In      13.16644109       9.59382495       1.57329855        1      -0.00135901       0.00082501      -0.00150932
In       4.25505494      -3.00877820       8.84941487        1      -0.00117928       0.00083381      -0.00144431
In      13.16644109      -3.00877820       8.84941487        1      -0.00146801       0.00093509      -0.00145053
In       1.28459289       5.39295724       8.84941487        1      -0.00052937       0.00122545      -0.00089764
In      10.19597904       5.39295724       8.84941487        1      -0.00044440       0.00007303      -0.00254234
In       1.28459289      -0.90834434       5.21135671        2      -0.00058199       0.00020132      -0.00151822
In      10.19597904      -0.90834434       5.21135671        2      -0.00034978       0.00212344      -0.00152810
In      -1.68586916       7.49339109       5.21135671        2      -0.00038740       0.00212354      -0.00152516
In       7.22551699       7.49339109       5.21135671        2      -0.00099826       0.00066794      -0.00144003
In      -1.68586916      -5.10921206      12.48747303        2      -0.00117925       0.00083383      -0.00144426
In       7.22551699      -5.10921206      12.48747303        2      -0.00132854       0.00090029      -0.00143874
In      -4.65633121       3.29252338      12.48747303        2      -0.00140318       0.00081346      -0.00153434
In       4.25505494       3.29252338      12.48747303        2      -0.00117874       0.00083401      -0.00144339
In       4.45569307       6.30130157       3.63805816        3       0.00011390       0.00005872      -0.00010617
In      13.36707922       6.30130158       3.63805816        3      -0.00124999      -0.00116590       0.00121980
In       1.48523102      14.70303701       3.63805816        3       0.00007390       0.00007272       0.00000533
In      10.39661717      14.70303701       3.63805816        3      -0.00001549      -0.00006068      -0.00023426
In       1.48523102       2.10043386      10.91417448        3       0.00004394      -0.00015222       0.00016935
In      10.39661717       2.10043386      10.91417448        3      -0.00012617      -0.00028082       0.00011554
In      -1.48523103      10.50216929      10.91417448        3       0.00001380       0.00003066       0.00008163
In       7.42615512      10.50216929      10.91417448        3      -0.00000433       0.00000225       0.00000340
In      -1.28459289       4.05899513       3.39232763        4       0.00520166       0.00158382      -0.00802133
In       7.62679326       4.05899513       3.39232763        4       0.00114588      -0.00076855      -0.00165714
In      -4.25505494      12.46073056       3.39232763        4       0.00124330      -0.00092482      -0.00148822
In       4.65633121      12.46073056       3.39232763        4       0.00125584      -0.00076960      -0.00145279
In      -4.25505494      -0.14187259      10.66844395        4       0.00105251      -0.00104540      -0.00116332
In       4.65633121      -0.14187259      10.66844395        4       0.00125033      -0.00082175      -0.00146381
In      -7.22551699       8.25986285      10.66844395        4       0.00121990      -0.00093176      -0.00158732
In       1.68586916       8.25986285      10.66844395        4       0.00118099      -0.00076382      -0.00138170
In       4.65633121      -2.86690561       5.45708724        5       0.00125201       0.00158882      -0.00000294
In      13.56771736      -2.86690561       5.45708724        5       0.00105131       0.00226480       0.00005727
In       1.68586916       5.53482982       5.45708724        5       0.00114789       0.00212432      -0.00016869
In      10.59725531       5.53482982       5.45708724        5       0.00518441      -0.00185649      -0.00014781
In       1.68586916      -7.06777333      12.73320356        5       0.00124405       0.00171313       0.00008403
In      10.59725531      -7.06777333      12.73320356        5       0.00125566       0.00159293      -0.00018129
In      -1.28459289       1.33396211      12.73320356        5       0.00121958       0.00158223       0.00012126
In       7.62679326       1.33396211      12.73320356        5       0.00118090       0.00166210       0.00000856
In      -1.28459289       1.33396210       5.45708724        6       0.00952253      -0.00512682      -0.00078685
In       7.62679326       1.33396210       5.45708724        6       0.00140136       0.00156280       0.00003482
In      -4.25505494       9.73569753       5.45708724        6       0.00115544       0.00157893      -0.00002115
In       4.65633121       9.73569753       5.45708724        6       0.00117916       0.00166770      -0.00000001
In      -4.25505494      -2.86690562      12.73320356        6       0.00117624       0.00168333       0.00001346
In       4.65633121      -2.86690562      12.73320356        6       0.00123939       0.00162487       0.00001994
In      -7.22551699       5.53482982      12.73320356        6       0.00123549       0.00158184      -0.00006690
In       1.68586916       5.53482982      12.73320356        6       0.00118798       0.00167838       0.00000709
In      -1.68586916       7.06777334       1.81902908        7      -0.00132915      -0.00150407      -0.00021412
In       7.22551699       7.06777334       1.81902908        7      -0.00114424      -0.00171070       0.00004956
In      -4.65633121      15.46950877       1.81902908        7      -0.00121217      -0.00173014      -0.00013635
In       4.25505494      15.46950877       1.81902908        7      -0.00112805      -0.00152590       0.00002711
In      -4.65633121       2.86690562       9.09514540        7      -0.00350885      -0.00305747      -0.00296188
In       4.25505494       2.86690562       9.09514540        7      -0.00112711      -0.00165153       0.00006144
In      -7.62679326      11.26864106       9.09514540        7      -0.00119476      -0.00165014      -0.00000150
In       1.28459289      11.26864106       9.09514540        7      -0.00117928      -0.00166784      -0.00000033
In       4.25505494       0.14187259       3.88378868        8      -0.00112760       0.00080244       0.00143487
In      13.16644109       0.14187259       3.88378868        8      -0.00349716       0.00326613       0.00125305
In       1.28459289       8.54360802       3.88378868        8      -0.00121301       0.00091746       0.00145064
In      10.19597904       8.54360802       3.88378868        8      -0.00112736       0.00080960       0.00139640
In       1.28459289      -4.05899513      11.15990500        8      -0.00117928       0.00083378       0.00144429
In      10.19597904      -4.05899513      11.15990500        8      -0.00119471       0.00089479       0.00141763
In      -1.68586916       4.34274031      11.15990500        8      -0.00133070       0.00069418       0.00158791
In       7.22551699       4.34274031      11.15990500        8      -0.00114409       0.00076759       0.00144882
In       7.42615512       4.20086772      -0.00000000        9       0.00000893      -0.00002758       0.00001850
In      16.33754127       4.20086772      -0.00000000        9      -0.00003082       0.00000643      -0.00014304
In       4.45569307      12.60260315      -0.00000000        9      -0.00001853      -0.00001042       0.00009300
In      13.36707922      12.60260316      -0.00000000        9      -0.00000005       0.00000066      -0.00000034
In       4.45569307       0.00000000       7.27611632        9       0.00006278      -0.00002850       0.00001570
In      13.36707922       0.00000001       7.27611632        9      -0.00345554       0.00156243       0.00064072
In       1.48523102       8.40173544       7.27611632        9       0.00003428       0.00017161      -0.00007406
In      10.39661717       8.40173544       7.27611632        9      -0.00006091       0.00015969       0.00004055
In       4.25505494       6.44317416       0.24573052       10      -0.00111399       0.00087632       0.00137413
In      13.16644109       6.44317416       0.24573052       10      -0.00126107       0.00059627       0.00180953
In       1.28459289      14.84490959       0.24573052       10      -0.00114559       0.00085916       0.00149855
In      10.19597904      14.84490959       0.24573052       10      -0.00113288       0.00074740       0.00129784
In       1.28459289       2.24230644       7.52184684       10       0.00061688       0.00010322       0.00251163
In      10.19597904       2.24230644       7.52184684       10       0.00505493       0.00116031      -0.00151552
In      -1.68586916      10.64404188       7.52184684       10      -0.00110671       0.00094671       0.00142181
In       7.22551699      10.64404188       7.52184684       10      -0.00118269       0.00086340       0.00145293
In      -1.28459289      -2.24230644       7.03038579       11       0.00118005      -0.00089577      -0.00123499
In       7.62679326      -2.24230644       7.03038579       11       0.00120924      -0.00074244      -0.00143616
In      -4.25505494       6.15942899       7.03038579       11      -0.00124512      -0.00059272      -0.00293685
In       4.65633121       6.15942899       7.03038579       11       0.00126876      -0.00081555      -0.00137067
In      -4.25505494      -6.44317416      14.30650211       11       0.00115763      -0.00085942      -0.00153359
In       4.65633121      -6.44317416      14.30650211       11       0.00114079      -0.00077645      -0.00128321
In      -7.22551699       1.95856128      14.30650211       11       0.00115443      -0.00086084      -0.00147274
In       1.68586916       1.95856128      14.30650211       11       0.00117922      -0.00083385      -0.00144432
In       4.25505494       2.86690562       1.81902908       12      -0.00113848      -0.00163691      -0.00007015
In      13.16644109       2.86690562       1.81902908       12      -0.00220064      -0.00212840       0.00287104
In       1.28459289      11.26864105       1.81902908       12      -0.00118115      -0.00167140      -0.00001933
In      10.19597904      11.26864105       1.81902908       12      -0.00115840      -0.00175777       0.00002757
In       1.28459289      -1.33396210       9.09514540       12      -0.00118417      -0.00172071       0.00015186
In      10.19597904      -1.33396210       9.09514540       12      -0.00119194      -0.00161383       0.00021437
In      -1.68586916       7.06777334       9.09514540       12      -0.00105605      -0.00029398       0.00073749
In       7.22551699       7.06777334       9.09514540       12      -0.00109809      -0.00175996      -0.00007968
In       1.68586916       5.10921206       2.06475960       13       0.00162411      -0.00057669       0.00087413
In      10.59725531       5.10921206       2.06475960       13       0.00196926      -0.00155962       0.00260204
In      -1.28459289      13.51094749       2.06475960       13       0.00117923      -0.00083386       0.00144433
In       7.62679326      13.51094749       2.06475960       13       0.00101205      -0.00104028       0.00139315
In      -1.28459289       0.90834434       9.34087592       13       0.00178648      -0.00163642       0.00273445
In       7.62679326       0.90834434       9.34087592       13       0.00171163      -0.00079499       0.00122138
In      -4.25505494       9.31007978       9.34087592       13       0.00098724      -0.00080384       0.00152243
In       4.65633121       9.31007978       9.34087592       13       0.00117923      -0.00083386       0.00144433
In       1.48523102       8.40173543      -0.00000000       14      -0.00000095       0.00001398      -0.00002655
In      10.39661717       8.40173543      -0.00000000       14       0.00007235       0.00001189       0.00006929
In      -1.48523103      16.80347087      -0.00000000       14       0.00000637       0.00000305       0.00000545
In       7.42615512      16.80347087      -0.00000000       14      -0.00005399       0.00002628      -0.00008380
In      -1.48523103       4.20086772       7.27611632       14       0.00674585       0.00441984       0.00659724
In       7.42615512       4.20086772       7.27611632       14      -0.00020957       0.00008991       0.00009675
In      -4.45569308      12.60260315       7.27611632       14       0.00002123      -0.00005179       0.00002412
In       4.45569307      12.60260315       7.27611632       14       0.00006681       0.00008597       0.00002890
In       1.48523102       2.10043386       3.63805816       15       0.00024292      -0.00003742      -0.00053706
In      10.39661717       2.10043386       3.63805816       15       0.00508491       0.00134025       0.00260652
In      -1.48523103      10.50216929       3.63805816       15       0.00009192       0.00016249      -0.00002711
In       7.42615512      10.50216929       3.63805816       15       0.00004873      -0.00006345      -0.00000868
In      -1.48523103      -2.10043386      10.91417448       15       0.00003303      -0.00005976       0.00011186
In       7.42615512      -2.10043386      10.91417448       15       0.00002631       0.00000666      -0.00000683
In      -4.45569308       6.30130158      10.91417448       15      -0.00002535       0.00008522       0.00009944
In       4.45569307       6.30130158      10.91417448       15       0.00007853       0.00002845       0.00004833
O        0.87528657       4.20082734       3.95955174       16      -0.00209314      -0.00003814       0.00122919
O        9.78667272       4.20082734       3.95955174       16      -0.00201869       0.00051949      -0.00005070
O       -2.09517548      12.60256277       3.95955174       16      -0.00089108       0.00023515       0.00058440
O        6.81621067      12.60256277       3.95955174       16      -0.00083941       0.00022676       0.00058949
O       -2.09517548      -0.00004038      11.23566806       16      -0.00097519       0.00030506       0.00053923
O        6.81621067      -0.00004038      11.23566806       16      -0.00088686       0.00026243       0.00059448
O       -5.06563753       8.40169506      11.23566806       16      -0.00088465       0.00025641       0.00060374
O        3.84574862       8.40169506      11.23566806       16      -0.00089005       0.00026623       0.00059350
O       -2.09517548       3.42909259       5.29637542       17       0.02231862       0.00470669      -0.00349702
O        6.81621067       3.42909259       5.29637542       17      -0.00104984       0.00038550      -0.00050280
O       -5.06563753      11.83082802       5.29637542       17      -0.00090393       0.00037330      -0.00049959
O        3.84574862      11.83082802       5.29637542       17      -0.00088236       0.00038761      -0.00052585
O       -5.06563753      -0.77177513      12.57249174       17      -0.00091133       0.00037020      -0.00048332
O        3.84574862      -0.77177513      12.57249174       17      -0.00089725       0.00037184      -0.00051923
O       -8.03609958       7.62996031      12.57249174       17      -0.00086429       0.00031705      -0.00059775
O        0.87528657       7.62996031      12.57249174       17      -0.00088648       0.00037580      -0.00052292
O       -0.43591245       2.25581645       0.05243298       18       0.00031142      -0.00044002       0.00090781
O        8.47547370       2.25581645       0.05243298       18       0.00022714      -0.00050654       0.00087677
O       -3.40637450      10.65755188       0.05243298       18       0.00028747      -0.00046885       0.00096070
O        5.50501165      10.65755188       0.05243298       18       0.00029813      -0.00046807       0.00093518
O       -3.40637450      -1.94505127       7.32854930       18       0.00046163      -0.00011120       0.00053576
O        5.50501165      -1.94505127       7.32854930       18       0.00028850      -0.00044382       0.00091415
O       -6.37683655       6.45668417       7.32854930       18       0.00042360      -0.00056750       0.00124338
O        2.53454960       6.45668417       7.32854930       18       0.00024597      -0.00046731       0.00091325
O       -0.87528658      -0.77181551       1.97981084       19       0.00082033       0.00055526       0.00004586
O        8.03609957      -0.77181551       1.97981084       19       0.00081354       0.00059066       0.00000645
O       -3.84574863       7.62991992       1.97981084       19       0.00099972       0.00069911      -0.00007221
O        5.06563752       7.62991992       1.97981084       19       0.00087332       0.00062127       0.00006897
O       -3.84574863      -4.97268323       9.25592716       19       0.00088404       0.00065744       0.00004876
O        5.06563752      -4.97268323       9.25592716       19       0.00088398       0.00062833       0.00006320
O       -6.81621068       3.42905221       9.25592716       19       0.00045744       0.00140880       0.00051633
O        2.09517547       3.42905221       9.25592716       19       0.00080114       0.00061206      -0.00004461
O        3.93137132       5.00295542       1.92737786       20       0.00062388      -0.00007665      -0.00087230
O       12.84275747       5.00295542       1.92737786       20       0.00065340       0.00041111      -0.00165078
O        0.96090927      13.40469085       1.92737786       20       0.00064251      -0.00009519      -0.00088519
O        9.87229542      13.40469085       1.92737786       20       0.00062546      -0.00009145      -0.00085165
O        0.96090927       0.80208770       9.20349418       20       0.00082441      -0.00003369      -0.00085855
O        9.87229542       0.80208770       9.20349418       20       0.00010712      -0.00025228      -0.00051636
O       -2.00955278       9.20382314       9.20349418       20       0.00064117      -0.00025412      -0.00092929
O        6.90183337       9.20382314       9.20349418       20       0.00064517      -0.00008258      -0.00087709
O        2.00955278       2.93275338       1.65831726       21      -0.00072342       0.00069607      -0.00035393
O       10.92093893       2.93275338       1.65831726       21      -0.00124726       0.00098087      -0.00119344
O       -0.96090927      11.33448881       1.65831726       21      -0.00064573       0.00071623      -0.00050334
O        7.95047688      11.33448881       1.65831726       21      -0.00064234       0.00071823      -0.00051316
O       -0.96090927      -1.26811434       8.93443358       21      -0.00070025       0.00060501      -0.00051267
O        7.95047688      -1.26811434       8.93443358       21      -0.00064958       0.00070817      -0.00049226
O       -3.93137132       7.13362110       8.93443358       21      -0.00053567       0.00030284      -0.00059849
O        4.98001483       7.13362110       8.93443358       21      -0.00065376       0.00067025      -0.00054981
O        2.00955277       6.27106976       0.26906060       22      -0.00062565      -0.00082233      -0.00031918
O       10.92093892       6.27106976       0.26906060       22      -0.00072227      -0.00075372      -0.00045711
O       -0.96090928      14.67280519       0.26906060       22      -0.00064490      -0.00080210      -0.00035921
O        7.95047687      14.67280519       0.26906060       22      -0.00061730      -0.00079240      -0.00032556
O       -0.96090928       2.07020204       7.54517692       22      -0.00197477      -0.00013114      -0.00240830
O        7.95047687       2.07020204       7.54517692       22      -0.00148404      -0.00096564      -0.00012497
O       -3.93137133      10.47193748       7.54517692       22      -0.00062179      -0.00083397      -0.00036341
O        4.98001482      10.47193748       7.54517692       22      -0.00063618      -0.00078612      -0.00036772
O       -2.27210830       5.96034496       3.69049114       23       0.00111193      -0.00087296       0.00139179
O        6.63927785       5.96034496       3.69049114       23       0.00038079      -0.00005474       0.00090559
O       -5.24257035      14.36208039       3.69049114       23       0.00052958      -0.00008996       0.00092964
O        3.66881580      14.36208039       3.69049114       23       0.00050320      -0.00013821       0.00098853
O       -5.24257035       1.75947724      10.96660746       23       0.00068452      -0.00004531       0.00113871
O        3.66881580       1.75947724      10.96660746       23       0.00052786      -0.00009423       0.00091923
O       -8.21303240      10.16121268      10.96660746       23       0.00055814      -0.00013579       0.00091540
O        0.69835375      10.16121268      10.96660746       23       0.00053538      -0.00015442       0.00091954
O        3.40637450       1.94505127       7.22368334       24      -0.00056847       0.00055840      -0.00097695
O       12.31776065       1.94505127       7.22368334       24       0.00967170       0.00492073      -0.00679130
O        0.43591245      10.34678670       7.22368334       24      -0.00027494       0.00045931      -0.00092551
O        9.34729860      10.34678670       7.22368334       24      -0.00027481       0.00046633      -0.00091957
O        0.43591245      -2.25581645      14.49979966       24      -0.00027770       0.00045624      -0.00090898
O        9.34729860      -2.25581645      14.49979966       24      -0.00034220       0.00048099      -0.00093593
O       -2.53454960       6.14591899      14.49979966       24      -0.00027256       0.00045226      -0.00094664
O        6.37683655       6.14591899      14.49979966       24      -0.00028541       0.00041500      -0.00095938
O        5.24257035      -1.75947724       3.58562518       25      -0.00057059       0.00015639      -0.00092108
O       14.15395650      -1.75947724       3.58562518       25      -0.00032513       0.00062048      -0.00052933
O        2.27210830       6.64225819       3.58562518       25      -0.00056313       0.00011584      -0.00092608
O       11.18349445       6.64225819       3.58562518       25      -0.00115099       0.00055675      -0.00138505
O        2.27210830      -5.96034496      10.86174150       25      -0.00053750       0.00012590      -0.00093829
O       11.18349445      -5.96034496      10.86174150       25      -0.00053792       0.00011030      -0.00094482
O       -0.69835375       2.44139048      10.86174150       25      -0.00051882       0.00017676      -0.00075294
O        8.21303240       2.44139048      10.86174150       25      -0.00059287       0.00011823      -0.00089943
O        6.37683655       3.27375038       1.71068029       26      -0.00030950       0.00057366       0.00091308
O       15.28822270       3.27375038       1.71068029       26       0.00014685       0.00069991       0.00096812
O        3.40637450      11.67548581       1.71068029       26      -0.00029124       0.00060517       0.00087972
O       12.31776065      11.67548581       1.71068029       26      -0.00031006       0.00059767       0.00087630
O        3.40637450      -0.92711734       8.98679661       26      -0.00027683       0.00055022       0.00086590
O       12.31776065      -0.92711734       8.98679661       26      -0.00008914      -0.00007979       0.00105001
O        0.43591245       7.47461810       8.98679661       26      -0.00031372       0.00051547       0.00082742
O        9.34729860       7.47461810       8.98679661       26      -0.00033719       0.00056781       0.00092350
O        3.66881580       2.31632046       3.90711876       27       0.00030675       0.00089634      -0.00030948
O       12.58020195       2.31632046       3.90711876       27       0.01337489       0.00638633       0.01627560
O        0.69835375      10.71805589       3.90711876       27       0.00057400       0.00090487      -0.00036867
O        9.60973990      10.71805589       3.90711876       27       0.00055563       0.00090636      -0.00034537
O        0.69835375      -1.88454726      11.18323508       27       0.00054941       0.00082816      -0.00033262
O        9.60973990      -1.88454726      11.18323508       27       0.00052423       0.00084730      -0.00031793
O       -2.27210830       6.51718818      11.18323508       27       0.00048090       0.00086820      -0.00039983
O        6.63927785       6.51718818      11.18323508       27       0.00061708       0.00084006      -0.00041549
O        0.69835375       4.32593774       6.95462273       28      -0.00002964      -0.00102925      -0.00119911
O        9.60973990       4.32593774       6.95462273       28      -0.00015283      -0.00018687      -0.00023134
O       -2.27210830      12.72767317       6.95462273       28       0.00053729      -0.00075331      -0.00058199
O        6.63927785      12.72767317       6.95462273       28       0.00058468      -0.00083498      -0.00056702
O       -2.27210830       0.12507002      14.23073905       28       0.00054968      -0.00074785      -0.00058276
O        6.63927785       0.12507002      14.23073905       28       0.00055428      -0.00073649      -0.00059944
O       -5.24257035       8.52680546      14.23073905       28       0.00054039      -0.00076128      -0.00058372
O        3.66881580       8.52680546      14.23073905       28       0.00047361      -0.00070021      -0.00050670
O        2.27210830      -0.12507002       0.32149358       29      -0.00053969       0.00075803       0.00060922
O       11.18349445      -0.12507002       0.32149358       29      -0.00066077       0.00065504       0.00047960
O       -0.69835375       8.27666541       0.32149358       29      -0.00052860       0.00072188       0.00060713
O        8.21303240       8.27666541       0.32149358       29      -0.00051183       0.00071114       0.00060342
O       -0.69835375      -4.32593774       7.59760990       29      -0.00055274       0.00074320       0.00056179
O        8.21303240      -4.32593774       7.59760990       29      -0.00054103       0.00074787       0.00055543
O       -3.66881580       4.07579770       7.59760990       29       0.00441019       0.00343101       0.00474243
O        5.24257035       4.07579770       7.59760990       29      -0.00053898       0.00070466       0.00051383
O       -3.40637450       0.92711734       5.56543602       30       0.00675134      -0.00740436      -0.00173545
O        5.50501165       0.92711734       5.56543602       30       0.00025748      -0.00056073      -0.00087592
O       -6.37683655       9.32885277       5.56543602       30       0.00017173      -0.00044875      -0.00081954
O        2.53454960       9.32885277       5.56543602       30       0.00030461      -0.00063700      -0.00086819
O       -6.37683655      -3.27375038      12.84155234       30       0.00032558      -0.00060328      -0.00086855
O        2.53454960      -3.27375038      12.84155234       30       0.00032073      -0.00058177      -0.00084481
O       -9.34729860       5.12798506      12.84155234       30       0.00031568      -0.00056691      -0.00088441
O       -0.43591245       5.12798506      12.84155234       30       0.00028590      -0.00056755      -0.00090244
O        5.06563752       0.77177513       1.97974090       31       0.00082045      -0.00035634       0.00055776
O       13.97702367       0.77177513       1.97974090       31       0.00142957      -0.00080548       0.00029763