320
Lattice="17.82277229767026 1.3968990124634205e-09 -1.3016760742157139e-15 -5.940924100540427 16.803470867836204 -2.419501786820327e-09 -5.940924098564913 -8.401735432521198 14.55223264491091" Properties=species:S:1:pos:R:3:spacegroup_kinds:I:1:forces:R:3 spacegroup="P 1" unit_cell=conventional occupancy="_JSON {\"0\": {\"In\": 1}, \"1\": {\"In\": 1}, \"2\": {\"In\": 1}, \"3\": {\"In\": 1}, \"4\": {\"In\": 1}, \"5\": {\"In\": 1}, \"6\": {\"In\": 1}, \"7\": {\"In\": 1}, \"8\": {\"In\": 1}, \"9\": {\"In\": 1}, \"10\": {\"In\": 1}, \"11\": {\"In\": 1}, \"12\": {\"In\": 1}, \"13\": {\"In\": 1}, \"14\": {\"In\": 1}, \"15\": {\"In\": 1}, \"16\": {\"O\": 1}, \"17\": {\"O\": 1}, \"18\": {\"O\": 1}, \"19\": {\"O\": 1}, \"20\": {\"O\": 1}, \"21\": {\"O\": 1}, \"22\": {\"O\": 1}, \"23\": {\"O\": 1}, \"24\": {\"O\": 1}, \"25\": {\"O\": 1}, \"26\": {\"O\": 1}, \"27\": {\"O\": 1}, \"28\": {\"O\": 1}, \"29\": {\"O\": 1}, \"30\": {\"O\": 1}, \"31\": {\"O\": 1}, \"32\": {\"O\": 1}, \"33\": {\"O\": 1}, \"34\": {\"O\": 1}, \"35\": {\"O\": 1}, \"36\": {\"O\": 1}, \"37\": {\"O\": 1}, \"38\": {\"O\": 1}, \"39\": {\"O\": 1}}" n_minim_iter=5 energy=-361215.2758788765 stress="-4.2858877925482545e-05 1.0659063874064755e-06 -5.861308332450435e-06 1.0659063874064755e-06 -2.870682067595036e-05 5.973247768927002e-06 -5.861308332450435e-06 5.973247768927002e-06 -3.2720797509021006e-05" free_energy=-45151.909527623415 pbc="T T T"
In      -4.25505494       3.00877820       5.70281776        0       0.00237807      -0.00067236       0.00136441
In       4.65633121       3.00877820       5.70281776        0       0.00231027      -0.00157483       0.00254251
In      -7.22551699      11.41051363       5.70281776        0       0.00118420      -0.00085247       0.00144287
In       1.68586916      11.41051363       5.70281776        0       0.00113273      -0.00077804       0.00141633
In      -7.22551699      -1.19208952      12.97893408        0       0.00126809      -0.00092439       0.00151662
In       1.68586916      -1.19208952      12.97893408        0       0.00118054      -0.00082142       0.00144927
In     -10.19597904       7.20964592      12.97893408        0       0.00117823      -0.00083034       0.00141487
In      -1.28459289       7.20964592      12.97893408        0       0.00118317      -0.00082095       0.00146091
In       7.22551699       1.19208952       1.57329855        1      -0.00108994       0.00078294      -0.00153319
In      16.13690314       1.19208952       1.57329855        1      -0.00097683       0.00064955      -0.00100355
In       4.25505494       9.59382495       1.57329855        1      -0.00114693       0.00090113      -0.00145367
In      13.16644109       9.59382495       1.57329855        1      -0.00113878       0.00078502      -0.00139281
In       4.25505494      -3.00877820       8.84941487        1      -0.00118448       0.00083293      -0.00144110
In      13.16644109      -3.00877820       8.84941487        1      -0.00115515       0.00087033      -0.00148362
In       1.28459289       5.39295724       8.84941487        1      -0.00125221       0.00062046      -0.00166229
In      10.19597904       5.39295724       8.84941487        1      -0.00117162       0.00084715      -0.00143141
In       1.28459289      -0.90834434       5.21135671        2      -0.00126013       0.00088170      -0.00132322
In      10.19597904      -0.90834434       5.21135671        2      -0.00120421       0.00082883      -0.00145618
In      -1.68586916       7.49339109       5.21135671        2      -0.00098355       0.00006446      -0.00143394
In       7.22551699       7.49339109       5.21135671        2      -0.00105876       0.00097769      -0.00148817
In      -1.68586916      -5.10921206      12.48747303        2      -0.00117307       0.00076445      -0.00143522
In       7.22551699      -5.10921206      12.48747303        2      -0.00118124       0.00082586      -0.00147108
In      -4.65633121       3.29252338      12.48747303        2      -0.00115784       0.00085410      -0.00147461
In       4.25505494       3.29252338      12.48747303        2      -0.00120107       0.00082854      -0.00141729
In       4.45569307       6.30130157       3.63805816        3      -0.00033305       0.00023803      -0.00051009
In      13.36707922       6.30130158       3.63805816        3       0.00045291      -0.00024499       0.00006997
In       1.48523102      14.70303701       3.63805816        3      -0.00002358       0.00003589      -0.00000708
In      10.39661717      14.70303701       3.63805816        3       0.00003983       0.00012235      -0.00003924
In       1.48523102       2.10043386      10.91417448        3      -0.00005896      -0.00000586      -0.00001443
In      10.39661717       2.10043386      10.91417448        3       0.00000621       0.00000144      -0.00001474
In      -1.48523103      10.50216929      10.91417448        3      -0.00000216      -0.00000809      -0.00000539
In       7.42615512      10.50216929      10.91417448        3      -0.00000221       0.00000099       0.00004227
In      -1.28459289       4.05899513       3.39232763        4      -0.02211890      -0.00205538      -0.00510664
In       7.62679326       4.05899513       3.39232763        4       0.00134168      -0.00086604      -0.00148001
In      -4.25505494      12.46073056       3.39232763        4       0.00118030      -0.00082508      -0.00144130
In       4.65633121      12.46073056       3.39232763        4       0.00115753      -0.00078473      -0.00146112
In      -4.25505494      -0.14187259      10.66844395        4       0.00119776      -0.00081179      -0.00147633
In       4.65633121      -0.14187259      10.66844395        4       0.00117587      -0.00087426      -0.00141309
In      -7.22551699       8.25986285      10.66844395        4       0.00119035      -0.00082241      -0.00142911
In       1.68586916       8.25986285      10.66844395        4       0.00120491      -0.00082911      -0.00143921
In       4.65633121      -2.86690561       5.45708724        5       0.00123137       0.00157121       0.00005036
In      13.56771736      -2.86690561       5.45708724        5       0.00116390       0.00161881      -0.00001843
In       1.68586916       5.53482982       5.45708724        5      -0.00817883      -0.00884347      -0.01232049
In      10.59725531       5.53482982       5.45708724        5       0.00128222       0.00164789      -0.00004183
In       1.68586916      -7.06777333      12.73320356        5       0.00111045       0.00167851       0.00004613
In      10.59725531      -7.06777333      12.73320356        5       0.00123355       0.00169719       0.00003607
In      -1.28459289       1.33396211      12.73320356        5       0.00117662       0.00167596       0.00004289
In       7.62679326       1.33396211      12.73320356        5       0.00114041       0.00171206      -0.00003198
In      -1.28459289       1.33396210       5.45708724        6       0.00153731       0.00329912      -0.00115810
In       7.62679326       1.33396210       5.45708724        6       0.00129867       0.00164020       0.00008217
In      -4.25505494       9.73569753       5.45708724        6       0.00123202       0.00159912      -0.00003191
In       4.65633121       9.73569753       5.45708724        6       0.00123745       0.00174469      -0.00003425
In      -4.25505494      -2.86690562      12.73320356        6       0.00108691       0.00164213      -0.00025578
In       4.65633121      -2.86690562      12.73320356        6       0.00121155       0.00167128       0.00001470
In      -7.22551699       5.53482982      12.73320356        6       0.00117278       0.00162494      -0.00002340
In       1.68586916       5.53482982      12.73320356        6       0.00118951       0.00165907       0.00003476
In      -1.68586916       7.06777334       1.81902908        7      -0.00075195      -0.00186824       0.00026250
In       7.22551699       7.06777334       1.81902908        7      -0.00109336      -0.00161051      -0.00001836
In      -4.65633121      15.46950877       1.81902908        7      -0.00129165      -0.00183518      -0.00012788
In       4.25505494      15.46950877       1.81902908        7      -0.00116689      -0.00167293      -0.00000057
In      -4.65633121       2.86690562       9.09514540        7      -0.00110736      -0.00166377      -0.00008821
In       4.25505494       2.86690562       9.09514540        7      -0.00111451      -0.00162495      -0.00004139
In      -7.62679326      11.26864106       9.09514540        7      -0.00117719      -0.00166370      -0.00003609
In       1.28459289      11.26864106       9.09514540        7      -0.00117720      -0.00164385       0.00000873
In       4.25505494       0.14187259       3.88378868        8      -0.00117282       0.00004570       0.00122865
In      13.16644109       0.14187259       3.88378868        8      -0.00123512       0.00084107       0.00141160
In       1.28459289       8.54360802       3.88378868        8      -0.00171731       0.00120056       0.00176540
In      10.19597904       8.54360802       3.88378868        8      -0.00111468       0.00084402       0.00144092
In       1.28459289      -4.05899513      11.15990500        8      -0.00115958       0.00084596       0.00142792
In      10.19597904      -4.05899513      11.15990500        8      -0.00119294       0.00081659       0.00145734
In      -1.68586916       4.34274031      11.15990500        8      -0.00116692       0.00083675       0.00142928
In       7.22551699       4.34274031      11.15990500        8      -0.00117516       0.00081461       0.00142177
In       7.42615512       4.20086772      -0.00000000        9       0.00009327      -0.00005840      -0.00008526
In      16.33754127       4.20086772      -0.00000000        9       0.00045074       0.00010274       0.00033769
In       4.45569307      12.60260315      -0.00000000        9      -0.00001361       0.00001543      -0.00001181
In      13.36707922      12.60260316      -0.00000000        9       0.00001211      -0.00000861      -0.00000876
In       4.45569307       0.00000000       7.27611632        9       0.00007036       0.00005326      -0.00001478
In      13.36707922       0.00000001       7.27611632        9       0.00004710       0.00008628      -0.00001519
In       1.48523102       8.40173544       7.27611632        9      -0.00029925       0.00013049      -0.00004179
In      10.39661717       8.40173544       7.27611632        9       0.00000750       0.00000191       0.00001235
In       4.25505494       6.44317416       0.24573052       10      -0.00121540       0.00108603       0.00126010
In      13.16644109       6.44317416       0.24573052       10      -0.00128851       0.00082223       0.00144798
In       1.28459289      14.84490959       0.24573052       10      -0.00116635       0.00083453       0.00145804
In      10.19597904      14.84490959       0.24573052       10      -0.00118052       0.00084112       0.00143583
In       1.28459289       2.24230644       7.52184684       10      -0.00135697       0.00098196       0.00156821
In      10.19597904       2.24230644       7.52184684       10      -0.00114856       0.00081379       0.00143805
In      -1.68586916      10.64404188       7.52184684       10      -0.00116420       0.00079164       0.00142273
In       7.22551699      10.64404188       7.52184684       10      -0.00115940       0.00082335       0.00141640
In      -1.28459289      -2.24230644       7.03038579       11       0.00118723      -0.00081978      -0.00144578
In       7.62679326      -2.24230644       7.03038579       11       0.00118338      -0.00081472      -0.00143660
In      -4.25505494       6.15942899       7.03038579       11       0.00096263      -0.00072074      -0.00136736
In       4.65633121       6.15942899       7.03038579       11       0.00085640      -0.00027813      -0.00074027
In      -4.25505494      -6.44317416      14.30650211       11       0.00128318      -0.00118418      -0.00215843
In       4.65633121      -6.44317416      14.30650211       11       0.00122746      -0.00081683      -0.00142126
In      -7.22551699       1.95856128      14.30650211       11       0.00119293      -0.00083221      -0.00143510
In       1.68586916       1.95856128      14.30650211       11       0.00116760      -0.00085150      -0.00141483
In       4.25505494       2.86690562       1.81902908       12      -0.00154823      -0.00175830      -0.00029000
In      13.16644109       2.86690562       1.81902908       12      -0.00095339      -0.00152426       0.00004069
In       1.28459289      11.26864105       1.81902908       12      -0.00119540      -0.00167851       0.00003247
In      10.19597904      11.26864105       1.81902908       12      -0.00117942      -0.00167192       0.00000323
In       1.28459289      -1.33396210       9.09514540       12      -0.00121059      -0.00166705       0.00000669
In      10.19597904      -1.33396210       9.09514540       12      -0.00118384      -0.00166757       0.00001579
In      -1.68586916       7.06777334       9.09514540       12      -0.00122787      -0.00165040      -0.00011989
In       7.22551699       7.06777334       9.09514540       12      -0.00119238      -0.00169384      -0.00004378
In       1.68586916       5.10921206       2.06475960       13      -0.00390523      -0.00349797       0.00714316
In      10.59725531       5.10921206       2.06475960       13       0.00125446      -0.00080634       0.00142666
In      -1.28459289      13.51094749       2.06475960       13       0.00117411      -0.00079217       0.00142150
In       7.62679326      13.51094749       2.06475960       13       0.00116933      -0.00083646       0.00147576
In      -1.28459289       0.90834434       9.34087592       13       0.00121180      -0.00077182       0.00131885
In       7.62679326       0.90834434       9.34087592       13       0.00115800      -0.00079379       0.00139516
In      -4.25505494       9.31007978       9.34087592       13       0.00116452      -0.00084811       0.00145562
In       4.65633121       9.31007978       9.34087592       13       0.00115938      -0.00081043       0.00144917
In       1.48523102       8.40173543      -0.00000000       14      -0.00011468       0.00018281      -0.00003829
In      10.39661717       8.40173543      -0.00000000       14       0.00003144      -0.00000945      -0.00001238
In      -1.48523103      16.80347087      -0.00000000       14       0.00002063       0.00009249      -0.00001036
In       7.42615512      16.80347087      -0.00000000       14       0.00005794       0.00005304       0.00005215
In      -1.48523103       4.20086772       7.27611632       14       0.00047876      -0.00000419      -0.00179975
In       7.42615512       4.20086772       7.27611632       14       0.00017288      -0.00013536       0.00012771
In      -4.45569308      12.60260315       7.27611632       14       0.00000352      -0.00001751       0.00001176
In       4.45569307      12.60260315       7.27611632       14      -0.00001762       0.00004569       0.00001245
In       1.48523102       2.10043386       3.63805816       15      -0.00528773       0.00756578       0.00040877
In      10.39661717       2.10043386       3.63805816       15       0.00003826      -0.00000593      -0.00000330
In      -1.48523103      10.50216929       3.63805816       15       0.00005578       0.00006086      -0.00004331
In       7.42615512      10.50216929       3.63805816       15      -0.00002980      -0.00005529       0.00000683
In      -1.48523103      -2.10043386      10.91417448       15       0.00001064       0.00000807      -0.00006455
In       7.42615512      -2.10043386      10.91417448       15      -0.00001352      -0.00000888      -0.00002912
In      -4.45569308       6.30130158      10.91417448       15      -0.00001860       0.00002202       0.00000883
In       4.45569307       6.30130158      10.91417448       15      -0.00000097      -0.00000101       0.00005030
O        0.86528657       4.20082734       3.95955174       16       0.06979818       0.01772644       0.01464882
O        9.78667272       4.20082734       3.95955174       16      -0.00088661       0.00026413       0.00056988
O       -2.09517548      12.60256277       3.95955174       16      -0.00084819       0.00026218       0.00056884
O        6.81621067      12.60256277       3.95955174       16      -0.00083791       0.00034445       0.00058121
O       -2.09517548      -0.00004038      11.23566806       16      -0.00084699       0.00029636       0.00050617
O        6.81621067      -0.00004038      11.23566806       16      -0.00087689       0.00025411       0.00059494
O       -5.06563753       8.40169506      11.23566806       16      -0.00088490       0.00025839       0.00056438
O        3.84574862       8.40169506      11.23566806       16      -0.00085371       0.00025508       0.00056209
O       -2.09517548       3.42909259       5.29637542       17      -0.00611585      -0.00188186       0.00191605
O        6.81621067       3.42909259       5.29637542       17      -0.00120754       0.00033329      -0.00051163
O       -5.06563753      11.83082802       5.29637542       17      -0.00088122       0.00036989      -0.00052192
O        3.84574862      11.83082802       5.29637542       17      -0.00088508       0.00032711      -0.00051600
O       -5.06563753      -0.77177513      12.57249174       17      -0.00088627       0.00040934      -0.00059067
O        3.84574862      -0.77177513      12.57249174       17      -0.00088313       0.00036305      -0.00050974
O       -8.03609958       7.62996031      12.57249174       17      -0.00089413       0.00040210      -0.00047014
O        0.87528657       7.62996031      12.57249174       17      -0.00089813       0.00036931      -0.00052795
O       -0.43591245       2.25581645       0.05243298       18       0.00025621      -0.00073347       0.00029535
O        8.47547370       2.25581645       0.05243298       18       0.00019417      -0.00044809       0.00098352
O       -3.40637450      10.65755188       0.05243298       18       0.00027309      -0.00039563       0.00092657
O        5.50501165      10.65755188       0.05243298       18       0.00027039      -0.00051519       0.00095389
O       -3.40637450      -1.94505127       7.32854930       18       0.00024706      -0.00051637       0.00097441
O        5.50501165      -1.94505127       7.32854930       18       0.00029011      -0.00041473       0.00084704
O       -6.37683655       6.45668417       7.32854930       18       0.00024953      -0.00043518       0.00098719
O        2.53454960       6.45668417       7.32854930       18       0.00067424      -0.00039225       0.00097350
O       -0.87528658      -0.77181551       1.97981084       19       0.00069876       0.00018430      -0.00027810
O        8.03609957      -0.77181551       1.97981084       19       0.00083380       0.00065263       0.00008849
O       -3.84574863       7.62991992       1.97981084       19       0.00092432       0.00065675       0.00014072
O        5.06563752       7.62991992       1.97981084       19       0.00080903       0.00054936      -0.00018814
O       -3.84574863      -4.97268323       9.25592716       19       0.00087999       0.00063501       0.00004962
O        5.06563752      -4.97268323       9.25592716       19       0.00088806       0.00062755       0.00006524
O       -6.81621068       3.42905221       9.25592716       19       0.00088076       0.00062999       0.00007333
O        2.09517547       3.42905221       9.25592716       19       0.00105179       0.00051644       0.00046099
O        3.93137132       5.00295542       1.92737786       20       0.00043375      -0.00011803      -0.00019346
O       12.84275747       5.00295542       1.92737786       20       0.00070959      -0.00034712      -0.00098576
O        0.96090927      13.40469085       1.92737786       20       0.00063430      -0.00004708      -0.00086936
O        9.87229542      13.40469085       1.92737786       20       0.00066087      -0.00005325      -0.00087158
O        0.96090927       0.80208770       9.20349418       20       0.00062005      -0.00008153      -0.00086989
O        9.87229542       0.80208770       9.20349418       20       0.00066781      -0.00008288      -0.00088514
O       -2.00955278       9.20382314       9.20349418       20       0.00059997      -0.00012975      -0.00084456
O        6.90183337       9.20382314       9.20349418       20       0.00060315      -0.00014112      -0.00093639
O        2.00955278       2.93275338       1.65831726       21      -0.00256485       0.00543859       0.00799203
O       10.92093893       2.93275338       1.65831726       21      -0.00056842       0.00070109      -0.00053778
O       -0.96090927      11.33448881       1.65831726       21      -0.00060841       0.00071752      -0.00048345
O        7.95047688      11.33448881       1.65831726       21      -0.00064061       0.00071193      -0.00051951
O       -0.96090927      -1.26811434       8.93443358       21      -0.00064394       0.00075056      -0.00043771
O        7.95047688      -1.26811434       8.93443358       21      -0.00064069       0.00071021      -0.00051520
O       -3.93137132       7.13362110       8.93443358       21      -0.00064602       0.00074496      -0.00047183
O        4.98001483       7.13362110       8.93443358       21      -0.00061032       0.00082753      -0.00034389
O        2.00955277       6.27106976       0.26906060       22      -0.00009275      -0.00048306      -0.00060300
O       10.92093892       6.27106976       0.26906060       22      -0.00076002      -0.00075609      -0.00039459
O       -0.96090928      14.67280519       0.26906060       22      -0.00065587      -0.00070281      -0.00029481
O        7.95047687      14.67280519       0.26906060       22      -0.00069576      -0.00088287      -0.00036927
O       -0.96090928       2.07020204       7.54517692       22      -0.00090381      -0.00141375       0.00057467
O        7.95047687       2.07020204       7.54517692       22      -0.00074056      -0.00076187      -0.00042947
O       -3.93137133      10.47193748       7.54517692       22      -0.00067993      -0.00080193      -0.00030354
O        4.98001482      10.47193748       7.54517692       22      -0.00064486      -0.00086067      -0.00037641
O       -2.27210830       5.96034496       3.69049114       23      -0.00144473       0.00183981       0.00029301
O        6.63927785       5.96034496       3.69049114       23       0.00049229      -0.00010333       0.00102760
O       -5.24257035      14.36208039       3.69049114       23       0.00053924      -0.00010176       0.00092807
O        3.66881580      14.36208039       3.69049114       23       0.00055392      -0.00011298       0.00093534
O       -5.24257035       1.75947724      10.96660746       23       0.00053781      -0.00014630       0.00094161
O        3.66881580       1.75947724      10.96660746       23       0.00051932      -0.00008243       0.00096429
O       -8.21303240      10.16121268      10.96660746       23       0.00052642      -0.00012744       0.00095249
O        0.69835375      10.16121268      10.96660746       23       0.00054814      -0.00014914       0.00092200
O        3.40637450       1.94505127       7.22368334       24      -0.00047466       0.00044904      -0.00101413
O       12.31776065       1.94505127       7.22368334       24      -0.00033238       0.00047027      -0.00096081
O        0.43591245      10.34678670       7.22368334       24      -0.00023179       0.00054051      -0.00094657
O        9.34729860      10.34678670       7.22368334       24      -0.00029467       0.00047427      -0.00093623
O        0.43591245      -2.25581645      14.49979966       24      -0.00029221       0.00047722      -0.00096004
O        9.34729860      -2.25581645      14.49979966       24      -0.00099122       0.00053847      -0.00113863
O       -2.53454960       6.14591899      14.49979966       24      -0.00030122       0.00046935      -0.00093702
O        6.37683655       6.14591899      14.49979966       24      -0.00028097       0.00050315      -0.00093982
O        5.24257035      -1.75947724       3.58562518       25      -0.00050417       0.00004159      -0.00099266
O       14.15395650      -1.75947724       3.58562518       25      -0.00055530       0.00004244      -0.00095445
O        2.27210830       6.64225819       3.58562518       25      -0.00473715      -0.01140816       0.00006710
O       11.18349445       6.64225819       3.58562518       25      -0.00055758       0.00016282      -0.00092380
O        2.27210830      -5.96034496      10.86174150       25      -0.00052833       0.00012617      -0.00094924
O       11.18349445      -5.96034496      10.86174150       25      -0.00050070       0.00009087      -0.00089724
O       -0.69835375       2.44139048      10.86174150       25      -0.00048340       0.00004408      -0.00096290
O        8.21303240       2.44139048      10.86174150       25      -0.00053826       0.00013321      -0.00093704
O        6.37683655       3.27375038       1.71068029       26      -0.00041746       0.00040380       0.00090782
O       15.28822270       3.27375038       1.71068029       26       0.00020533       0.00065369       0.00126332
O        3.40637450      11.67548581       1.71068029       26      -0.00028237       0.00062617       0.00085839
O       12.31776065      11.67548581       1.71068029       26      -0.00029022       0.00057513       0.00088465
O        3.40637450      -0.92711734       8.98679661       26      -0.00035042       0.00051667       0.00088919
O       12.31776065      -0.92711734       8.98679661       26      -0.00031973       0.00057549       0.00089650
O        0.43591245       7.47461810       8.98679661       26      -0.00039870       0.00052705       0.00082689
O        9.34729860       7.47461810       8.98679661       26      -0.00029667       0.00058583       0.00088547
O        3.66881580       2.31632046       3.90711876       27      -0.00282331       0.00380521       0.00012491
O       12.58020195       2.31632046       3.90711876       27       0.00057661       0.00091320      -0.00052481
O        0.69835375      10.71805589       3.90711876       27       0.00053565       0.00090282      -0.00036658
O        9.60973990      10.71805589       3.90711876       27       0.00055979       0.00089401      -0.00035970
O        0.69835375      -1.88454726      11.18323508       27       0.00054421       0.00086216      -0.00034982
O        9.60973990      -1.88454726      11.18323508       27       0.00054737       0.00088082      -0.00035582
O       -2.27210830       6.51718818      11.18323508       27       0.00050264       0.00091323      -0.00035641
O        6.63927785       6.51718818      11.18323508       27       0.00051490       0.00086021      -0.00043233
O        0.69835375       4.32593774       6.95462273       28       0.00225109      -0.00019582       0.00015153
O        9.60973990       4.32593774       6.95462273       28       0.00049696      -0.00074775      -0.00057996
O       -2.27210830      12.72767317       6.95462273       28       0.00052151      -0.00073941      -0.00057247
O        6.63927785      12.72767317       6.95462273       28       0.00057989      -0.00069155      -0.00057965
O       -2.27210830       0.12507002      14.23073905       28       0.00062551      -0.00070232      -0.00062794
O        6.63927785       0.12507002      14.23073905       28       0.00048399      -0.00073002      -0.00061917
O       -5.24257035       8.52680546      14.23073905       28       0.00048764      -0.00069221      -0.00053446
O        3.66881580       8.52680546      14.23073905       28       0.00056468      -0.00072316      -0.00053591
O        2.27210830      -0.12507002       0.32149358       29      -0.00061602       0.00096804       0.00057718
O       11.18349445      -0.12507002       0.32149358       29      -0.00059218       0.00072341       0.00056084
O       -0.69835375       8.27666541       0.32149358       29      -0.00080435       0.00098719       0.00054734
O        8.21303240       8.27666541       0.32149358       29      -0.00058901       0.00072113       0.00059907
O       -0.69835375      -4.32593774       7.59760990       29      -0.00053925       0.00074227       0.00057640
O        8.21303240      -4.32593774       7.59760990       29      -0.00054801       0.00073545       0.00057773
O       -3.66881580       4.07579770       7.59760990       29      -0.00061153       0.00096843       0.00067380
O        5.24257035       4.07579770       7.59760990       29      -0.00066094       0.00103789       0.00056821
O       -3.40637450       0.92711734       5.56543602       30       0.00024545      -0.00076460      -0.00083892
O        5.50501165       0.92711734       5.56543602       30       0.00052890      -0.00086680      -0.00097156
O       -6.37683655       9.32885277       5.56543602       30       0.00023609      -0.00053511      -0.00087040
O        2.53454960       9.32885277       5.56543602       30       0.00026857      -0.00055238      -0.00097825
O       -6.37683655      -3.27375038      12.84155234       30       0.00020848      -0.00063285      -0.00097987
O        2.53454960      -3.27375038      12.84155234       30       0.00030487      -0.00057244      -0.00088284
O       -9.34729860       5.12798506      12.84155234       30       0.00029491      -0.00058306      -0.00087261
O       -0.43591245       5.12798506      12.84155234       30       0.00029898      -0.00057754      -0.00087186
O        5.06563752       0.77177513       1.97974090       31       0.00081189      -0.00032734       0.00058220
O       13.97702367       0.77177513       1.97974090       31       0.00092572      -0.00012204       0.00059877