40
Lattice="9.54822898254521 7.483653696738216e-10 8.437694987151161e-15 -3.182742994887302 9.002156615590065 -1.2962111384240447e-09 -3.1827429938289624 -4.501078307046666 7.796096318811288" Properties=species:S:1:pos:R:3:spacegroup_kinds:I:1:forces:R:3 spacegroup="P 1" unit_cell=conventional occupancy="_JSON {\"0\": {\"In\": 1}, \"1\": {\"In\": 1}, \"2\": {\"In\": 1}, \"3\": {\"In\": 1}, \"4\": {\"In\": 1}, \"5\": {\"In\": 1}, \"6\": {\"In\": 1}, \"7\": {\"In\": 1}, \"8\": {\"In\": 1}, \"9\": {\"In\": 1}, \"10\": {\"In\": 1}, \"11\": {\"In\": 1}, \"12\": {\"In\": 1}, \"13\": {\"In\": 1}, \"14\": {\"In\": 1}, \"15\": {\"In\": 1}, \"16\": {\"O\": 1}, \"17\": {\"O\": 1}, \"18\": {\"O\": 1}, \"19\": {\"O\": 1}, \"20\": {\"O\": 1}, \"21\": {\"O\": 1}, \"22\": {\"O\": 1}, \"23\": {\"O\": 1}, \"24\": {\"O\": 1}, \"25\": {\"O\": 1}, \"26\": {\"O\": 1}, \"27\": {\"O\": 1}, \"28\": {\"O\": 1}, \"29\": {\"O\": 1}, \"30\": {\"O\": 1}, \"31\": {\"O\": 1}, \"32\": {\"O\": 1}, \"33\": {\"O\": 1}, \"34\": {\"O\": 1}, \"35\": {\"O\": 1}, \"36\": {\"O\": 1}, \"37\": {\"O\": 1}, \"38\": {\"O\": 1}, \"39\": {\"O\": 1}}" n_minim_iter=5 energy=-45151.59030275495 stress="0.006334724555859242 -7.604267842539849e-14 -5.765693208328635e-13 -7.604267842539849e-14 0.006334724555680777 -2.7508156854371913e-13 -5.765693208328635e-13 -2.7508156854371913e-13 0.006334724555505679" free_energy=-45151.59030275495 pbc="T T T"
In      -4.50164008       3.18314023       6.18078388        0       0.00207936      -0.00147033       0.00254668
In       7.68438307       1.31793808       1.61531244        1      -0.00207936       0.00147033      -0.00254668
In       1.31889708      -0.93260107       5.51336060        2      -0.00207936       0.00147033      -0.00254668
In      -1.59137150      -2.25053915       3.89804816        3       0.00000000      -0.00000000      -0.00000000
In      -1.31889709       4.30840980       3.56433652        4       0.00207936      -0.00147033      -0.00254668
In       5.04658890      -2.99047172       5.84707224        5       0.00207936       0.00294066       0.00000000
In      -1.31889709       1.51060659       5.84707224        6       0.00207936       0.00294066      -0.00000000
In      -1.86384591       7.49155003       1.94902408        7      -0.00207936      -0.00294066       0.00000000
In       4.50164008       0.19266851       4.23175980        8      -0.00207936       0.00147033       0.00254668
In      -1.59137150       4.50107831      -0.00000000        9      -0.00000000      -0.00000000      -0.00000000
In       4.50164008       6.94428597       0.33371164       10      -0.00207936       0.00147033       0.00254668
In      -1.31889709      -2.44320766       7.46238468       11       0.00207936      -0.00147033      -0.00254668
In       4.50164008       2.99047172       1.94902408       12      -0.00207936      -0.00294066      -0.00000000
In       1.86384591       5.43367938       2.28273572       13       0.00207936      -0.00147033       0.00254668
In       4.77411449       0.00000000      -0.00000000       14       0.00000000      -0.00000000      -0.00000000
In       1.59137150       2.25053916       3.89804816       15      -0.00000000       0.00000000       0.00000000
O        1.08129352       4.51396105       4.18592463       16       0.00275618       0.00811952       0.00340885
O       -2.10144947       3.61867570       5.69197722       17       0.00275618      -0.00110761      -0.00873614
O       -0.45936002       2.45754311      -0.09297847       18       0.00752962      -0.00448294      -0.00288989
O       -1.08129352      -0.86951987       2.08180553       19      -0.00275618       0.00701191      -0.00532729
O        4.11220332       5.31691704       2.17478399       20      -0.00196299      -0.00868039      -0.00243739
O        2.25328267       3.02557949       1.79392906       21       0.00196299      -0.00222935      -0.00873614
O        2.25328266       6.79241586       0.38085493       22       0.00196299      -0.00645104       0.00629874
O       -2.47011387       6.36552521       3.80506969       23       0.00673643      -0.00560468      -0.00288989
O        3.64210301       2.04353520       7.88907478       24      -0.00752962       0.00448294       0.00288989
O        5.65285686      -1.86444690       3.99102662       25      -0.00673643       0.00560468       0.00288989
O        6.82484601       3.39878900       1.72326416       26      -0.00752962      -0.00474419       0.00243739
O        3.89537212       2.36306357       4.27890309       27       0.00673643       0.00029962       0.00629874
O        0.71262912       4.77464615       7.50821985       28       0.00673643       0.00530506      -0.00340885
O        2.47011387      -0.27356784       0.28787647       29      -0.00673643      -0.00530506       0.00340885
O       -3.64210302       1.10228931       6.07283215       30       0.00752962       0.00474419      -0.00243739
O        5.28419246       0.88240261       2.10411909       31      -0.00275618       0.00110761       0.00873614
O        0.92946033       1.47549883       6.00216725       32      -0.00196299       0.00222935       0.00873614
O        3.64210301      -0.94124589       5.97985369       33      -0.00752962       0.00026125      -0.00532729
O        2.10144947      -0.01288274       3.61017169       34      -0.00275618      -0.00811952      -0.00340885
O        0.92946033      -2.29133755       7.41524138       35      -0.00196299       0.00645104      -0.00629874
O       -0.71262913       2.13801474       3.51719322       36      -0.00673643      -0.00029962      -0.00629874
O       -0.92946033      -0.81583873       5.62131232       37       0.00196299       0.00868039       0.00243739
O       -0.45936002       5.44232420       1.81624262       38       0.00752962      -0.00026125       0.00532729
O        4.26403651       5.37059818       5.71429078       39       0.00275618      -0.00701191       0.00532729
