40
Lattice="8.396387301403076 6.580840317127468e-10 9.769962616701378e-15 -2.798795767754806 7.91618986416828 -1.1398504362603035e-09 -2.7987957668241417 -3.9580949314260456 6.855621524310509" Properties=species:S:1:pos:R:3:spacegroup_kinds:I:1:forces:R:3 spacegroup="P 1" unit_cell=conventional occupancy="_JSON {\"0\": {\"In\": 1}, \"1\": {\"In\": 1}, \"2\": {\"In\": 1}, \"3\": {\"In\": 1}, \"4\": {\"In\": 1}, \"5\": {\"In\": 1}, \"6\": {\"In\": 1}, \"7\": {\"In\": 1}, \"8\": {\"In\": 1}, \"9\": {\"In\": 1}, \"10\": {\"In\": 1}, \"11\": {\"In\": 1}, \"12\": {\"In\": 1}, \"13\": {\"In\": 1}, \"14\": {\"In\": 1}, \"15\": {\"In\": 1}, \"16\": {\"O\": 1}, \"17\": {\"O\": 1}, \"18\": {\"O\": 1}, \"19\": {\"O\": 1}, \"20\": {\"O\": 1}, \"21\": {\"O\": 1}, \"22\": {\"O\": 1}, \"23\": {\"O\": 1}, \"24\": {\"O\": 1}, \"25\": {\"O\": 1}, \"26\": {\"O\": 1}, \"27\": {\"O\": 1}, \"28\": {\"O\": 1}, \"29\": {\"O\": 1}, \"30\": {\"O\": 1}, \"31\": {\"O\": 1}, \"32\": {\"O\": 1}, \"33\": {\"O\": 1}, \"34\": {\"O\": 1}, \"35\": {\"O\": 1}, \"36\": {\"O\": 1}, \"37\": {\"O\": 1}, \"38\": {\"O\": 1}, \"39\": {\"O\": 1}}" n_minim_iter=1 energy=-45151.90064390343 stress="-0.0002971879004430412 6.271772097448984e-13 5.797732102034571e-13 6.271772097448984e-13 -0.0002971879004971836 9.327397122603005e-13 5.797732102034571e-13 9.327397122603005e-13 -0.0002971878994446449" free_energy=-45151.90064390343 pbc="T T T"
In      -4.00254510       2.83022678       5.38133570        0      -0.00109748       0.00077604      -0.00134413
In       6.80134086       1.12786815       1.47428582        1       0.00109748      -0.00077604       0.00134413
In       1.20374933      -0.85117931       4.90209658        2       0.00109748      -0.00077604       0.00134413
In      -1.39939788      -1.97904746       3.42781076        3       0.00000000       0.00000000       0.00000000
In      -1.20374933       3.81975052       3.18819120        4      -0.00109748       0.00077604       0.00134413
In       4.39384220      -2.69188236       5.14171614        5      -0.00109748      -0.00155207       0.00000000
In      -1.20374933       1.26621257       5.14171614        6      -0.00109748      -0.00155207      -0.00000000
In      -1.59504644       6.64997730       1.71390538        7       0.00109748       0.00155207       0.00000000
In       4.00254510       0.13834442       3.66743032        8       0.00109748      -0.00077604      -0.00134413
In      -1.39939789       3.95809493      -0.00000000        9      -0.00000000      -0.00000000       0.00000000
In       4.00254510       6.07548682       0.23961956       10       0.00109748      -0.00077604      -0.00134413
In      -1.20374933      -2.11739188       6.61600196       11      -0.00109748       0.00077604       0.00134413
In       4.00254510       2.69188236       1.71390538       12       0.00109748       0.00155207      -0.00000000
In       1.59504644       4.80927425       1.95352494       13      -0.00109748       0.00077604      -0.00134413
In       4.19819365       0.00000000      -0.00000000       14       0.00000000       0.00000000       0.00000000
In       1.39939788       1.97904747       3.42781076       15       0.00000000      -0.00000000      -0.00000000
O        0.79985482       3.95097293       3.76410448       16      -0.02171779      -0.00572766       0.05211168
O       -1.99894094       3.26337111       4.97973712       17      -0.02171779       0.04799387      -0.02109554
O       -0.39508832       2.12927604       0.08842587       18       0.03260970       0.00957854       0.04544177
O       -0.79985483      -0.70184583       1.88822008       19       0.02171779       0.04226621       0.03101614
O        3.74304943       4.71099346       1.79979421       20       0.05248832      -0.01603039      -0.01442563
O        1.85454210       2.77587669       1.55192636       21      -0.05248832       0.00447777      -0.02109554
O        1.85454210       5.89321171       0.24786785       22      -0.05248832      -0.02050816       0.00666991
O       -2.13919681       5.59987656       3.51623663       23       0.00183917      -0.03393756       0.04544177
O        3.19388408       1.82881889       6.76719565       24      -0.03260970      -0.00957854      -0.04544177
O        4.93799258      -1.64178162       3.33938489       25      -0.00183917       0.03393756      -0.04544177
O        5.99267985       3.12026454       1.62801655       26      -0.03260970       0.04414300       0.01442563
O        3.45839472       2.22425944       3.67567861       27       0.00183917       0.05632251       0.00666991
O        0.65959895       4.05014881       6.51932780       28       0.00183917      -0.02238495      -0.05211168
O        2.13919681      -0.09205387       0.33629372       29      -0.00183917       0.02238495       0.05211168
O       -3.19388409       0.83783040       5.22760497       30       0.03260970      -0.04414300      -0.01442563
O        4.79773671       0.69472383       1.87588440       31       0.02171779      -0.04799387       0.02109554
O        0.94425367       1.18221824       5.30369516       32       0.05248832      -0.00447777       0.02109554
O        3.19388408      -0.99098849       5.31603084       33      -0.03260970      -0.03456446       0.03101614
O        1.99894094       0.00712201       3.09151704       34       0.02171779       0.00572766      -0.05211168
O        0.94425367      -1.93511677       6.60775367       35       0.05248832       0.02050816      -0.00666991
O       -0.65959896       1.73383550       3.17994291       36      -0.00183917      -0.05632251      -0.00666991
O       -0.94425367      -0.75289853       5.05582731       37      -0.05248832       0.01603039       0.01442563
O       -0.39508832       4.94908343       1.53959068       38       0.03260970       0.03456446      -0.03101614
O        3.59865059       4.65994076       4.96740144       39      -0.02171779      -0.04226621      -0.03101614
40
Lattice="8.396387301403077 6.580840317127469e-10 9.769962616701379e-15 -2.7987957677548065 7.916189864168282 -1.1398504362603037e-09 -2.798795766824142 -3.9580949314260465 6.855621524310511" Properties=species:S:1:pos:R:3:spacegroup_kinds:I:1:forces:R:3 spacegroup="P 1" unit_cell=conventional occupancy="_JSON {\"0\": {\"In\": 1}, \"1\": {\"In\": 1}, \"2\": {\"In\": 1}, \"3\": {\"In\": 1}, \"4\": {\"In\": 1}, \"5\": {\"In\": 1}, \"6\": {\"In\": 1}, \"7\": {\"In\": 1}, \"8\": {\"In\": 1}, \"9\": {\"In\": 1}, \"10\": {\"In\": 1}, \"11\": {\"In\": 1}, \"12\": {\"In\": 1}, \"13\": {\"In\": 1}, \"14\": {\"In\": 1}, \"15\": {\"In\": 1}, \"16\": {\"O\": 1}, \"17\": {\"O\": 1}, \"18\": {\"O\": 1}, \"19\": {\"O\": 1}, \"20\": {\"O\": 1}, \"21\": {\"O\": 1}, \"22\": {\"O\": 1}, \"23\": {\"O\": 1}, \"24\": {\"O\": 1}, \"25\": {\"O\": 1}, \"26\": {\"O\": 1}, \"27\": {\"O\": 1}, \"28\": {\"O\": 1}, \"29\": {\"O\": 1}, \"30\": {\"O\": 1}, \"31\": {\"O\": 1}, \"32\": {\"O\": 1}, \"33\": {\"O\": 1}, \"34\": {\"O\": 1}, \"35\": {\"O\": 1}, \"36\": {\"O\": 1}, \"37\": {\"O\": 1}, \"38\": {\"O\": 1}, \"39\": {\"O\": 1}}" n_minim_iter=2 energy=-45151.90365692934 stress="9.356149418109933e-05 9.599356808504981e-14 -3.800669015058372e-13 9.599356808504981e-14 9.356149526218037e-05 7.259573279075856e-13 -3.800669015058372e-13 7.259573279075856e-13 9.356149426029416e-05" free_energy=-45151.90365692934 pbc="T T T"
In      -4.00262349       2.83028221       5.38123969        0       0.03234792      -0.02287344       0.03961795
In       6.80141925       1.12781272       1.47438183        1      -0.03234792       0.02287344      -0.03961795
In       1.20382772      -0.85123474       4.90219259        2      -0.03234792       0.02287344      -0.03961795
In      -1.39939788      -1.97904746       3.42781076        3      -0.00000000       0.00000000       0.00000000
In      -1.20382772       3.81980595       3.18828721        4       0.03234792      -0.02287344      -0.03961795
In       4.39376381      -2.69199322       5.14171614        5       0.03234792       0.04574687      -0.00000000
In      -1.20382772       1.26610171       5.14171614        6       0.03234792       0.04574687      -0.00000000
In      -1.59496805       6.65008816       1.71390538        7      -0.03234792      -0.04574687      -0.00000000
In       4.00262349       0.13828899       3.66733431        8      -0.03234792       0.02287344       0.03961795
In      -1.39939789       3.95809493      -0.00000000        9      -0.00000000      -0.00000000       0.00000000
In       4.00262349       6.07543139       0.23952355       10      -0.03234792       0.02287344       0.03961795
In      -1.20382772      -2.11733645       6.61609797       11       0.03234792      -0.02287344      -0.03961795
In       4.00262349       2.69199323       1.71390538       12      -0.03234792      -0.04574687       0.00000000
In       1.59496804       4.80932968       1.95342893       13       0.03234792      -0.02287344       0.03961795
In       4.19819365       0.00000000      -0.00000000       14       0.00000000      -0.00000000       0.00000000
In       1.39939788       1.97904747       3.42781076       15      -0.00000000       0.00000000      -0.00000000
O        0.79830355       3.95056381       3.76782674       16      -0.02819344      -0.02057479      -0.00719946
O       -2.00049221       3.26679924       4.97823029       17      -0.02819344       0.00405248       0.02141803
O       -0.39275906       2.12996023       0.09167171       18      -0.02497520       0.00177684       0.02535954
O       -0.79830356      -0.69882681       1.89043552       19       0.02819344      -0.01652231       0.01421856
O        3.74679860       4.70984844       1.79876380       20       0.01321853       0.03116366      -0.01114098
O        1.85079293       2.77619653       1.55041953       21      -0.01321853       0.02523020       0.02141803
O        1.85079293       5.89174684       0.24834427       22      -0.01321853       0.00593345      -0.03255901
O       -2.13906544       5.59745245       3.51948247       23      -0.01000029       0.02295456       0.02535954
O        3.19155482       1.82813471       6.76394981       24       0.02497520      -0.00177684      -0.02535954
O        4.93786121      -1.63935751       3.33613905       25       0.01000029      -0.02295456      -0.02535954
O        5.99035059       3.12341761       1.62904695       26       0.02497520       0.02285043       0.01114098
O        3.45852609       2.22828248       3.67615503       27      -0.01000029       0.01048473      -0.03255901
O        0.65973032       4.04854988       6.51560554       28      -0.01000029      -0.03343929       0.00719946
O        2.13906544      -0.09045494       0.34001598       29       0.01000029       0.03343929      -0.00719946
O       -3.19155482       0.83467732       5.22657457       30      -0.02497520      -0.02285043      -0.01114098
O        4.79928798       0.69129569       1.87739123       31       0.02819344      -0.00405248      -0.02141803
O        0.94800283       1.18189840       5.30520199       32       0.01321853      -0.02523020      -0.02141803
O        3.19155482      -0.99345738       5.31824628       33       0.02497520      -0.02107359       0.01421856
O        2.00049221       0.00753113       3.08779477       34       0.02819344       0.02057479       0.00719946
O        0.94800283      -1.93365190       6.60727725       35       0.01321853      -0.00593345       0.03255901
O       -0.65973033       1.72981246       3.17946649       36       0.01000029      -0.01048473       0.03255901
O       -0.94800283      -0.75175350       5.05685771       37      -0.01321853      -0.03116366       0.01114098
O       -0.39275906       4.95155232       1.53737524       38      -0.02497520       0.02107359      -0.01421856
O        3.59709932       4.65692175       4.96518600       39      -0.02819344       0.01652231      -0.01421856
40
Lattice="8.39638730140308 6.580840317127472e-10 9.769962616701376e-15 -2.798795767754808 7.916189864168286 -1.1398504362603043e-09 -2.7987957668241434 -3.9580949314260487 6.855621524310515" Properties=species:S:1:pos:R:3:spacegroup_kinds:I:1:forces:R:3 spacegroup="P 1" unit_cell=conventional occupancy="_JSON {\"0\": {\"In\": 1}, \"1\": {\"In\": 1}, \"2\": {\"In\": 1}, \"3\": {\"In\": 1}, \"4\": {\"In\": 1}, \"5\": {\"In\": 1}, \"6\": {\"In\": 1}, \"7\": {\"In\": 1}, \"8\": {\"In\": 1}, \"9\": {\"In\": 1}, \"10\": {\"In\": 1}, \"11\": {\"In\": 1}, \"12\": {\"In\": 1}, \"13\": {\"In\": 1}, \"14\": {\"In\": 1}, \"15\": {\"In\": 1}, \"16\": {\"O\": 1}, \"17\": {\"O\": 1}, \"18\": {\"O\": 1}, \"19\": {\"O\": 1}, \"20\": {\"O\": 1}, \"21\": {\"O\": 1}, \"22\": {\"O\": 1}, \"23\": {\"O\": 1}, \"24\": {\"O\": 1}, \"25\": {\"O\": 1}, \"26\": {\"O\": 1}, \"27\": {\"O\": 1}, \"28\": {\"O\": 1}, \"29\": {\"O\": 1}, \"30\": {\"O\": 1}, \"31\": {\"O\": 1}, \"32\": {\"O\": 1}, \"33\": {\"O\": 1}, \"34\": {\"O\": 1}, \"35\": {\"O\": 1}, \"36\": {\"O\": 1}, \"37\": {\"O\": 1}, \"38\": {\"O\": 1}, \"39\": {\"O\": 1}}" n_minim_iter=3 energy=-45151.90543222928 stress="0.00044315141892292014 1.4878184411208324e-13 -6.690352753751522e-13 1.4878184411208324e-13 0.00044315141971337454 -7.056608543858962e-13 -6.690352753751522e-13 -7.056608543858962e-13 0.00044315142038456546" free_energy=-45151.90543222928 pbc="T T T"
In      -4.00121408       2.82928561       5.38296586        0       0.01144944      -0.00809598       0.01402264
In       6.80000984       1.12880933       1.47265566        1      -0.01144944       0.00809598      -0.01402264
In       1.20241831      -0.85023814       4.90046642        2      -0.01144944       0.00809598      -0.01402264
In      -1.39939788      -1.97904746       3.42781076        3      -0.00000000      -0.00000000       0.00000000
In      -1.20241831       3.81880934       3.18656104        4       0.01144944      -0.00809598      -0.01402264
In       4.39517322      -2.69000001       5.14171614        5       0.01144944       0.01619195      -0.00000000
In      -1.20241831       1.26809492       5.14171614        6       0.01144944       0.01619195       0.00000000
In      -1.59637746       6.64809495       1.71390538        7      -0.01144944      -0.01619195      -0.00000000
In       4.00121408       0.13928559       3.66906048        8      -0.01144944       0.00809598       0.01402264
In      -1.39939789       3.95809493      -0.00000000        9      -0.00000000      -0.00000000      -0.00000000
In       4.00121408       6.07642799       0.24124972       10      -0.01144944       0.00809598       0.01402264
In      -1.20241831      -2.11833306       6.61437180       11       0.01144944      -0.00809598      -0.01402264
In       4.00121408       2.69000002       1.71390538       12      -0.01144944      -0.01619195       0.00000000
In       1.59637746       4.80833307       1.95515510       13       0.01144944      -0.00809598       0.01402264
In       4.19819365       0.00000000      -0.00000000       14      -0.00000000      -0.00000000      -0.00000000
In       1.39939788       1.97904747       3.42781076       15       0.00000000      -0.00000000       0.00000000
O        0.79569119       3.94927515       3.77067887       16      -0.00296386       0.00008379      -0.01115933
O       -2.00310458       3.26991359       4.97792024       17      -0.00296386      -0.00970616       0.00550710
O       -0.39190857       2.13062596       0.09560276       18      -0.01006001      -0.00468842      -0.00318388
O       -0.79569119      -0.69700113       1.89297759       19       0.00296386      -0.00962237      -0.00565223
O        3.75060561       4.71029234       1.79737483       20      -0.00816310       0.00778416      -0.00246835
O        1.84698592       2.77762138       1.55010948       21       0.00816310       0.00602974       0.00550710
O        1.84698592       5.89076590       0.24726535       22       0.00816310       0.00175442      -0.00797546
O       -2.13940961       5.59642869       3.52341352       23       0.00106695       0.01104747      -0.00318388
O        3.19070433       1.82746897       6.76001876       24       0.01006001       0.00468842       0.00318388
O        4.93820538      -1.63833375       3.33220800       25      -0.00106695      -0.01104747       0.00318388
O        5.98950010       3.12715487       1.63043593       26       0.01006001      -0.00510153       0.00246835
O        3.45818192       2.23219874       3.67507611       27       0.00106695      -0.00828105      -0.00797546
O        0.65938615       4.04565737       6.51275341       28       0.00106695      -0.00276642       0.01115933
O        2.13940961      -0.08756243       0.34286811       29      -0.00106695       0.00276642      -0.01115933
O       -3.19070434       0.83094007       5.22518559       30      -0.01006001       0.00510153      -0.00246835
O        4.80190034       0.68818135       1.87770128       31       0.00296386       0.00970616      -0.00550710
O        0.95180985       1.18047356       5.30551204       32      -0.00816310      -0.00602974      -0.00550710
O        3.19070434      -0.99652890       5.32078835       33       0.01006001       0.00041311      -0.00565223
O        2.00310457       0.00881978       3.08494265       34       0.00296386      -0.00008379       0.01115933
O        0.95180985      -1.93267096       6.60835617       35      -0.00816310      -0.00175442       0.00797546
O       -0.65938616       1.72589619       3.18054541       36      -0.00106695       0.00828105       0.00797546
O       -0.95180985      -0.75219741       5.05824669       37       0.00816310      -0.00778416       0.00246835
O       -0.39190857       4.95462384       1.53483317       38      -0.01006001      -0.00041311       0.00565223
O        3.59448696       4.65509606       4.96264393       39      -0.00296386       0.00962237       0.00565223
40
Lattice="8.39638730140308 6.580840317127474e-10 9.769962616701376e-15 -2.7987957677548088 7.916189864168288 -1.1398504362603047e-09 -2.7987957668241443 -3.9580949314260496 6.855621524310517" Properties=species:S:1:pos:R:3:spacegroup_kinds:I:1:forces:R:3 spacegroup="P 1" unit_cell=conventional occupancy="_JSON {\"0\": {\"In\": 1}, \"1\": {\"In\": 1}, \"2\": {\"In\": 1}, \"3\": {\"In\": 1}, \"4\": {\"In\": 1}, \"5\": {\"In\": 1}, \"6\": {\"In\": 1}, \"7\": {\"In\": 1}, \"8\": {\"In\": 1}, \"9\": {\"In\": 1}, \"10\": {\"In\": 1}, \"11\": {\"In\": 1}, \"12\": {\"In\": 1}, \"13\": {\"In\": 1}, \"14\": {\"In\": 1}, \"15\": {\"In\": 1}, \"16\": {\"O\": 1}, \"17\": {\"O\": 1}, \"18\": {\"O\": 1}, \"19\": {\"O\": 1}, \"20\": {\"O\": 1}, \"21\": {\"O\": 1}, \"22\": {\"O\": 1}, \"23\": {\"O\": 1}, \"24\": {\"O\": 1}, \"25\": {\"O\": 1}, \"26\": {\"O\": 1}, \"27\": {\"O\": 1}, \"28\": {\"O\": 1}, \"29\": {\"O\": 1}, \"30\": {\"O\": 1}, \"31\": {\"O\": 1}, \"32\": {\"O\": 1}, \"33\": {\"O\": 1}, \"34\": {\"O\": 1}, \"35\": {\"O\": 1}, \"36\": {\"O\": 1}, \"37\": {\"O\": 1}, \"38\": {\"O\": 1}, \"39\": {\"O\": 1}}" n_minim_iter=4 energy=-45151.9055402978 stress="0.00039544671706101596 7.057302927676508e-13 -3.2658277980058893e-13 7.057302927676508e-13 0.00039544671583459866 -3.4373826294338503e-13 -3.2658277980058893e-13 -3.4373826294338503e-13 0.0003954467163509571" free_energy=-45151.9055402978 pbc="T T T"
In      -4.00105085       2.82917019       5.38316577        0       0.00333958      -0.00236144       0.00409013
In       6.79984662       1.12892474       1.47245575        1      -0.00333958       0.00236144      -0.00409013
In       1.20225508      -0.85012272       4.90026651        2      -0.00333958       0.00236144      -0.00409013
In      -1.39939788      -1.97904746       3.42781076        3       0.00000000      -0.00000000      -0.00000000
In      -1.20225509       3.81869393       3.18636113        4       0.00333958      -0.00236144      -0.00409013
In       4.39533645      -2.68976918       5.14171614        5       0.00333958       0.00472288      -0.00000000
In      -1.20225509       1.26832575       5.14171614        6       0.00333958       0.00472288      -0.00000000
In      -1.59654068       6.64786412       1.71390538        7      -0.00333958      -0.00472288      -0.00000000
In       4.00105085       0.13940101       3.66926039        8      -0.00333958       0.00236144       0.00409013
In      -1.39939789       3.95809493      -0.00000000        9       0.00000000       0.00000000      -0.00000000
In       4.00105085       6.07654341       0.24144963       10      -0.00333958       0.00236144       0.00409013
In      -1.20225509      -2.11844847       6.61417189       11       0.00333958      -0.00236144      -0.00409013
In       4.00105085       2.68976918       1.71390538       12      -0.00333958      -0.00472288       0.00000000
In       1.59654068       4.80821766       1.95535501       13       0.00333958      -0.00236144       0.00409013
In       4.19819365       0.00000000      -0.00000000       14       0.00000000      -0.00000000      -0.00000000
In       1.39939788       1.97904747       3.42781076       15      -0.00000000      -0.00000000       0.00000000
O        0.79578628       3.94931544       3.77020584       16       0.00048030       0.00365312      -0.00040548
O       -2.00300949       3.26948379       4.97812187       17       0.00048030      -0.00217772      -0.00296096
O       -0.39224411       2.13050067       0.09527698       18       0.00155112      -0.00293491      -0.00164947
O       -0.79578628      -0.69739064       1.89270619       19      -0.00048030       0.00147541      -0.00336644
O        3.75016870       4.71049377       1.79742921       20      -0.00221327      -0.00242773      -0.00171697
O        1.84742283       2.77767499       1.55031111       21       0.00221327       0.00027308      -0.00296096
O        1.84742283       5.89091371       0.24711810       22       0.00221327      -0.00270080       0.00124399
O       -2.13940333       5.59678680       3.52308774       23       0.00328410      -0.00048411      -0.00164947
O        3.19103987       1.82759427       6.76034454       24      -0.00155112       0.00293491       0.00164947
O        4.93819910      -1.63869187       3.33253378       25      -0.00328410       0.00048411       0.00164947
O        5.98983564       3.12681009       1.63038155       26      -0.00155112      -0.00289593       0.00171697
O        3.45818820       2.23173755       3.67492886       27       0.00328410      -0.00118642       0.00124399
O        0.65939244       4.04576045       6.51322644       28       0.00328410       0.00167054       0.00040548
O        2.13940333      -0.08766551       0.34239508       29      -0.00328410      -0.00167054      -0.00040548
O       -3.19103988       0.83128485       5.22523997       30       0.00155112       0.00289593      -0.00171697
O        4.80180525       0.68861115       1.87749965       31      -0.00048030       0.00217772       0.00296096
O        0.95137294       1.18041995       5.30531041       32      -0.00221327      -0.00027308       0.00296096
O        3.19103988      -0.99630941       5.32051695       33      -0.00155112      -0.00003897      -0.00336644
O        2.00300948       0.00877950       3.08541568       34      -0.00048030      -0.00365312       0.00040548
O        0.95137294      -1.93281877       6.60850342       35      -0.00221327       0.00270080      -0.00124399
O       -0.65939244       1.72635739       3.18069266       36      -0.00328410       0.00118642      -0.00124399
O       -0.95137294      -0.75239883       5.05819231       37       0.00221327       0.00242773       0.00171697
O       -0.39224411       4.95440435       1.53510457       38       0.00155112       0.00003897       0.00336644
O        3.59458205       4.65548558       4.96291533       39       0.00048030      -0.00147541       0.00336644
