40
Lattice="8.053288219659489 6.311939859671152e-10 2.176037128265304e-14 -2.6844294071482584 7.592712947750891 -1.09326991903913e-09 -2.684429406255637 -3.7963564732442494 6.575482297124136" Properties=species:S:1:pos:R:3:spacegroup_kinds:I:1:forces:R:3 spacegroup="P 1" unit_cell=conventional occupancy="_JSON {\"0\": {\"In\": 1}, \"1\": {\"In\": 1}, \"2\": {\"In\": 1}, \"3\": {\"In\": 1}, \"4\": {\"In\": 1}, \"5\": {\"In\": 1}, \"6\": {\"In\": 1}, \"7\": {\"In\": 1}, \"8\": {\"In\": 1}, \"9\": {\"In\": 1}, \"10\": {\"In\": 1}, \"11\": {\"In\": 1}, \"12\": {\"In\": 1}, \"13\": {\"In\": 1}, \"14\": {\"In\": 1}, \"15\": {\"In\": 1}, \"16\": {\"O\": 1}, \"17\": {\"O\": 1}, \"18\": {\"O\": 1}, \"19\": {\"O\": 1}, \"20\": {\"O\": 1}, \"21\": {\"O\": 1}, \"22\": {\"O\": 1}, \"23\": {\"O\": 1}, \"24\": {\"O\": 1}, \"25\": {\"O\": 1}, \"26\": {\"O\": 1}, \"27\": {\"O\": 1}, \"28\": {\"O\": 1}, \"29\": {\"O\": 1}, \"30\": {\"O\": 1}, \"31\": {\"O\": 1}, \"32\": {\"O\": 1}, \"33\": {\"O\": 1}, \"34\": {\"O\": 1}, \"35\": {\"O\": 1}, \"36\": {\"O\": 1}, \"37\": {\"O\": 1}, \"38\": {\"O\": 1}, \"39\": {\"O\": 1}}" n_minim_iter=5 energy=-45151.71827455489 stress="-0.015575242246088729 -4.841859906555667e-13 2.294316414058992e-13 -4.841859906555667e-13 -0.01557524224492096 2.0547881070880548e-14 2.294316414058992e-13 2.0547881070880548e-14 -0.01557524224608935" free_energy=-45151.71827455489 pbc="T T T"
In      -3.81719012       2.69916102       5.18813942        0       0.00087445      -0.00061833       0.00107098
In       6.50161952       1.09719546       1.38734287        1      -0.00087445       0.00061833      -0.00107098
In       1.13276071      -0.80098278       4.67508402        2      -0.00087445       0.00061833      -0.00107098
In      -1.34221470      -1.89817824       3.28774115        3       0.00000000       0.00000000      -0.00000000
In      -1.13276071       3.64825014       3.03121344        4       0.00087445      -0.00061833      -0.00107098
In       4.23609810      -2.55105467       4.93161172        5       0.00087445       0.00123666      -0.00000000
In      -1.13276071       1.24530180       4.93161172        6       0.00087445       0.00123666      -0.00000000
In      -1.55166870       6.34741115       1.64387057        7      -0.00087445      -0.00123666       0.00000000
In       3.81719011       0.14810634       3.54426885        8      -0.00087445       0.00061833       0.00107098
In      -1.34221470       3.79635648      -0.00000000        9       0.00000000      -0.00000000       0.00000000
In       3.81719011       5.84264105       0.25652770       10      -0.00087445       0.00061833       0.00107098
In      -1.13276071      -2.04628457       6.31895459       11       0.00087445      -0.00061833      -0.00107098
In       3.81719011       2.55105468       1.64387057       12      -0.00087445      -0.00123666      -0.00000000
In       1.55166870       4.59733925       1.90039828       13       0.00087445      -0.00061833       0.00107098
In       4.02664411       0.00000000      -0.00000000       14      -0.00000000       0.00000000       0.00000000
In       1.34221470       1.89817824       3.28774115       15      -0.00000000       0.00000000       0.00000000
O        0.76380034       3.79008272       3.64960445       16      -0.00059325      -0.00382684      -0.00202397
O       -1.92062907       3.16378705       4.75611330       17      -0.00059325       0.00016061       0.00432613
O       -0.34770702       2.05156320       0.10705922       18      -0.00365430       0.00232510       0.00057711
O       -0.76380034      -0.63884318       1.83023546       19       0.00059325      -0.00366623       0.00230215
O        3.62305672       4.49701033       1.72317624       20       0.00034917       0.00399943       0.00172504
O        1.74580209       2.65436900       1.46837215       21      -0.00034917       0.00050578       0.00432613
O        1.74580209       5.63899780       0.25480408       22      -0.00034917       0.00349364      -0.00260108
O       -2.05013467       5.33850163       3.39480037       23      -0.00341023       0.00267028       0.00057711
O        3.03213642       1.74479328       6.46842307       24       0.00365430      -0.00232510      -0.00057711
O        4.73456408      -1.54214515       3.18068192       25       0.00341023      -0.00267028      -0.00057711
O        5.71656583       3.01667585       1.56456491       26       0.00365430       0.00166234      -0.00172504
O        3.31872414       2.16891079       3.54254523       27      -0.00341023      -0.00083535      -0.00260108
O        0.63429473       3.88165701       6.21361899       28      -0.00341023      -0.00183493       0.00202397
O        2.05013467      -0.08530053       0.36186330       29       0.00341023       0.00183493      -0.00202397
O       -3.03213642       0.77968063       5.01091738       30      -0.00365430      -0.00166234       0.00172504
O        4.60505847       0.63256943       1.81936899       31       0.00059325      -0.00016061      -0.00432613
O        0.93862732       1.14198747       5.10711014       32       0.00034917      -0.00050578      -0.00432613
O        3.03213642      -0.96511264       5.11797661       33       0.00365430       0.00066276       0.00230215
O        1.92062906       0.00627376       2.92587784       34       0.00059325       0.00382684       0.00202397
O        0.93862732      -1.84264132       6.32067821       35       0.00034917      -0.00349364       0.00260108
O       -0.63429473       1.62744569       3.03293706       36       0.00341023       0.00083535       0.00260108
O       -0.93862732      -0.70065385       4.85230606       37      -0.00034917      -0.00399943      -0.00172504
O       -0.34770702       4.76146912       1.45750568       38      -0.00365430      -0.00066276      -0.00230215
O        3.44822975       4.43519966       4.74524683       39      -0.00059325       0.00366623      -0.00230215
