40
Lattice="8.713527837546732 6.829408150110794e-10 -1.7763568394002505e-15 -2.9045092798261294 8.215192829088418 -1.1828942270142306e-09 -2.9045092788602984 -4.107596413861263 7.114565687766918" Properties=species:S:1:pos:R:3:spacegroup_kinds:I:1:forces:R:3 spacegroup="P 1" unit_cell=conventional occupancy="_JSON {\"0\": {\"In\": 1}, \"1\": {\"In\": 1}, \"2\": {\"In\": 1}, \"3\": {\"In\": 1}, \"4\": {\"In\": 1}, \"5\": {\"In\": 1}, \"6\": {\"In\": 1}, \"7\": {\"In\": 1}, \"8\": {\"In\": 1}, \"9\": {\"In\": 1}, \"10\": {\"In\": 1}, \"11\": {\"In\": 1}, \"12\": {\"In\": 1}, \"13\": {\"In\": 1}, \"14\": {\"In\": 1}, \"15\": {\"In\": 1}, \"16\": {\"O\": 1}, \"17\": {\"O\": 1}, \"18\": {\"O\": 1}, \"19\": {\"O\": 1}, \"20\": {\"O\": 1}, \"21\": {\"O\": 1}, \"22\": {\"O\": 1}, \"23\": {\"O\": 1}, \"24\": {\"O\": 1}, \"25\": {\"O\": 1}, \"26\": {\"O\": 1}, \"27\": {\"O\": 1}, \"28\": {\"O\": 1}, \"29\": {\"O\": 1}, \"30\": {\"O\": 1}, \"31\": {\"O\": 1}, \"32\": {\"O\": 1}, \"33\": {\"O\": 1}, \"34\": {\"O\": 1}, \"35\": {\"O\": 1}, \"36\": {\"O\": 1}, \"37\": {\"O\": 1}, \"38\": {\"O\": 1}, \"39\": {\"O\": 1}}" n_minim_iter=1 energy=-45151.90253609812 stress="-0.0004892174118745279 8.496256111284342e-13 2.5928535390594236e-14 8.496256111284342e-13 -0.0004892174123699465 -3.614475764886183e-13 2.5928535390594236e-14 -3.614475764886183e-13 -0.0004892174114199445" free_energy=-45151.90253609812 pbc="T T T"
In      -4.16069226       2.94205371       5.57606202        0      -0.00075782       0.00053586      -0.00092814
In       7.06520154       1.16554270       1.53850366        1       0.00075782      -0.00053586       0.00092814
In       1.25618298      -0.88825550       5.09578651        2       0.00075782      -0.00053586       0.00092814
In      -1.45225464      -2.05379821       3.55728284        3       0.00000000      -0.00000000       0.00000000
In      -1.25618298       3.96895282       3.31714508        4      -0.00075782       0.00053586       0.00092814
In       4.55283557      -2.80341011       5.33592426        5      -0.00075782      -0.00107172       0.00000000
In      -1.25618298       1.30418630       5.33592426        6      -0.00075782      -0.00107172       0.00000000
In      -1.64832630       6.91100653       1.77864142        7       0.00075782       0.00107172      -0.00000000
In       4.16069226       0.13864360       3.79742060        8       0.00075782      -0.00053586      -0.00092814
In      -1.45225464       4.10759642      -0.00000000        9       0.00000000       0.00000000      -0.00000000
In       4.16069226       6.30003822       0.24013775       10       0.00075782      -0.00053586      -0.00092814
In      -1.25618298      -2.19244180       6.87442793       11      -0.00075782       0.00053586       0.00092814
In       4.16069226       2.80341012       1.77864142       12       0.00075782       0.00107172      -0.00000000
In       1.64832629       4.99585192       2.01877917       13      -0.00075782       0.00053586      -0.00092814
In       4.35676392       0.00000000      -0.00000000       14       0.00000000       0.00000000      -0.00000000
In       1.45225464       2.05379821       3.55728284       15      -0.00000000      -0.00000000      -0.00000000
O        0.84425678       4.10393640       3.88139882       16      -0.02103813       0.00036357       0.07131312
O       -2.06025250       3.36321999       5.17703594       17      -0.02103813       0.06157719      -0.03597142
O       -0.42383659       2.20609921       0.06666224       18       0.05138560       0.01036588       0.05272917
O       -0.84425679      -0.74803644       1.94386907       19       0.02103813       0.06194076       0.03534170
O        3.85762504       4.89412032       1.87720683       20       0.06506824      -0.03149756      -0.01738747
O        1.95139351       2.87514956       1.61975310       21      -0.06506824      -0.00069079      -0.03597142
O        1.95139351       6.12656718       0.25745373       22      -0.06506824      -0.03080677       0.01858395
O       -2.22120914       5.82562519       3.62394508       23       0.00735548      -0.05190210       0.05272917
O        3.32834587       1.90149721       7.04790345       24      -0.05138560      -0.01036588      -0.05272917
O        5.12571842      -1.71802877       3.49062060       25      -0.00735548       0.05190210      -0.05272917
O        6.23285515       3.21457900       1.68007600       26      -0.05138560       0.05084774       0.01738747
O        3.58780941       2.27941412       3.81473658       27       0.00735548       0.07161585       0.01858395
O        0.68330014       4.21774994       6.79044971       28       0.00735548      -0.01971375      -0.07131312
O        2.22120914      -0.11015352       0.32411597       29      -0.00735548       0.01971375       0.07131312
O       -3.32834587       0.89301741       5.43448968       30       0.05138560      -0.05084774      -0.01738747
O        4.96476177       0.74437643       1.93752974       31       0.02103813      -0.06157719       0.03597142
O        0.95311576       1.23244686       5.49481259       32       0.06506824       0.00069079       0.03597142
O        3.32834587      -1.00847979       5.50115192       33      -0.05138560      -0.04048186       0.03534170
O        2.06025249       0.00366002       3.23316687       34       0.02103813      -0.00036357      -0.07131312
O        0.95311576      -2.01897076       6.85711195       35       0.06506824       0.03080677      -0.01858395
O       -0.68330014       1.82818230       3.29982910       36      -0.00735548      -0.07161585      -0.01858395
O       -0.95311577      -0.78652390       5.23735885       37      -0.06506824       0.03149756       0.01738747
O       -0.42383659       5.11607621       1.61341377       38       0.05138560       0.04048186      -0.03534170
O        3.74876606       4.85563286       5.17069661       39      -0.02103813      -0.06194076      -0.03534170
40
Lattice="8.71352783754673 6.829408150110793e-10 -1.7763568394002471e-15 -2.904509279826129 8.215192829088416 -1.1828942270142304e-09 -2.904509278860298 -4.107596413861262 7.114565687766917" Properties=species:S:1:pos:R:3:spacegroup_kinds:I:1:forces:R:3 spacegroup="P 1" unit_cell=conventional occupancy="_JSON {\"0\": {\"In\": 1}, \"1\": {\"In\": 1}, \"2\": {\"In\": 1}, \"3\": {\"In\": 1}, \"4\": {\"In\": 1}, \"5\": {\"In\": 1}, \"6\": {\"In\": 1}, \"7\": {\"In\": 1}, \"8\": {\"In\": 1}, \"9\": {\"In\": 1}, \"10\": {\"In\": 1}, \"11\": {\"In\": 1}, \"12\": {\"In\": 1}, \"13\": {\"In\": 1}, \"14\": {\"In\": 1}, \"15\": {\"In\": 1}, \"16\": {\"O\": 1}, \"17\": {\"O\": 1}, \"18\": {\"O\": 1}, \"19\": {\"O\": 1}, \"20\": {\"O\": 1}, \"21\": {\"O\": 1}, \"22\": {\"O\": 1}, \"23\": {\"O\": 1}, \"24\": {\"O\": 1}, \"25\": {\"O\": 1}, \"26\": {\"O\": 1}, \"27\": {\"O\": 1}, \"28\": {\"O\": 1}, \"29\": {\"O\": 1}, \"30\": {\"O\": 1}, \"31\": {\"O\": 1}, \"32\": {\"O\": 1}, \"33\": {\"O\": 1}, \"34\": {\"O\": 1}, \"35\": {\"O\": 1}, \"36\": {\"O\": 1}, \"37\": {\"O\": 1}, \"38\": {\"O\": 1}, \"39\": {\"O\": 1}}" n_minim_iter=2 energy=-45151.908041275135 stress="0.00014436161635430307 1.4851770897129312e-13 -2.8727526671921577e-13 1.4851770897129312e-13 0.00014436161579215132 -1.347165516899485e-13 -2.8727526671921577e-13 -1.347165516899485e-13 0.00014436161603263053" free_energy=-45151.908041275135 pbc="T T T"
In      -4.16074639       2.94209199       5.57599572        0       0.02896888      -0.02048409       0.03547948
In       7.06525567       1.16550443       1.53856996        1      -0.02896888       0.02048409      -0.03547948
In       1.25623711      -0.88829378       5.09585280        2      -0.02896888       0.02048409      -0.03547948
In      -1.45225464      -2.05379821       3.55728284        3       0.00000000      -0.00000000      -0.00000000
In      -1.25623712       3.96899109       3.31721138        4       0.02896888      -0.02048409      -0.03547948
In       4.55278144      -2.80348666       5.33592426        5       0.02896888       0.04096818      -0.00000000
In      -1.25623711       1.30410975       5.33592426        6       0.02896888       0.04096818       0.00000000
In      -1.64827217       6.91108308       1.77864142        7      -0.02896888      -0.04096818      -0.00000000
In       4.16074639       0.13860532       3.79735430        8      -0.02896888       0.02048409       0.03547948
In      -1.45225464       4.10759642      -0.00000000        9       0.00000000       0.00000000      -0.00000000
In       4.16074639       6.29999995       0.24007146       10      -0.02896888       0.02048409       0.03547948
In      -1.25623711      -2.19240353       6.87449423       11       0.02896888      -0.02048409      -0.03547948
In       4.16074639       2.80348667       1.77864142       12      -0.02896888      -0.04096818      -0.00000000
In       1.64827216       4.99589020       2.01871288       13       0.02896888      -0.02048409       0.03547948
In       4.35676392       0.00000000      -0.00000000       14      -0.00000000       0.00000000      -0.00000000
In       1.45225464       2.05379821       3.55728284       15       0.00000000       0.00000000       0.00000000
O        0.84275406       4.10396237       3.88649261       16      -0.02905627      -0.01911697       0.00455844
O       -2.06175522       3.36761836       5.17446655       17      -0.02905627       0.01350621       0.01427656
O       -0.42016619       2.20683963       0.07042861       18      -0.01497530       0.00354946       0.03152216
O       -0.84275406      -0.74361210       1.94639348       19       0.02905627      -0.00561076       0.01883500
O        3.86227277       4.89187049       1.87596487       20       0.02241920       0.02381009      -0.01268716
O        1.94674578       2.87510022       1.61718371       21      -0.02241920       0.02289245       0.01427656
O        1.94674578       6.12436669       0.25878116       22      -0.02241920       0.00091764      -0.02696372
O       -2.22068375       5.82191790       3.62771145       23      -0.00833823       0.01293570       0.03152216
O        3.32467547       1.90075679       7.04413708       24       0.01497530      -0.00354946      -0.03152216
O        5.12519303      -1.71432148       3.48685423       25       0.00833823      -0.01293570      -0.03152216
O        6.22918475       3.21821099       1.68131797       26       0.01497530       0.02907372       0.01268716
O        3.58833481       2.28452953       3.81606400       27      -0.00833823       0.02083114      -0.02696372
O        0.68382553       4.21634182       6.78535591       28      -0.00833823      -0.03376684      -0.00455844
O        2.22068375      -0.10874540       0.32920977       29       0.00833823       0.03376684       0.00455844
O       -3.32467547       0.88938543       5.43324772       30      -0.01497530      -0.02907372      -0.01268716
O        4.96626450       0.73997806       1.94009913       31       0.02905627      -0.01350621      -0.01427656
O        0.95776349       1.23249620       5.49738197       32       0.02241920      -0.02289245      -0.01427656
O        3.32467547      -1.01137135       5.50367632       33       0.01497530      -0.02552426       0.01883500
O        2.06175522       0.00363405       3.22807307       34       0.02905627       0.01911697      -0.00455844
O        0.95776350      -2.01677027       6.85578452       35       0.02241920      -0.00091764       0.02696372
O       -0.68382553       1.82306688       3.29850168       36       0.00833823      -0.02083114       0.02696372
O       -0.95776350      -0.78427408       5.23860081       37      -0.02241920      -0.02381009       0.01268716
O       -0.42016619       5.11896777       1.61088936       38      -0.01497530       0.02552426      -0.01883500
O        3.74726334       4.85120852       5.16817220       39      -0.02905627       0.00561076      -0.01883500
40
Lattice="8.713527837546726 6.829408150110789e-10 -1.776356839400233e-15 -2.904509279826127 8.215192829088412 -1.18289422701423e-09 -2.904509278860296 -4.10759641386126 7.1145656877669134" Properties=species:S:1:pos:R:3:spacegroup_kinds:I:1:forces:R:3 spacegroup="P 1" unit_cell=conventional occupancy="_JSON {\"0\": {\"In\": 1}, \"1\": {\"In\": 1}, \"2\": {\"In\": 1}, \"3\": {\"In\": 1}, \"4\": {\"In\": 1}, \"5\": {\"In\": 1}, \"6\": {\"In\": 1}, \"7\": {\"In\": 1}, \"8\": {\"In\": 1}, \"9\": {\"In\": 1}, \"10\": {\"In\": 1}, \"11\": {\"In\": 1}, \"12\": {\"In\": 1}, \"13\": {\"In\": 1}, \"14\": {\"In\": 1}, \"15\": {\"In\": 1}, \"16\": {\"O\": 1}, \"17\": {\"O\": 1}, \"18\": {\"O\": 1}, \"19\": {\"O\": 1}, \"20\": {\"O\": 1}, \"21\": {\"O\": 1}, \"22\": {\"O\": 1}, \"23\": {\"O\": 1}, \"24\": {\"O\": 1}, \"25\": {\"O\": 1}, \"26\": {\"O\": 1}, \"27\": {\"O\": 1}, \"28\": {\"O\": 1}, \"29\": {\"O\": 1}, \"30\": {\"O\": 1}, \"31\": {\"O\": 1}, \"32\": {\"O\": 1}, \"33\": {\"O\": 1}, \"34\": {\"O\": 1}, \"35\": {\"O\": 1}, \"36\": {\"O\": 1}, \"37\": {\"O\": 1}, \"38\": {\"O\": 1}, \"39\": {\"O\": 1}}" n_minim_iter=3 energy=-45151.910049222635 stress="0.0007045647383343353 4.73308911200085e-13 1.8993071817385534e-13 4.73308911200085e-13 0.0007045647385203876 3.930329099694309e-14 1.8993071817385534e-13 3.930329099694309e-14 0.0007045647389353034" free_energy=-45151.910049222635 pbc="T T T"
In      -4.15941225       2.94114861       5.57762970        0       0.02593077      -0.01833582       0.03175858
In       7.06392153       1.16644781       1.53693598        1      -0.02593077       0.01833582      -0.03175858
In       1.25490297      -0.88735040       5.09421882        2      -0.02593077       0.01833582      -0.03175858
In      -1.45225464      -2.05379821       3.55728284        3      -0.00000000      -0.00000000       0.00000000
In      -1.25490297       3.96804771       3.31557740        4       0.02593077      -0.01833582      -0.03175858
In       4.55411558      -2.80159990       5.33592426        5       0.02593077       0.03667164      -0.00000000
In      -1.25490297       1.30599651       5.33592426        6       0.02593077       0.03667164       0.00000000
In      -1.64960631       6.90919632       1.77864142        7      -0.02593077      -0.03667164       0.00000000
In       4.15941225       0.13954870       3.79898828        8      -0.02593077       0.01833582       0.03175858
In      -1.45225464       4.10759642      -0.00000000        9       0.00000000       0.00000000      -0.00000000
In       4.15941225       6.30094333       0.24170544       10      -0.02593077       0.01833582       0.03175858
In      -1.25490297      -2.19334691       6.87286024       11       0.02593077      -0.01833582      -0.03175858
In       4.15941225       2.80159991       1.77864142       12      -0.02593077      -0.03667164      -0.00000000
In       1.64960630       4.99494682       2.02034686       13       0.02593077      -0.01833582       0.03175858
In       4.35676392       0.00000000      -0.00000000       14       0.00000000       0.00000000      -0.00000000
In       1.45225464       2.05379821       3.55728284       15      -0.00000000       0.00000000       0.00000000
O        0.84022078       4.10307447       3.89061890       16      -0.01938619      -0.01311417      -0.02731805
O       -2.06428850       3.37163578       5.17317236       17      -0.01938619      -0.01710104       0.02501623
O       -0.41806008       2.20757651       0.07481648       18      -0.03494924      -0.00609630       0.00595547
O       -0.84022079      -0.74048258       1.94922557       19       0.01938619      -0.03021521      -0.00230182
O        3.86690486       4.89127431       1.87440909       20      -0.00966095       0.03365361      -0.00825729
O        1.94211369       2.87614947       1.61588951       21       0.00966095       0.02397782       0.02501623
O        1.94211369       6.12272126       0.25851958       22       0.00966095       0.00967578      -0.03327352
O       -2.22067645       5.81968661       3.63209932       23      -0.00590210       0.03498256       0.00595547
O        3.32256936       1.90001991       7.03974921       24       0.03494924       0.00609630      -0.00595547
O        5.12518573      -1.71209019       3.48246636       25       0.00590210      -0.03498256      -0.00595547
O        6.22707864       3.22237943       1.68287375       26       0.03494924       0.00210944       0.00825729
O        3.58834211       2.28944519       3.81580242       27      -0.00590210      -0.01233369      -0.03327352
O        0.68383283       4.21365745       6.78122963       28      -0.00590210      -0.02264887       0.02731805
O        2.22067645      -0.10606103       0.33333606       29       0.00590210       0.02264887      -0.02731805
O       -3.32256936       0.88521699       5.43169194       30      -0.03494924      -0.00210944      -0.00825729
O        4.96879777       0.73596064       1.94139333       31       0.01938619       0.01710104      -0.02501623
O        0.96239558       1.23144695       5.49867617       32      -0.00966095      -0.02397782      -0.02501623
O        3.32256936      -1.01480292       5.50650841       33       0.03494924      -0.00820574      -0.00230182
O        2.06428849       0.00452195       3.22394678       34       0.01938619       0.01311417       0.02731805
O        0.96239558      -2.01512484       6.85604611       35      -0.00966095      -0.00967578       0.03327352
O       -0.68383283       1.81815123       3.29876326       36       0.00590210       0.01233369       0.03327352
O       -0.96239558      -0.78367790       5.24015659       37       0.00966095      -0.03365361       0.00825729
O       -0.41806008       5.12239934       1.60805727       38      -0.03494924       0.00820574       0.00230182
O        3.74473006       4.84807900       5.16534011       39      -0.01938619       0.03021521       0.00230182
40
Lattice="8.713527837546723 6.82940815011079e-10 -1.7763568394002369e-15 -2.9045092798261276 8.215192829088409 -1.1828942270142302e-09 -2.9045092788602966 -4.107596413861258 7.1145656877669134" Properties=species:S:1:pos:R:3:spacegroup_kinds:I:1:forces:R:3 spacegroup="P 1" unit_cell=conventional occupancy="_JSON {\"0\": {\"In\": 1}, \"1\": {\"In\": 1}, \"2\": {\"In\": 1}, \"3\": {\"In\": 1}, \"4\": {\"In\": 1}, \"5\": {\"In\": 1}, \"6\": {\"In\": 1}, \"7\": {\"In\": 1}, \"8\": {\"In\": 1}, \"9\": {\"In\": 1}, \"10\": {\"In\": 1}, \"11\": {\"In\": 1}, \"12\": {\"In\": 1}, \"13\": {\"In\": 1}, \"14\": {\"In\": 1}, \"15\": {\"In\": 1}, \"16\": {\"O\": 1}, \"17\": {\"O\": 1}, \"18\": {\"O\": 1}, \"19\": {\"O\": 1}, \"20\": {\"O\": 1}, \"21\": {\"O\": 1}, \"22\": {\"O\": 1}, \"23\": {\"O\": 1}, \"24\": {\"O\": 1}, \"25\": {\"O\": 1}, \"26\": {\"O\": 1}, \"27\": {\"O\": 1}, \"28\": {\"O\": 1}, \"29\": {\"O\": 1}, \"30\": {\"O\": 1}, \"31\": {\"O\": 1}, \"32\": {\"O\": 1}, \"33\": {\"O\": 1}, \"34\": {\"O\": 1}, \"35\": {\"O\": 1}, \"36\": {\"O\": 1}, \"37\": {\"O\": 1}, \"38\": {\"O\": 1}, \"39\": {\"O\": 1}}" n_minim_iter=4 energy=-45151.91113616087 stress="0.0006929603410074202 4.860464622583708e-13 3.8886753675625024e-14 4.860464622583708e-13 0.000692960340908297 -2.621186578782951e-13 3.8886753675625024e-14 -2.621186578782951e-13 0.0006929603405179555" free_energy=-45151.91113616087 pbc="T T T"
In      -4.15823723       2.94031774       5.57906881        0      -0.00032338       0.00022866      -0.00039605
In       7.06274651       1.16727867       1.53549687        1       0.00032338      -0.00022866       0.00039605
In       1.25372795      -0.88651953       5.09277972        2       0.00032338      -0.00022866       0.00039605
In      -1.45225464      -2.05379821       3.55728284        3      -0.00000000      -0.00000000       0.00000000
In      -1.25372795       3.96721685       3.31413830        4      -0.00032338       0.00022866       0.00039605
In       4.55529061      -2.79993817       5.33592426        5      -0.00032338      -0.00045732       0.00000000
In      -1.25372795       1.30765824       5.33592426        6      -0.00032338      -0.00045732       0.00000000
In      -1.65078133       6.90753459       1.77864142        7       0.00032338       0.00045732      -0.00000000
In       4.15823723       0.14037957       3.80042739        8       0.00032338      -0.00022866      -0.00039605
In      -1.45225464       4.10759642      -0.00000000        9      -0.00000000      -0.00000000       0.00000000
In       4.15823723       6.30177419       0.24314454       10       0.00032338      -0.00022866      -0.00039605
In      -1.25372795      -2.19417777       6.87142114       11      -0.00032338       0.00022866       0.00039605
In       4.15823723       2.79993818       1.77864142       12       0.00032338       0.00045732       0.00000000
In       1.65078133       4.99411595       2.02178596       13      -0.00032338       0.00022866      -0.00039605
In       4.35676392       0.00000000      -0.00000000       14       0.00000000       0.00000000       0.00000000
In       1.45225464       2.05379821       3.55728284       15       0.00000000       0.00000000      -0.00000000
O        0.83920456       4.10240594       3.89001236       16      -0.00398302       0.00620951      -0.00111656
O       -2.06530472       3.37144477       5.17405459       17      -0.00398302      -0.00407173      -0.00481931
O       -0.41920921       2.20747947       0.07553594       18       0.00068785      -0.00737453       0.00090131
O       -0.83920456      -0.74134213       1.94950126       19       0.00398302       0.00213778      -0.00593588
O        3.86706351       4.89254924       1.87396533       20      -0.00251119      -0.00161741      -0.00683718
O        1.94195504       2.87717125       1.61677175       21       0.00251119       0.00511247      -0.00481931
O        1.94195504       6.12297441       0.25719358       22       0.00251119      -0.00672988      -0.00201787
O       -2.22096801       5.82080237       3.63281878       23       0.00718206       0.00180967       0.00090131
O        3.32371848       1.90011695       7.03902975       24      -0.00068785       0.00737453      -0.00090131
O        5.12547728      -1.71320595       3.48174690       25      -0.00718206      -0.00180967      -0.00090131
O        6.22822776       3.22295399       1.68331751       26      -0.00068785      -0.00290671       0.00683718
O        3.58805055       2.28951038       3.81447642       27       0.00718206      -0.00012428      -0.00201787
O        0.68354127       4.21247650       6.78183617       28       0.00718206      -0.00168539       0.00111656
O        2.22096800      -0.10488009       0.33272952       29      -0.00718206       0.00168539      -0.00111656
O       -3.32371849       0.88464243       5.43124817       30       0.00068785       0.00290671      -0.00683718
O        4.96981399       0.73615165       1.94051109       31       0.00398302       0.00407173       0.00481931
O        0.96255423       1.23042517       5.49779394       32      -0.00251119      -0.00511247       0.00481931
O        3.32371848      -1.01547451       5.50678411       33      -0.00068785      -0.00446782      -0.00593588
O        2.06530471       0.00519048       3.22455332       34       0.00398302      -0.00620951       0.00111656
O        0.96255423      -2.01537799       6.85737211       35      -0.00251119       0.00672988       0.00201787
O       -0.68354128       1.81808604       3.30008926       36      -0.00718206       0.00012428       0.00201787
O       -0.96255424      -0.78495282       5.24060036       37       0.00251119       0.00161741       0.00683718
O       -0.41920921       5.12307093       1.60778157       38       0.00068785       0.00446782       0.00593588
O        3.74371384       4.84893855       5.16506442       39      -0.00398302      -0.00213778       0.00593588
