40
Lattice="8.39638730140308 6.580840317127474e-10 9.769962616701376e-15 -2.7987957677548088 7.916189864168288 -1.1398504362603047e-09 -2.7987957668241443 -3.9580949314260496 6.855621524310517" Properties=species:S:1:pos:R:3:spacegroup_kinds:I:1:forces:R:3 spacegroup="P 1" unit_cell=conventional occupancy="_JSON {\"0\": {\"In\": 1}, \"1\": {\"In\": 1}, \"2\": {\"In\": 1}, \"3\": {\"In\": 1}, \"4\": {\"In\": 1}, \"5\": {\"In\": 1}, \"6\": {\"In\": 1}, \"7\": {\"In\": 1}, \"8\": {\"In\": 1}, \"9\": {\"In\": 1}, \"10\": {\"In\": 1}, \"11\": {\"In\": 1}, \"12\": {\"In\": 1}, \"13\": {\"In\": 1}, \"14\": {\"In\": 1}, \"15\": {\"In\": 1}, \"16\": {\"O\": 1}, \"17\": {\"O\": 1}, \"18\": {\"O\": 1}, \"19\": {\"O\": 1}, \"20\": {\"O\": 1}, \"21\": {\"O\": 1}, \"22\": {\"O\": 1}, \"23\": {\"O\": 1}, \"24\": {\"O\": 1}, \"25\": {\"O\": 1}, \"26\": {\"O\": 1}, \"27\": {\"O\": 1}, \"28\": {\"O\": 1}, \"29\": {\"O\": 1}, \"30\": {\"O\": 1}, \"31\": {\"O\": 1}, \"32\": {\"O\": 1}, \"33\": {\"O\": 1}, \"34\": {\"O\": 1}, \"35\": {\"O\": 1}, \"36\": {\"O\": 1}, \"37\": {\"O\": 1}, \"38\": {\"O\": 1}, \"39\": {\"O\": 1}}" n_minim_iter=4 energy=-45151.9055402978 stress="0.00039544671706101596 7.057302927676508e-13 -3.2658277980058893e-13 7.057302927676508e-13 0.00039544671583459866 -3.4373826294338503e-13 -3.2658277980058893e-13 -3.4373826294338503e-13 0.0003954467163509571" free_energy=-45151.9055402978 pbc="T T T"
In      -4.00105085       2.82917019       5.38316577        0       0.00333958      -0.00236144       0.00409013
In       6.79984662       1.12892474       1.47245575        1      -0.00333958       0.00236144      -0.00409013
In       1.20225508      -0.85012272       4.90026651        2      -0.00333958       0.00236144      -0.00409013
In      -1.39939788      -1.97904746       3.42781076        3       0.00000000      -0.00000000      -0.00000000
In      -1.20225509       3.81869393       3.18636113        4       0.00333958      -0.00236144      -0.00409013
In       4.39533645      -2.68976918       5.14171614        5       0.00333958       0.00472288      -0.00000000
In      -1.20225509       1.26832575       5.14171614        6       0.00333958       0.00472288      -0.00000000
In      -1.59654068       6.64786412       1.71390538        7      -0.00333958      -0.00472288      -0.00000000
In       4.00105085       0.13940101       3.66926039        8      -0.00333958       0.00236144       0.00409013
In      -1.39939789       3.95809493      -0.00000000        9       0.00000000       0.00000000      -0.00000000
In       4.00105085       6.07654341       0.24144963       10      -0.00333958       0.00236144       0.00409013
In      -1.20225509      -2.11844847       6.61417189       11       0.00333958      -0.00236144      -0.00409013
In       4.00105085       2.68976918       1.71390538       12      -0.00333958      -0.00472288       0.00000000
In       1.59654068       4.80821766       1.95535501       13       0.00333958      -0.00236144       0.00409013
In       4.19819365       0.00000000      -0.00000000       14       0.00000000      -0.00000000      -0.00000000
In       1.39939788       1.97904747       3.42781076       15      -0.00000000      -0.00000000       0.00000000
O        0.79578628       3.94931544       3.77020584       16       0.00048030       0.00365312      -0.00040548
O       -2.00300949       3.26948379       4.97812187       17       0.00048030      -0.00217772      -0.00296096
O       -0.39224411       2.13050067       0.09527698       18       0.00155112      -0.00293491      -0.00164947
O       -0.79578628      -0.69739064       1.89270619       19      -0.00048030       0.00147541      -0.00336644
O        3.75016870       4.71049377       1.79742921       20      -0.00221327      -0.00242773      -0.00171697
O        1.84742283       2.77767499       1.55031111       21       0.00221327       0.00027308      -0.00296096
O        1.84742283       5.89091371       0.24711810       22       0.00221327      -0.00270080       0.00124399
O       -2.13940333       5.59678680       3.52308774       23       0.00328410      -0.00048411      -0.00164947
O        3.19103987       1.82759427       6.76034454       24      -0.00155112       0.00293491       0.00164947
O        4.93819910      -1.63869187       3.33253378       25      -0.00328410       0.00048411       0.00164947
O        5.98983564       3.12681009       1.63038155       26      -0.00155112      -0.00289593       0.00171697
O        3.45818820       2.23173755       3.67492886       27       0.00328410      -0.00118642       0.00124399
O        0.65939244       4.04576045       6.51322644       28       0.00328410       0.00167054       0.00040548
O        2.13940333      -0.08766551       0.34239508       29      -0.00328410      -0.00167054      -0.00040548
O       -3.19103988       0.83128485       5.22523997       30       0.00155112       0.00289593      -0.00171697
O        4.80180525       0.68861115       1.87749965       31      -0.00048030       0.00217772       0.00296096
O        0.95137294       1.18041995       5.30531041       32      -0.00221327      -0.00027308       0.00296096
O        3.19103988      -0.99630941       5.32051695       33      -0.00155112      -0.00003897      -0.00336644
O        2.00300948       0.00877950       3.08541568       34      -0.00048030      -0.00365312       0.00040548
O        0.95137294      -1.93281877       6.60850342       35      -0.00221327       0.00270080      -0.00124399
O       -0.65939244       1.72635739       3.18069266       36      -0.00328410       0.00118642      -0.00124399
O       -0.95137294      -0.75239883       5.05819231       37       0.00221327       0.00242773       0.00171697
O       -0.39224411       4.95440435       1.53510457       38       0.00155112       0.00003897       0.00336644
O        3.59458205       4.65548558       4.96291533       39       0.00048030      -0.00147541       0.00336644
