40
Lattice="8.937048395184812 7.004588020720348e-10 -3.1086244689504383e-15 -2.9790161323886717 8.425930031803224 -1.213233957741977e-09 -2.9790161313980668 -4.2129650152011475 7.297069458860641" Properties=species:S:1:pos:R:3:spacegroup_kinds:I:1:forces:R:3 spacegroup="P 1" unit_cell=conventional occupancy="_JSON {\"0\": {\"In\": 1}, \"1\": {\"In\": 1}, \"2\": {\"In\": 1}, \"3\": {\"In\": 1}, \"4\": {\"In\": 1}, \"5\": {\"In\": 1}, \"6\": {\"In\": 1}, \"7\": {\"In\": 1}, \"8\": {\"In\": 1}, \"9\": {\"In\": 1}, \"10\": {\"In\": 1}, \"11\": {\"In\": 1}, \"12\": {\"In\": 1}, \"13\": {\"In\": 1}, \"14\": {\"In\": 1}, \"15\": {\"In\": 1}, \"16\": {\"O\": 1}, \"17\": {\"O\": 1}, \"18\": {\"O\": 1}, \"19\": {\"O\": 1}, \"20\": {\"O\": 1}, \"21\": {\"O\": 1}, \"22\": {\"O\": 1}, \"23\": {\"O\": 1}, \"24\": {\"O\": 1}, \"25\": {\"O\": 1}, \"26\": {\"O\": 1}, \"27\": {\"O\": 1}, \"28\": {\"O\": 1}, \"29\": {\"O\": 1}, \"30\": {\"O\": 1}, \"31\": {\"O\": 1}, \"32\": {\"O\": 1}, \"33\": {\"O\": 1}, \"34\": {\"O\": 1}, \"35\": {\"O\": 1}, \"36\": {\"O\": 1}, \"37\": {\"O\": 1}, \"38\": {\"O\": 1}, \"39\": {\"O\": 1}}" n_minim_iter=1 energy=-45151.90326070529 stress="0.0006490429332036678 -4.1918337670216546e-13 -2.9191988987225163e-13 -4.1918337670216546e-13 0.000649042932449477 -3.8585956154560435e-13 -2.9191988987225163e-13 -3.8585956154560435e-13 0.0006490429320395737" free_energy=-45151.90326070529 pbc="T T T"
In      -4.26905749       3.01867950       5.71709793        0       0.02107026      -0.01489892       0.02580569
In       7.24807361       1.19428552       1.57997153        1      -0.02107026       0.01489892      -0.02580569
In       1.29004135      -0.91219699       5.22850626        2      -0.02107026       0.01489892      -0.02580569
In      -1.48950807      -2.10648251       3.64853473        3       0.00000000       0.00000000       0.00000000
In      -1.29004135       4.07192075       3.40423889        4       0.02107026      -0.01489892      -0.02580569
In       4.66799091      -2.87763523       5.47280209        5       0.02107026       0.02979784      -0.00000000
In      -1.29004135       1.33532979       5.47280209        6       0.02107026       0.02979784      -0.00000000
In      -1.68897478       7.09060025       1.82426736        7      -0.02107026      -0.02979784       0.00000000
In       4.26905748       0.14104427       3.89283056        8      -0.02107026       0.01489892       0.02580569
In      -1.48950807       4.21296502      -0.00000000        9      -0.00000000       0.00000000       0.00000000
In       4.26905748       6.46049179       0.24429583       10      -0.02107026       0.01489892       0.02580569
In      -1.29004135      -2.24752677       7.05277362       11       0.02107026      -0.01489892      -0.02580569
In       4.26905748       2.87763523       1.82426736       12      -0.02107026      -0.02979784      -0.00000000
In       1.68897478       5.12516201       2.06856320       13       0.02107026      -0.01489892       0.02580569
In       4.46852420       0.00000000      -0.00000000       14      -0.00000000       0.00000000       0.00000000
In       1.48950806       2.10648251       3.64853473       15       0.00000000      -0.00000000      -0.00000000
O        0.87250774       4.21142209       3.97316641       16       0.01031211       0.02096951      -0.04301775
O       -2.10650839       3.44163451       5.31182247       17       0.01031211      -0.04773922       0.00334875
O       -0.43783615       2.26170506       0.05845078       18      -0.02180135      -0.02503157      -0.03598205
O       -0.87250774      -0.77287344       1.98791942       19      -0.01031211      -0.02676971      -0.03966900
O        3.94697360       5.01958503       1.92946864       20      -0.04844633       0.00599546      -0.00368695
O        2.01105866       2.94530616       1.66328774       21       0.04844633       0.00619072       0.00334875
O        2.01105866       6.28724388       0.26618090       22       0.04844633      -0.00019526      -0.00703570
O       -2.27830136       5.97834172       3.70698551       23       0.01633287       0.02889837      -0.03598205
O        3.41685228       1.95125996       7.23861867       24       0.02180135       0.02503157       0.03598205
O        5.25731749      -1.76537670       3.59008395       25      -0.01633287      -0.02889837       0.03598205
O        6.39586841       3.28795490       1.71906608       26       0.02180135      -0.04367715       0.00368695
O        3.67973090       2.32765527       3.91471562       27       0.01633287      -0.04561056      -0.00703570
O        0.70071477       4.33289806       6.97243778       28       0.01633287       0.01671219       0.04301775
O        2.27830136      -0.11993304       0.32463168       29      -0.01633287      -0.01671219      -0.04301775
O       -3.41685229       0.92501012       5.57800337       30      -0.02180135       0.04367715      -0.00368695
O        5.08552452       0.77133051       1.98524698       31      -0.01031211       0.04773922      -0.00334875
O        0.96795747       1.26765886       5.63378171       32      -0.04844633      -0.00619072      -0.00334875
O        3.41685228      -1.02624984       5.63645415       33       0.02180135       0.01864559      -0.03966900
O        2.10650839       0.00154294       3.32390305       34      -0.01031211      -0.02096951       0.04301775
O        0.96795747      -2.07427886       7.03088856       35      -0.04844633       0.00019526       0.00703570
O       -0.70071477       1.88530975       3.38235383       36      -0.01633287       0.04561056       0.00703570
O       -0.96795747      -0.80662001       5.36760081       37       0.04844633      -0.00599546       0.00368695
O       -0.43783615       5.23921486       1.66061530       38      -0.02180135      -0.01864559       0.03966900
O        3.85152387       4.98583846       5.30915003       39       0.01031211       0.02676971       0.03966900
40
Lattice="8.937048395184812 7.004588020720351e-10 -3.1086244689504415e-15 -2.979016132388672 8.425930031803226 -1.2132339577419767e-09 -2.979016131398067 -4.212965015201148 7.297069458860638" Properties=species:S:1:pos:R:3:spacegroup_kinds:I:1:forces:R:3 spacegroup="P 1" unit_cell=conventional occupancy="_JSON {\"0\": {\"In\": 1}, \"1\": {\"In\": 1}, \"2\": {\"In\": 1}, \"3\": {\"In\": 1}, \"4\": {\"In\": 1}, \"5\": {\"In\": 1}, \"6\": {\"In\": 1}, \"7\": {\"In\": 1}, \"8\": {\"In\": 1}, \"9\": {\"In\": 1}, \"10\": {\"In\": 1}, \"11\": {\"In\": 1}, \"12\": {\"In\": 1}, \"13\": {\"In\": 1}, \"14\": {\"In\": 1}, \"15\": {\"In\": 1}, \"16\": {\"O\": 1}, \"17\": {\"O\": 1}, \"18\": {\"O\": 1}, \"19\": {\"O\": 1}, \"20\": {\"O\": 1}, \"21\": {\"O\": 1}, \"22\": {\"O\": 1}, \"23\": {\"O\": 1}, \"24\": {\"O\": 1}, \"25\": {\"O\": 1}, \"26\": {\"O\": 1}, \"27\": {\"O\": 1}, \"28\": {\"O\": 1}, \"29\": {\"O\": 1}, \"30\": {\"O\": 1}, \"31\": {\"O\": 1}, \"32\": {\"O\": 1}, \"33\": {\"O\": 1}, \"34\": {\"O\": 1}, \"35\": {\"O\": 1}, \"36\": {\"O\": 1}, \"37\": {\"O\": 1}, \"38\": {\"O\": 1}, \"39\": {\"O\": 1}}" n_minim_iter=2 energy=-45151.90632604831 stress="0.00022632603682082506 -1.6834676927711702e-13 5.821748214659547e-13 -1.6834676927711702e-13 0.00022632603605065321 1.610977706583705e-13 5.821748214659547e-13 1.610977706583705e-13 0.00022632603672272455" free_energy=-45151.90632604831 pbc="T T T"
In      -4.26755247       3.01761529       5.71894119        0      -0.00378740       0.00267810      -0.00463860
In       7.24656860       1.19534973       1.57812826        1       0.00378740      -0.00267810       0.00463860
In       1.28853633      -0.91113278       5.22666299        2       0.00378740      -0.00267810       0.00463860
In      -1.48950807      -2.10648251       3.64853473        3      -0.00000000       0.00000000       0.00000000
In      -1.28853634       4.07085654       3.40239563        4      -0.00378740       0.00267810       0.00463860
In       4.66949593      -2.87550681       5.47280209        5      -0.00378740      -0.00535620      -0.00000000
In      -1.28853633       1.33745821       5.47280209        6      -0.00378740      -0.00535620       0.00000000
In      -1.69047980       7.08847183       1.82426736        7       0.00378740       0.00535620       0.00000000
In       4.26755246       0.14210848       3.89467383        8       0.00378740      -0.00267810      -0.00463860
In      -1.48950807       4.21296502      -0.00000000        9      -0.00000000      -0.00000000       0.00000000
In       4.26755246       6.46155600       0.24613910       10       0.00378740      -0.00267810      -0.00463860
In      -1.28853633      -2.24859098       7.05093036       11      -0.00378740       0.00267810       0.00463860
In       4.26755246       2.87550681       1.82426736       12       0.00378740       0.00535620      -0.00000000
In       1.69047980       5.12409780       2.07040646       13      -0.00378740       0.00267810      -0.00463860
In       4.46852420       0.00000000      -0.00000000       14       0.00000000       0.00000000      -0.00000000
In       1.48950806       2.10648251       3.64853473       15       0.00000000      -0.00000000       0.00000000
O        0.87324432       4.21291991       3.97009371       16       0.01880622       0.00989923      -0.00523018
O       -2.10577181       3.43822457       5.31206167       17       0.01880622      -0.00947909      -0.00595790
O       -0.43939339       2.25991709       0.05588063       18       0.00666486      -0.00089385      -0.02082797
O       -0.87324432      -0.77478556       1.98508592       19      -0.01880622       0.00042014      -0.01118808
O        3.94351314       5.02001328       1.92920529       20      -0.01520571      -0.01244518       0.00963989
O        2.01451912       2.94574836       1.66352694       21       0.01520571      -0.01457098      -0.00595790
O        2.01451912       6.28722994       0.26567835       22       0.01520571       0.00212580       0.01559779
O       -2.27713473       5.98040589       3.70441536       23       0.00306435      -0.00598574      -0.02082797
O        3.41840952       1.95304793       7.24118882       24      -0.00666486       0.00089385       0.02082797
O        5.25615086      -1.76744087       3.59265409       25      -0.00306435       0.00598574       0.02082797
O        6.39742565       3.28483510       1.71932944       26      -0.00666486      -0.01848448      -0.00963989
O        3.68089754       2.32439738       3.91421307       27       0.00306435      -0.01504468       0.01559779
O        0.70188140       4.33409178       6.97551047       28       0.00306435       0.02103042       0.00523018
O        2.27713472      -0.12112676       0.32155898       29      -0.00306435      -0.02103042      -0.00523018
O       -3.41840953       0.92812992       5.57774002       30       0.00666486       0.01848448       0.00963989
O        5.08478794       0.77474045       1.98500779       31      -0.01880622       0.00947909       0.00595790
O        0.96449701       1.26721666       5.63354252       32      -0.01520571       0.01457098       0.00595790
O        3.41840952      -1.02491801       5.63362065       33      -0.00666486       0.01759063      -0.01118808
O        2.10577181       0.00004511       3.32697574       34      -0.01880622      -0.00989923       0.00523018
O        0.96449701      -2.07426492       7.03139111       35      -0.01520571      -0.00212580      -0.01559779
O       -0.70188141       1.88856764       3.38285638       36      -0.00306435       0.01504468      -0.01559779
O       -0.96449702      -0.80704826       5.36786417       37       0.01520571       0.01244518      -0.00963989
O       -0.43939339       5.23788303       1.66344880       38       0.00666486      -0.01759063       0.01118808
O        3.85226045       4.98775058       5.31198353       39       0.01880622      -0.00042014       0.01118808
40
Lattice="8.937048395184812 7.004588020720351e-10 -3.108624468950444e-15 -2.979016132388672 8.425930031803226 -1.2132339577419767e-09 -2.979016131398067 -4.212965015201148 7.297069458860638" Properties=species:S:1:pos:R:3:spacegroup_kinds:I:1:forces:R:3 spacegroup="P 1" unit_cell=conventional occupancy="_JSON {\"0\": {\"In\": 1}, \"1\": {\"In\": 1}, \"2\": {\"In\": 1}, \"3\": {\"In\": 1}, \"4\": {\"In\": 1}, \"5\": {\"In\": 1}, \"6\": {\"In\": 1}, \"7\": {\"In\": 1}, \"8\": {\"In\": 1}, \"9\": {\"In\": 1}, \"10\": {\"In\": 1}, \"11\": {\"In\": 1}, \"12\": {\"In\": 1}, \"13\": {\"In\": 1}, \"14\": {\"In\": 1}, \"15\": {\"In\": 1}, \"16\": {\"O\": 1}, \"17\": {\"O\": 1}, \"18\": {\"O\": 1}, \"19\": {\"O\": 1}, \"20\": {\"O\": 1}, \"21\": {\"O\": 1}, \"22\": {\"O\": 1}, \"23\": {\"O\": 1}, \"24\": {\"O\": 1}, \"25\": {\"O\": 1}, \"26\": {\"O\": 1}, \"27\": {\"O\": 1}, \"28\": {\"O\": 1}, \"29\": {\"O\": 1}, \"30\": {\"O\": 1}, \"31\": {\"O\": 1}, \"32\": {\"O\": 1}, \"33\": {\"O\": 1}, \"34\": {\"O\": 1}, \"35\": {\"O\": 1}, \"36\": {\"O\": 1}, \"37\": {\"O\": 1}, \"38\": {\"O\": 1}, \"39\": {\"O\": 1}}" n_minim_iter=3 energy=-45151.906686790375 stress="2.611345734217504e-05 1.8794339186006042e-13 -1.0309052725174762e-13 1.8794339186006042e-13 2.611345748950036e-05 -5.800728381577957e-13 -1.0309052725174762e-13 -5.800728381577957e-13 2.611345770769122e-05" free_energy=-45151.906686790375 pbc="T T T"
In      -4.26710713       3.01730039       5.71948661        0      -0.01064254       0.00752542      -0.01303440
In       7.24612326       1.19566463       1.57758285        1       0.01064254      -0.00752542       0.01303440
In       1.28809100      -0.91081788       5.22611757        2       0.01064254      -0.00752542       0.01303440
In      -1.48950807      -2.10648251       3.64853473        3      -0.00000000      -0.00000000      -0.00000000
In      -1.28809100       4.07054165       3.40185021        4      -0.01064254       0.00752542       0.01303440
In       4.66994126      -2.87487702       5.47280209        5      -0.01064254      -0.01505083       0.00000000
In      -1.28809100       1.33808800       5.47280209        6      -0.01064254      -0.01505083       0.00000000
In      -1.69092513       7.08784204       1.82426736        7       0.01064254       0.01505083      -0.00000000
In       4.26710713       0.14242337       3.89521924        8       0.01064254      -0.00752542      -0.01303440
In      -1.48950807       4.21296502      -0.00000000        9       0.00000000       0.00000000      -0.00000000
In       4.26710713       6.46187090       0.24668451       10       0.01064254      -0.00752542      -0.01303440
In      -1.28809100      -2.24890588       7.05038494       11      -0.01064254       0.00752542       0.01303440
In       4.26710713       2.87487702       1.82426736       12       0.01064254       0.01505083      -0.00000000
In       1.69092513       5.12378290       2.07095188       13      -0.01064254       0.00752542      -0.01303440
In       4.46852420       0.00000000      -0.00000000       14       0.00000000      -0.00000000       0.00000000
In       1.48950806       2.10648251       3.64853473       15      -0.00000000      -0.00000000       0.00000000
O        0.87413902       4.21381085       3.96875989       16       0.01962988       0.00081691       0.00845719
O       -2.10487711       3.43662398       5.31195700       17       0.01962988       0.00691569      -0.00493606
O       -0.43976423       2.25921136       0.05422601       18       0.01383365       0.01101424      -0.01203496
O       -0.87413902      -0.77549521       1.98364743       19      -0.01962988       0.00773260       0.00352113
O        3.94170586       5.01976763       1.92942142       20      -0.00002312      -0.01468098       0.01555609
O        2.01632640       2.94543836       1.66342227       21       0.00002312      -0.02081246      -0.00493606
O        2.01632640       6.28729429       0.26599915       22       0.00002312       0.00613148       0.02049215
O       -2.27659298       5.98099076       3.70276074       23      -0.00577311      -0.01671391      -0.01203496
O        3.41878035       1.95375366       7.24284345       24      -0.01383365      -0.01101424       0.01203496
O        5.25560910      -1.76802574       3.59430872       25       0.00577311       0.01671391       0.01203496
O        6.39779649       3.28304929       1.71911330       26      -0.01383365      -0.00491546      -0.01555609
O        3.68143929       2.32267200       3.91453388       27      -0.00577311      -0.00206562       0.02049215
O        0.70242316       4.33523230       6.97684429       28      -0.00577311       0.01877953      -0.00845719
O        2.27659297      -0.12226728       0.32022516       29       0.00577311      -0.01877953       0.00845719
O       -3.41878036       0.92991573       5.57795615       30       0.01383365       0.00491546       0.01555609
O        5.08389324       0.77634105       1.98511245       31      -0.01962988      -0.00691569       0.00493606
O        0.96268972       1.26752666       5.63364718       32      -0.00002312       0.02081246       0.00493606
O        3.41878036      -1.02383793       5.63218216       33      -0.01383365       0.01592970       0.00352113
O        2.10487711      -0.00084583       3.32830956       34      -0.01962988      -0.00081691      -0.00845719
O        0.96268972      -2.07432927       7.03107030       35      -0.00002312      -0.00613148      -0.02049215
O       -0.70242316       1.89029302       3.38253557       36       0.00577311       0.00206562      -0.02049215
O       -0.96268973      -0.80680261       5.36764803       37       0.00002312       0.01468098      -0.01555609
O       -0.43976423       5.23680295       1.66488729       38       0.01383365      -0.01592970      -0.00352113
O        3.85315515       4.98846023       5.31342202       39       0.01962988      -0.00773260      -0.00352113
40
Lattice="8.937048395184812 7.004588020720351e-10 -3.10862446895044e-15 -2.979016132388672 8.425930031803226 -1.2132339577419767e-09 -2.979016131398067 -4.212965015201148 7.297069458860638" Properties=species:S:1:pos:R:3:spacegroup_kinds:I:1:forces:R:3 spacegroup="P 1" unit_cell=conventional occupancy="_JSON {\"0\": {\"In\": 1}, \"1\": {\"In\": 1}, \"2\": {\"In\": 1}, \"3\": {\"In\": 1}, \"4\": {\"In\": 1}, \"5\": {\"In\": 1}, \"6\": {\"In\": 1}, \"7\": {\"In\": 1}, \"8\": {\"In\": 1}, \"9\": {\"In\": 1}, \"10\": {\"In\": 1}, \"11\": {\"In\": 1}, \"12\": {\"In\": 1}, \"13\": {\"In\": 1}, \"14\": {\"In\": 1}, \"15\": {\"In\": 1}, \"16\": {\"O\": 1}, \"17\": {\"O\": 1}, \"18\": {\"O\": 1}, \"19\": {\"O\": 1}, \"20\": {\"O\": 1}, \"21\": {\"O\": 1}, \"22\": {\"O\": 1}, \"23\": {\"O\": 1}, \"24\": {\"O\": 1}, \"25\": {\"O\": 1}, \"26\": {\"O\": 1}, \"27\": {\"O\": 1}, \"28\": {\"O\": 1}, \"29\": {\"O\": 1}, \"30\": {\"O\": 1}, \"31\": {\"O\": 1}, \"32\": {\"O\": 1}, \"33\": {\"O\": 1}, \"34\": {\"O\": 1}, \"35\": {\"O\": 1}, \"36\": {\"O\": 1}, \"37\": {\"O\": 1}, \"38\": {\"O\": 1}, \"39\": {\"O\": 1}}" n_minim_iter=4 energy=-45151.907497101005 stress="-2.6042778423648567e-05 -4.4278131398062337e-13 6.432603334063841e-13 -4.4278131398062337e-13 -2.604277821380624e-05 -1.528791543248304e-13 6.432603334063841e-13 -1.528791543248304e-13 -2.604277827709264e-05" free_energy=-45151.907497101005 pbc="T T T"
In      -4.26783145       3.01781256       5.71859951        0       0.00394608      -0.00279030       0.00483294
In       7.24684758       1.19515246       1.57846995        1      -0.00394608       0.00279030      -0.00483294
In       1.28881532      -0.91133005       5.22700468        2      -0.00394608       0.00279030      -0.00483294
In      -1.48950807      -2.10648251       3.64853473        3      -0.00000000      -0.00000000       0.00000000
In      -1.28881532       4.07105381       3.40273731        4       0.00394608      -0.00279030      -0.00483294
In       4.66921694      -2.87590135       5.47280209        5       0.00394608       0.00558059      -0.00000000
In      -1.28881532       1.33706366       5.47280209        6       0.00394608       0.00558059      -0.00000000
In      -1.69020082       7.08886637       1.82426736        7      -0.00394608      -0.00558059      -0.00000000
In       4.26783145       0.14191121       3.89433214        8      -0.00394608       0.00279030       0.00483294
In      -1.48950807       4.21296502      -0.00000000        9       0.00000000       0.00000000      -0.00000000
In       4.26783145       6.46135873       0.24579741       10      -0.00394608       0.00279030       0.00483294
In      -1.28881532      -2.24839371       7.05127204       11       0.00394608      -0.00279030      -0.00483294
In       4.26783145       2.87590136       1.82426736       12      -0.00394608      -0.00558059      -0.00000000
In       1.69020081       5.12429507       2.07006478       13       0.00394608      -0.00279030       0.00483294
In       4.46852420       0.00000000      -0.00000000       14       0.00000000       0.00000000       0.00000000
In       1.48950806       2.10648251       3.64853473       15       0.00000000       0.00000000      -0.00000000
O        0.87661272       4.21460340       3.96862889       16       0.00879106      -0.01208928      -0.00052069
O       -2.10240342       3.43611425       5.31133613       17       0.00879106       0.00559371       0.01072997
O       -0.43867301       2.25967920       0.05191195       18      -0.00319373       0.01406823      -0.00394834
O       -0.87661272      -0.77521239       1.98289557       19      -0.00879106      -0.00649557       0.01020928
O        3.94040072       5.01814879       1.93098361       20       0.00234344       0.00421599       0.01415762
O        2.01763154       2.94327604       1.66280140       21      -0.00234344      -0.01015286       0.01072997
O        2.01763154       6.28783776       0.26818220       22      -0.00234344       0.01436885       0.00342765
O       -2.27667032       5.97980601       3.70044668       23      -0.01432823      -0.00167833      -0.00394834
O        3.41768914       1.95328582       7.24515750       24       0.00319373      -0.01406823       0.00394834
O        5.25568645      -1.76684099       3.59662277       25       0.01432823       0.00167833       0.00394834
O        6.39670527       3.28127918       1.71755112       26       0.00319373       0.00361475      -0.01415762
O        3.68136195       2.32126034       3.91671693       27      -0.01432823      -0.00258020       0.00342765
O        0.70234582       4.33782870       6.97697529       28      -0.01432823       0.00425853       0.00052069
O        2.27667031      -0.12486368       0.32009416       29       0.01432823      -0.00425853      -0.00052069
O       -3.41768914       0.93168584       5.57951834       30      -0.00319373      -0.00361475       0.01415762
O        5.08141954       0.77685077       1.98573332       31      -0.00879106      -0.00559371      -0.01072997
O        0.96138459       1.26968898       5.63426805       32       0.00234344       0.01015286      -0.01072997
O        3.41768914      -1.02159998       5.63143029       33       0.00319373       0.01045348       0.01020928
O        2.10240341      -0.00163838       3.32844056       34      -0.00879106       0.01208928       0.00052069
O        0.96138459      -2.07487274       7.02888725       35       0.00234344      -0.01436885      -0.00342765
O       -0.70234582       1.89170468       3.38035252       36       0.01432823       0.00258020      -0.00342765
O       -0.96138459      -0.80518377       5.36608585       37      -0.00234344      -0.00421599      -0.01415762
O       -0.43867301       5.23456500       1.66563916       38      -0.00319373      -0.01045348      -0.01020928
O        3.85562885       4.98817741       5.31417389       39       0.00879106       0.00649557      -0.01020928
40
Lattice="8.937048395184815 7.004588020720353e-10 -3.10862446895045e-15 -2.979016132388674 8.42593003180323 -1.213233957741977e-09 -2.979016131398069 -4.21296501520115 7.29706945886064" Properties=species:S:1:pos:R:3:spacegroup_kinds:I:1:forces:R:3 spacegroup="P 1" unit_cell=conventional occupancy="_JSON {\"0\": {\"In\": 1}, \"1\": {\"In\": 1}, \"2\": {\"In\": 1}, \"3\": {\"In\": 1}, \"4\": {\"In\": 1}, \"5\": {\"In\": 1}, \"6\": {\"In\": 1}, \"7\": {\"In\": 1}, \"8\": {\"In\": 1}, \"9\": {\"In\": 1}, \"10\": {\"In\": 1}, \"11\": {\"In\": 1}, \"12\": {\"In\": 1}, \"13\": {\"In\": 1}, \"14\": {\"In\": 1}, \"15\": {\"In\": 1}, \"16\": {\"O\": 1}, \"17\": {\"O\": 1}, \"18\": {\"O\": 1}, \"19\": {\"O\": 1}, \"20\": {\"O\": 1}, \"21\": {\"O\": 1}, \"22\": {\"O\": 1}, \"23\": {\"O\": 1}, \"24\": {\"O\": 1}, \"25\": {\"O\": 1}, \"26\": {\"O\": 1}, \"27\": {\"O\": 1}, \"28\": {\"O\": 1}, \"29\": {\"O\": 1}, \"30\": {\"O\": 1}, \"31\": {\"O\": 1}, \"32\": {\"O\": 1}, \"33\": {\"O\": 1}, \"34\": {\"O\": 1}, \"35\": {\"O\": 1}, \"36\": {\"O\": 1}, \"37\": {\"O\": 1}, \"38\": {\"O\": 1}, \"39\": {\"O\": 1}}" n_minim_iter=5 energy=-45151.907716653055 stress="-0.00010306362746111037 -3.8550295073780887e-13 1.1151118936874118e-13 -3.8550295073780887e-13 -0.00010306362699465697 -1.9066636288366378e-13 1.1151118936874118e-13 -1.9066636288366378e-13 -0.0001030636272391461" free_energy=-45151.907716653055 pbc="T T T"
In      -4.26801661       3.01794349       5.71837273        0       0.01015967      -0.00718397       0.01244301
In       7.24703274       1.19502153       1.57869672        1      -0.01015967       0.00718397      -0.01244301
In       1.28900047      -0.91146098       5.22723145        2      -0.01015967       0.00718397      -0.01244301
In      -1.48950807      -2.10648251       3.64853473        3       0.00000000       0.00000000      -0.00000000
In      -1.28900048       4.07118474       3.40296408        4       0.01015967      -0.00718397      -0.01244301
In       4.66903179      -2.87616321       5.47280209        5       0.01015967       0.01436794       0.00000000
In      -1.28900048       1.33680181       5.47280209        6       0.01015967       0.01436794       0.00000000
In      -1.69001566       7.08912823       1.82426736        7      -0.01015967      -0.01436794       0.00000000
In       4.26801661       0.14178028       3.89410537        8      -0.01015967       0.00718397       0.01244301
In      -1.48950807       4.21296502      -0.00000000        9      -0.00000000       0.00000000      -0.00000000
In       4.26801661       6.46122780       0.24557064       10      -0.01015967       0.00718397       0.01244301
In      -1.28900048      -2.24826278       7.05149881       11       0.01015967      -0.00718397      -0.01244301
In       4.26801661       2.87616321       1.82426736       12      -0.01015967      -0.01436794      -0.00000000
In       1.69001565       5.12442600       2.06983800       13       0.01015967      -0.00718397       0.01244301
In       4.46852420       0.00000000      -0.00000000       14      -0.00000000      -0.00000000       0.00000000
In       1.48950806       2.10648251       3.64853473       15      -0.00000000       0.00000000       0.00000000
O        0.87884333       4.21463472       3.96828417       16       0.00124380      -0.01171661      -0.00132736
O       -2.10017281       3.43580005       5.31148137       17       0.00124380       0.00470877       0.01081056
O       -0.43819617       2.26060511       0.04990927       18      -0.00619245       0.00996700       0.00170305
O       -0.87884333      -0.77549526       1.98269608       19      -0.00124380      -0.00700783       0.00948320
O        3.93936095       5.01727541       1.93278681       20       0.00402487       0.00799109       0.00778015
O        2.01867131       2.94127774       1.66294664       21      -0.00402487      -0.00274226       0.01081056
O        2.01867131       6.28896270       0.26984017       22      -0.00402487       0.01073335      -0.00303041
O       -2.27738433       5.97904780       3.69844400       23      -0.01146112       0.00251596       0.00170305
O        3.41721230       1.95235991       7.24716019       24       0.00619245      -0.00996700      -0.00170305
O        5.25640045      -1.76608278       3.59862546       25       0.01146112      -0.00251596      -0.00170305
O        6.39622843       3.28000776       1.71574791       26       0.00619245       0.00645839      -0.00778015
O        3.68064794       2.31990507       3.91837490       27      -0.01146112       0.00021691      -0.00303041
O        0.70163181       4.33994218       6.97732001       28      -0.01146112      -0.00273287       0.00132736
O        2.27738432      -0.12697716       0.31974944       29       0.01146112       0.00273287      -0.00132736
O       -3.41721231       0.93295726       5.58132154       30      -0.00619245      -0.00645839       0.00778015
O        5.07918893       0.77716497       1.98558808       31      -0.00124380      -0.00470877      -0.01081056
O        0.96034482       1.27168729       5.63412281       32       0.00402487       0.00274226      -0.01081056
O        3.41721230      -1.01940265       5.63123081       33       0.00619245       0.00350861       0.00948320
O        2.10017280      -0.00166970       3.32878529       34      -0.00124380       0.01171661       0.00132736
O        0.96034482      -2.07599768       7.02722929       35       0.00402487      -0.01073335       0.00303041
O       -0.70163181       1.89305995       3.37869456       36       0.01146112      -0.00021691       0.00303041
O       -0.96034483      -0.80431039       5.36428264       37      -0.00402487      -0.00799109      -0.00778015
O       -0.43819617       5.23236767       1.66583864       38      -0.00619245      -0.00350861      -0.00948320
O        3.85785946       4.98846028       5.31437337       39       0.00124380       0.00700783      -0.00948320
40