40
Lattice="9.218713724431232 7.225362530505244e-10 3.5527136788004394e-15 -3.0729045754916258 8.691486650909582 -1.2514713709777032e-09 -3.0729045744698062 -4.345743324732254 7.527048237175343" Properties=species:S:1:pos:R:3:spacegroup_kinds:I:1:forces:R:3 spacegroup="P 1" unit_cell=conventional occupancy="_JSON {\"0\": {\"In\": 1}, \"1\": {\"In\": 1}, \"2\": {\"In\": 1}, \"3\": {\"In\": 1}, \"4\": {\"In\": 1}, \"5\": {\"In\": 1}, \"6\": {\"In\": 1}, \"7\": {\"In\": 1}, \"8\": {\"In\": 1}, \"9\": {\"In\": 1}, \"10\": {\"In\": 1}, \"11\": {\"In\": 1}, \"12\": {\"In\": 1}, \"13\": {\"In\": 1}, \"14\": {\"In\": 1}, \"15\": {\"In\": 1}, \"16\": {\"O\": 1}, \"17\": {\"O\": 1}, \"18\": {\"O\": 1}, \"19\": {\"O\": 1}, \"20\": {\"O\": 1}, \"21\": {\"O\": 1}, \"22\": {\"O\": 1}, \"23\": {\"O\": 1}, \"24\": {\"O\": 1}, \"25\": {\"O\": 1}, \"26\": {\"O\": 1}, \"27\": {\"O\": 1}, \"28\": {\"O\": 1}, \"29\": {\"O\": 1}, \"30\": {\"O\": 1}, \"31\": {\"O\": 1}, \"32\": {\"O\": 1}, \"33\": {\"O\": 1}, \"34\": {\"O\": 1}, \"35\": {\"O\": 1}, \"36\": {\"O\": 1}, \"37\": {\"O\": 1}, \"38\": {\"O\": 1}, \"39\": {\"O\": 1}}" n_minim_iter=8 energy=-45151.8525702397 stress="0.002188040347452487 -3.72150234309145e-13 2.428796875250936e-13 -3.72150234309145e-13 0.0021880403470762666 1.853563527496554e-15 2.428796875250936e-13 1.853563527496554e-15 0.002188040347595307" free_energy=-45151.8525702397 pbc="T T T"
In      -4.37972134       3.09693066       5.92653111        0       0.00057482      -0.00040646       0.00070400
In       7.45262591       1.24881267       1.60051712        1      -0.00057482       0.00040646      -0.00070400
In       1.30681676      -0.92405899       5.36404124        2      -0.00057482       0.00040646      -0.00070400
In      -1.53645229      -2.17287166       3.76352412        3       0.00000000       0.00000000      -0.00000000
In      -1.30681676       4.18336649       3.48227918        4       0.00057482      -0.00040646      -0.00070400
In       4.83899239      -2.93455382       5.64528618        5       0.00057482       0.00081291      -0.00000000
In      -1.30681676       1.41118951       5.64528617        6       0.00057482       0.00081291       0.00000000
In      -1.76608781       7.28029715       1.88176206        7      -0.00057482      -0.00081291       0.00000000
In       4.37972134       0.16237684       4.04476905        8      -0.00057482       0.00040646       0.00070400
In      -1.53645229       4.34574333      -0.00000000        9      -0.00000000       0.00000000       0.00000000
In       4.37972134       6.68099183       0.28124493       10      -0.00057482       0.00040646       0.00070400
In      -1.30681676      -2.33524850       7.24580330       11       0.00057482      -0.00040646      -0.00070400
In       4.37972134       2.93455382       1.88176206       12      -0.00057482      -0.00081291      -0.00000000
In       1.76608781       5.26980232       2.16300699       13       0.00057482      -0.00040646       0.00070400
In       4.60935686       0.00000000      -0.00000000       14       0.00000000       0.00000000      -0.00000000
In       1.53645229       2.17287166       3.76352412       15      -0.00000000      -0.00000000      -0.00000000
O        0.96974895       4.35663345       4.07720712       16       0.00105328      -0.00113708      -0.00414232
O       -2.10315562       3.52551988       5.47901355       17       0.00105328      -0.00301881       0.00305590
O       -0.43979712       2.34934780      -0.01084490       18      -0.00356712       0.00024831      -0.00260291
O       -0.96974896      -0.80933332       2.02917243       19      -0.00105328      -0.00415590      -0.00108642
O        4.02494389       5.14881535       2.04001732       20      -0.00319726       0.00265310       0.00151650
O        2.12086526       2.98057251       1.71548943       21       0.00319726       0.00001323       0.00305590
O        2.12086526       6.51398617       0.32452789       22       0.00319726       0.00263988      -0.00153941
O       -2.36158539       6.15014376       3.75267922       23      -0.00142315       0.00328035      -0.00260291
O        3.51270169       1.99639553       7.53789313       24       0.00356712      -0.00024831       0.00260291
O        5.43448996      -1.80440043       3.77436901       25       0.00142315      -0.00328035       0.00260291
O        6.58560627       3.33815361       1.72350679       26       0.00356712      -0.00213004      -0.00151649
O        3.78422376       2.34771533       4.08805201       27      -0.00142315      -0.00389436      -0.00153941
O        0.71131918       4.53937090       7.21336523       28      -0.00142315       0.00061401       0.00414232
O        2.36158539      -0.19362757       0.31368300       29       0.00142315      -0.00061401      -0.00414232
O       -3.51270170       1.00758972       5.80354144       30      -0.00356712       0.00213004       0.00151649
O        5.17606019       0.82022345       2.04803468       31      -0.00105328       0.00301881      -0.00305590
O        0.95203931       1.36517082       5.81155880       32      -0.00319726      -0.00001323      -0.00305590
O        3.51270170      -0.98880580       5.79269655       33       0.00356712       0.00237834      -0.00108642
O        2.10315562      -0.01089012       3.44984112       34      -0.00105328       0.00113708       0.00414232
O        0.95203931      -2.16824284       7.20252034       35      -0.00319726      -0.00263988       0.00153941
O       -0.71131919       1.99802800       3.43899622       36       0.00142315       0.00389436       0.00153941
O       -0.95203932      -0.80307202       5.48703091       37       0.00319726      -0.00265310      -0.00151650
O       -0.43979712       5.33454913       1.73435168       38      -0.00356712      -0.00237834       0.00108642
O        4.04265353       5.15507665       5.49787580       39       0.00105328       0.00415590       0.00108642
