40
Lattice="8.313249293193508 6.515685768704316e-10 1.199040866595169e-14 -2.771083098345475 7.837806598331351 -1.1285647971703838e-09 -2.7710830974240284 -3.918903298514098 6.787739624856613" Properties=species:S:1:pos:R:3:spacegroup_kinds:I:1:forces:R:3 spacegroup="P 1" unit_cell=conventional occupancy="_JSON {\"0\": {\"In\": 1}, \"1\": {\"In\": 1}, \"2\": {\"In\": 1}, \"3\": {\"In\": 1}, \"4\": {\"In\": 1}, \"5\": {\"In\": 1}, \"6\": {\"In\": 1}, \"7\": {\"In\": 1}, \"8\": {\"In\": 1}, \"9\": {\"In\": 1}, \"10\": {\"In\": 1}, \"11\": {\"In\": 1}, \"12\": {\"In\": 1}, \"13\": {\"In\": 1}, \"14\": {\"In\": 1}, \"15\": {\"In\": 1}, \"16\": {\"O\": 1}, \"17\": {\"O\": 1}, \"18\": {\"O\": 1}, \"19\": {\"O\": 1}, \"20\": {\"O\": 1}, \"21\": {\"O\": 1}, \"22\": {\"O\": 1}, \"23\": {\"O\": 1}, \"24\": {\"O\": 1}, \"25\": {\"O\": 1}, \"26\": {\"O\": 1}, \"27\": {\"O\": 1}, \"28\": {\"O\": 1}, \"29\": {\"O\": 1}, \"30\": {\"O\": 1}, \"31\": {\"O\": 1}, \"32\": {\"O\": 1}, \"33\": {\"O\": 1}, \"34\": {\"O\": 1}, \"35\": {\"O\": 1}, \"36\": {\"O\": 1}, \"37\": {\"O\": 1}, \"38\": {\"O\": 1}, \"39\": {\"O\": 1}}" n_minim_iter=1 energy=-45151.9097774291 stress="0.000182756238743421 6.892256052609781e-13 2.3809331352955485e-13 6.892256052609781e-13 0.00018275623859006688 3.113665914225726e-13 2.3809331352955485e-13 3.113665914225726e-13 0.00018275623886563583" free_energy=-45151.9097774291 pbc="T T T"
In      -3.96143389       2.80115677       5.32986360        0      -0.00036507       0.00025815      -0.00044712
In       6.73251698       1.11774654       1.45787602        1       0.00036507      -0.00025815       0.00044712
In       1.19035079      -0.84170511       4.85174583        2       0.00036507      -0.00025815       0.00044712
In      -1.38554155      -1.95945165       3.39386981        3      -0.00000000       0.00000000       0.00000000
In      -1.19035079       3.78088259       3.15481093        4      -0.00036507       0.00025815       0.00044712
In       4.35181541      -2.66313605       5.09080472        5      -0.00036507      -0.00051629       0.00000000
In      -1.19035079       1.25576725       5.09080472        6      -0.00036507      -0.00051629       0.00000000
In      -1.58073231       6.58203935       1.69693490        7       0.00036507       0.00051629      -0.00000000
In       3.96143388       0.13802071       3.63292869        8       0.00036507      -0.00025815      -0.00044712
In      -1.38554155       3.91890330      -0.00000000        9       0.00000000      -0.00000000      -0.00000000
In       3.96143388       6.01637566       0.23905888       10       0.00036507      -0.00025815      -0.00044712
In      -1.19035079      -2.09747236       6.54868074       11      -0.00036507       0.00025815       0.00044712
In       3.96143388       2.66313606       1.69693490       12       0.00036507       0.00051629      -0.00000000
In       1.58073231       4.76060842       1.93599379       13      -0.00036507       0.00025815      -0.00044712
In       4.15662465       0.00000000      -0.00000000       14      -0.00000000       0.00000000      -0.00000000
In       1.38554155       1.95945165       3.39386981       15      -0.00000000       0.00000000       0.00000000
O        0.78790669       3.91021073       3.73287462       16      -0.00222715      -0.00004864       0.04846163
O       -1.98317641       3.23711054       4.92883029       17      -0.00222715       0.04199332      -0.02418869
O       -0.38836025       2.10940522       0.09433358       18       0.03880344       0.01298031       0.02606331
O       -0.78790669      -0.69048533       1.87396529       19       0.00222715       0.04194468       0.02427294
O        3.71303588       4.66385215       1.77963171       20       0.04033406      -0.02689702      -0.00179038
O        1.82913031       2.75017145       1.53496048       21      -0.04033406      -0.01189800      -0.02418869
O        1.82913031       5.83258400       0.24467123       22      -0.04033406      -0.01499902       0.02239831
O       -2.11821973       5.54136943       3.48820339       23       0.00069653      -0.04091101       0.02606331
O        3.15944335       1.80949809       6.69340604       24      -0.03880344      -0.01298031      -0.02606331
O        4.88930282      -1.62246613       3.29953623       25      -0.00069653       0.04091101      -0.02606331
O        5.93052644       3.09584954       1.61423810       26      -0.03880344       0.02906165       0.00179038
O        3.42394647       2.20963969       3.63854104       27       0.00069653       0.04302700       0.02239831
O        0.65286337       4.00570078       6.44873481       28       0.00069653      -0.00211599      -0.04846163
O        2.11821973      -0.08679748       0.33900481       29      -0.00069653       0.00211599       0.04846163
O       -3.15944335       0.82305377       5.17350152       30       0.03880344      -0.02906165      -0.00179038
O        4.75425950       0.68179277       1.85890932       31       0.00222715      -0.04199332       0.02418869
O        0.94195278       1.16873185       5.25277914       32       0.04033406       0.01189800       0.02418869
O        3.15944335      -0.98644432       5.26783510       33      -0.03880344      -0.01608134       0.02427294
O        1.98317640       0.00869257       3.05486500       34       0.00222715       0.00004864      -0.04846163
O        0.94195278      -1.91368070       6.54306839       35       0.04033406       0.01499902      -0.02239831
O       -0.65286337       1.70926362       3.14919858       36      -0.00069653      -0.04302700      -0.02239831
O       -0.94195279      -0.74494885       5.00810791       37      -0.04033406       0.02689702       0.00179038
O       -0.38836025       4.90534762       1.51990451       38       0.03880344       0.01608134      -0.02427294
O        3.55898979       4.60938863       4.91377433       39      -0.00222715      -0.04194468      -0.02427294
40
Lattice="8.313249293193508 6.515685768704316e-10 1.199040866595169e-14 -2.771083098345475 7.837806598331351 -1.1285647971703838e-09 -2.7710830974240284 -3.918903298514098 6.787739624856613" Properties=species:S:1:pos:R:3:spacegroup_kinds:I:1:forces:R:3 spacegroup="P 1" unit_cell=conventional occupancy="_JSON {\"0\": {\"In\": 1}, \"1\": {\"In\": 1}, \"2\": {\"In\": 1}, \"3\": {\"In\": 1}, \"4\": {\"In\": 1}, \"5\": {\"In\": 1}, \"6\": {\"In\": 1}, \"7\": {\"In\": 1}, \"8\": {\"In\": 1}, \"9\": {\"In\": 1}, \"10\": {\"In\": 1}, \"11\": {\"In\": 1}, \"12\": {\"In\": 1}, \"13\": {\"In\": 1}, \"14\": {\"In\": 1}, \"15\": {\"In\": 1}, \"16\": {\"O\": 1}, \"17\": {\"O\": 1}, \"18\": {\"O\": 1}, \"19\": {\"O\": 1}, \"20\": {\"O\": 1}, \"21\": {\"O\": 1}, \"22\": {\"O\": 1}, \"23\": {\"O\": 1}, \"24\": {\"O\": 1}, \"25\": {\"O\": 1}, \"26\": {\"O\": 1}, \"27\": {\"O\": 1}, \"28\": {\"O\": 1}, \"29\": {\"O\": 1}, \"30\": {\"O\": 1}, \"31\": {\"O\": 1}, \"32\": {\"O\": 1}, \"33\": {\"O\": 1}, \"34\": {\"O\": 1}, \"35\": {\"O\": 1}, \"36\": {\"O\": 1}, \"37\": {\"O\": 1}, \"38\": {\"O\": 1}, \"39\": {\"O\": 1}}" n_minim_iter=2 energy=-45151.9112058802 stress="0.00037328243530293623 2.6773340241049307e-13 4.255135231398608e-13 2.6773340241049307e-13 0.0003732824356640179 -1.157910302993455e-13 4.255135231398608e-13 -1.157910302993455e-13 0.0003732824354716773" free_energy=-45151.9112058802 pbc="T T T"
In      -3.96145235       2.80116982       5.32984098        0       0.03269768      -0.02312075       0.04004632
In       6.73253545       1.11773348       1.45789864        1      -0.03269768       0.02312075      -0.04004632
In       1.19036925      -0.84171817       4.85176845        2      -0.03269768       0.02312075      -0.04004632
In      -1.38554155      -1.95945165       3.39386981        3       0.00000000       0.00000000       0.00000000
In      -1.19036925       3.78089565       3.15483354        4       0.03269768      -0.02312075      -0.04004632
In       4.35179694      -2.66316216       5.09080472        5       0.03269768       0.04624151       0.00000000
In      -1.19036925       1.25574113       5.09080472        6       0.03269768       0.04624151      -0.00000000
In      -1.58071385       6.58206547       1.69693490        7      -0.03269768      -0.04624151       0.00000000
In       3.96145235       0.13800766       3.63290608        8      -0.03269768       0.02312075       0.04004632
In      -1.38554155       3.91890330      -0.00000000        9       0.00000000      -0.00000000       0.00000000
In       3.96145235       6.01636260       0.23903627       10      -0.03269768       0.02312075       0.04004632
In      -1.19036925      -2.09745930       6.54870335       11       0.03269768      -0.02312075      -0.04004632
In       3.96145235       2.66316217       1.69693490       12      -0.03269768      -0.04624151      -0.00000000
In       1.58071384       4.76062147       1.93597117       13       0.03269768      -0.02312075       0.04004632
In       4.15662465       0.00000000      -0.00000000       14       0.00000000       0.00000000       0.00000000
In       1.38554155       1.95945165       3.39386981       15      -0.00000000      -0.00000000      -0.00000000
O        0.78779405       3.91020827       3.73532570       16      -0.01848736      -0.01850609      -0.00048192
O       -1.98328905       3.23923446       4.92760689       17      -0.01848736       0.00883569       0.01626771
O       -0.38639766       2.11006173       0.09565180       18      -0.01527980       0.00656760       0.02019616
O       -0.78779405      -0.68836386       1.87519296       19       0.01848736      -0.00967040       0.01578578
O        3.71507589       4.66249176       1.77954116       20       0.01449282       0.02133066      -0.00441037
O        1.82709031       2.74956968       1.53373707       21      -0.01449282       0.01448482       0.01626771
O        1.82709031       5.83182538       0.24580408       22      -0.01449282       0.00684583      -0.02067808
O       -2.11818450       5.53930025       3.48952161       23      -0.01128525       0.01221673       0.02019616
O        3.15748076       1.80884157       6.69208782       24       0.01527980      -0.00656760      -0.02019616
O        4.88926759      -1.62039694       3.29821801       25       0.01128525      -0.01221673      -0.02019616
O        5.92856385       3.09731941       1.61432865       26       0.01527980       0.02077418       0.00441037
O        3.42398170       2.21181590       3.63967389       27      -0.01128525       0.01138202      -0.02067808
O        0.65289860       4.00559376       6.44628373       28      -0.01128525      -0.02359875       0.00048192
O        2.11818450      -0.08669046       0.34145589       29       0.01128525       0.02359875      -0.00048192
O       -3.15748076       0.82158389       5.17341097       30      -0.01527980      -0.02077418      -0.00441037
O        4.75437215       0.67966884       1.86013273       31       0.01848736      -0.00883569      -0.01626771
O        0.94399279       1.16933362       5.25400255       32       0.01449282      -0.01448482      -0.01626771
O        3.15748076      -0.98725767       5.26906277       33       0.01527980      -0.01420659       0.01578578
O        1.98328905       0.00869503       3.05241392       34       0.01848736       0.01850609       0.00048192
O        0.94399279      -1.91292208       6.54193554       35       0.01449282      -0.00684583       0.02067808
O       -0.65289860       1.70708741       3.14806573       36       0.01128525      -0.01138202       0.02067808
O       -0.94399279      -0.74358846       5.00819846       37      -0.01449282      -0.02133066       0.00441037
O       -0.38639766       4.90616098       1.51867684       38      -0.01527980       0.01420659      -0.01578578
O        3.55887714       4.60726717       4.91254666       39      -0.01848736       0.00967040      -0.01578578
40
Lattice="8.313249293193508 6.515685768704316e-10 1.199040866595169e-14 -2.771083098345475 7.837806598331351 -1.1285647971703838e-09 -2.7710830974240284 -3.918903298514098 6.787739624856613" Properties=species:S:1:pos:R:3:spacegroup_kinds:I:1:forces:R:3 spacegroup="P 1" unit_cell=conventional occupancy="_JSON {\"0\": {\"In\": 1}, \"1\": {\"In\": 1}, \"2\": {\"In\": 1}, \"3\": {\"In\": 1}, \"4\": {\"In\": 1}, \"5\": {\"In\": 1}, \"6\": {\"In\": 1}, \"7\": {\"In\": 1}, \"8\": {\"In\": 1}, \"9\": {\"In\": 1}, \"10\": {\"In\": 1}, \"11\": {\"In\": 1}, \"12\": {\"In\": 1}, \"13\": {\"In\": 1}, \"14\": {\"In\": 1}, \"15\": {\"In\": 1}, \"16\": {\"O\": 1}, \"17\": {\"O\": 1}, \"18\": {\"O\": 1}, \"19\": {\"O\": 1}, \"20\": {\"O\": 1}, \"21\": {\"O\": 1}, \"22\": {\"O\": 1}, \"23\": {\"O\": 1}, \"24\": {\"O\": 1}, \"25\": {\"O\": 1}, \"26\": {\"O\": 1}, \"27\": {\"O\": 1}, \"28\": {\"O\": 1}, \"29\": {\"O\": 1}, \"30\": {\"O\": 1}, \"31\": {\"O\": 1}, \"32\": {\"O\": 1}, \"33\": {\"O\": 1}, \"34\": {\"O\": 1}, \"35\": {\"O\": 1}, \"36\": {\"O\": 1}, \"37\": {\"O\": 1}, \"38\": {\"O\": 1}, \"39\": {\"O\": 1}}" n_minim_iter=3 energy=-45151.91310312913 stress="0.0005893862514458864 4.728632861738732e-13 -8.567935033493802e-13 4.728632861738732e-13 0.0005893862511629955 1.8274132519608113e-13 -8.567935033493802e-13 1.8274132519608113e-13 0.0005893862525792603" free_energy=-45151.91310312913 pbc="T T T"
In      -3.95921484       2.79958766       5.33258137        0       0.00330248      -0.00233521       0.00404470
In       6.73029793       1.11931564       1.45515825        1      -0.00330248       0.00233521      -0.00404470
In       1.18813174      -0.84013601       4.84902806        2      -0.00330248       0.00233521      -0.00404470
In      -1.38554155      -1.95945165       3.39386981        3       0.00000000       0.00000000      -0.00000000
In      -1.18813174       3.77931348       3.15209316        4       0.00330248      -0.00233521      -0.00404470
In       4.35403446      -2.65999784       5.09080472        5       0.00330248       0.00467041       0.00000000
In      -1.18813174       1.25890546       5.09080472        6       0.00330248       0.00467041      -0.00000000
In      -1.58295136       6.57890114       1.69693490        7      -0.00330248      -0.00467041      -0.00000000
In       3.95921483       0.13958982       3.63564646        8      -0.00330248       0.00233521       0.00404470
In      -1.38554155       3.91890330      -0.00000000        9       0.00000000       0.00000000      -0.00000000
In       3.95921483       6.01794477       0.24177665       10      -0.00330248       0.00233521       0.00404470
In      -1.18813174      -2.09904146       6.54596297       11       0.00330248      -0.00233521      -0.00404470
In       3.95921483       2.65999784       1.69693490       12      -0.00330248      -0.00467041       0.00000000
In       1.58295136       4.75903931       1.93871156       13       0.00330248      -0.00233521       0.00404470
In       4.15662465       0.00000000      -0.00000000       14      -0.00000000      -0.00000000       0.00000000
In       1.38554155       1.95945165       3.39386981       15      -0.00000000      -0.00000000       0.00000000
O        0.78636507       3.90892471       3.73855582       16       0.00183522       0.00783656       0.00048421
O       -1.98471803       3.24267362       4.92710343       17       0.00183522      -0.00349894      -0.00702877
O       -0.38484168       2.11139020       0.09880415       18       0.00470129      -0.00552556      -0.00351857
O       -0.78636507      -0.68620828       1.87791963       19      -0.00183522       0.00433762      -0.00654456
O        3.71879468       4.66215619       1.77911547       20      -0.00391058      -0.00636907      -0.00302599
O        1.82337151       2.74977055       1.53323361       21       0.00391058      -0.00056395      -0.00702877
O        1.82337151       5.83128894       0.24588186       22       0.00391058      -0.00580511       0.00400278
O       -2.11891833       5.53739043       3.49267396       23       0.00677664      -0.00259057      -0.00351857
O        3.15592477       1.80751310       6.68893547       24      -0.00470129       0.00552556       0.00351857
O        4.89000143      -1.61848713       3.29506565       25      -0.00677664       0.00259057       0.00351857
O        5.92700787       3.10071366       1.61475433       26      -0.00470129      -0.00580995       0.00302599
O        3.42324786       2.21550082       3.63975167       27       0.00677664      -0.00175189       0.00400278
O        0.65216476       4.00381865       6.44305361       28       0.00677664       0.00434245      -0.00048421
O        2.11891833      -0.08491535       0.34468601       29      -0.00677664      -0.00434245       0.00048421
O       -3.15592478       0.81818964       5.17298528       30       0.00470129       0.00580995      -0.00302599
O        4.75580112       0.67622968       1.86063619       31      -0.00183522       0.00349894       0.00702877
O        0.94771158       1.16913276       5.25450601       32      -0.00391058       0.00056395       0.00702877
O        3.15592478      -0.98932345       5.27178944       33      -0.00470129       0.00028439      -0.00654456
O        1.98471802       0.00997860       3.04918380       34      -0.00183522      -0.00783656      -0.00048421
O        0.94771158      -1.91238564       6.54185776       35      -0.00391058       0.00580511      -0.00400278
O       -0.65216477       1.70340248       3.14798795       36      -0.00677664       0.00175189      -0.00400278
O       -0.94771158      -0.74325288       5.00862415       37       0.00391058       0.00636907       0.00302599
O       -0.38484168       4.90822676       1.51595018       38       0.00470129      -0.00028439       0.00654456
O        3.55744817       4.60511158       4.90981999       39       0.00183522      -0.00433762       0.00654456
