40
Lattice="8.863790605231928 6.947185049455129e-10 -2.6645352591003757e-15 -2.95459686906563 8.35686192507124 -1.2032894680658046e-09 -2.954596868083147 -4.178430961840898 7.237254723832816" Properties=species:S:1:pos:R:3:spacegroup_kinds:I:1:forces:R:3 spacegroup="P 1" unit_cell=conventional occupancy="_JSON {\"0\": {\"In\": 1}, \"1\": {\"In\": 1}, \"2\": {\"In\": 1}, \"3\": {\"In\": 1}, \"4\": {\"In\": 1}, \"5\": {\"In\": 1}, \"6\": {\"In\": 1}, \"7\": {\"In\": 1}, \"8\": {\"In\": 1}, \"9\": {\"In\": 1}, \"10\": {\"In\": 1}, \"11\": {\"In\": 1}, \"12\": {\"In\": 1}, \"13\": {\"In\": 1}, \"14\": {\"In\": 1}, \"15\": {\"In\": 1}, \"16\": {\"O\": 1}, \"17\": {\"O\": 1}, \"18\": {\"O\": 1}, \"19\": {\"O\": 1}, \"20\": {\"O\": 1}, \"21\": {\"O\": 1}, \"22\": {\"O\": 1}, \"23\": {\"O\": 1}, \"24\": {\"O\": 1}, \"25\": {\"O\": 1}, \"26\": {\"O\": 1}, \"27\": {\"O\": 1}, \"28\": {\"O\": 1}, \"29\": {\"O\": 1}, \"30\": {\"O\": 1}, \"31\": {\"O\": 1}, \"32\": {\"O\": 1}, \"33\": {\"O\": 1}, \"34\": {\"O\": 1}, \"35\": {\"O\": 1}, \"36\": {\"O\": 1}, \"37\": {\"O\": 1}, \"38\": {\"O\": 1}, \"39\": {\"O\": 1}}" n_minim_iter=1 energy=-45151.90769882705 stress="2.0496865098183575e-05 3.578100606454956e-13 6.322107980382853e-13 3.578100606454956e-13 2.0496865251762516e-05 4.428703606085355e-13 6.322107980382853e-13 4.428703606085355e-13 2.049686477739872e-05" free_energy=-45151.90769882705 pbc="T T T"
In      -4.23406364       2.99393511       5.67023436        0       0.00257258      -0.00181909       0.00315076
In       7.18866050       1.18449586       1.56702036        1      -0.00257258       0.00181909      -0.00315076
In       1.27946677      -0.90471962       5.18564772        2      -0.00257258       0.00181909      -0.00315076
In      -1.47729844      -2.08921548       3.61862736        3       0.00000000       0.00000000      -0.00000000
In      -1.27946677       4.03854285       3.37633404        4       0.00257258      -0.00181909      -0.00315076
In       4.62972697      -2.85404699       5.42794104        5       0.00257258       0.00363818      -0.00000000
In      -1.27946677       1.32438397       5.42794104        6       0.00257258       0.00363818       0.00000000
In      -1.67513010       7.03247796       1.80931368        7      -0.00257258      -0.00363818      -0.00000000
In       4.23406363       0.13988812       3.86092068        8      -0.00257258       0.00181909       0.00315076
In      -1.47729844       4.17843096      -0.00000000        9      -0.00000000       0.00000000       0.00000000
In       4.23406363       6.40753456       0.24229332       10      -0.00257258       0.00181909       0.00315076
In      -1.27946677      -2.22910359       6.99496140       11       0.00257258      -0.00181909      -0.00315076
In       4.23406363       2.85404700       1.80931368       12      -0.00257258      -0.00363818       0.00000000
In       1.67513010       5.08315059       2.05160700       13       0.00257258      -0.00181909       0.00315076
In       4.43189530       0.00000000      -0.00000000       14      -0.00000000       0.00000000      -0.00000000
In       1.47729843       2.08921548       3.61862736       15      -0.00000000      -0.00000000       0.00000000
O        0.86535571       4.17690068       3.94059800       16      -0.00387580       0.00188747       0.00344734
O       -2.08924116       3.41342312       5.26828098       17      -0.00387580       0.00204175      -0.00335827
O       -0.43424717       2.24316566       0.05797165       18       0.00241257      -0.00240480       0.00434339
O       -0.86535572      -0.76653812       1.97162427       19       0.00387580       0.00392922       0.00008908
O        3.91461990       4.97843904       1.91365261       20       0.00321692      -0.00142157      -0.00425431
O        1.99457383       2.92116323       1.64965362       21      -0.00321692       0.00297356      -0.00335827
O        1.99457383       6.23570678       0.26399899       22      -0.00321692      -0.00439512      -0.00089604
O       -2.25962592       5.92933672       3.67659901       23       0.00307145      -0.00147299       0.00434339
O        3.38884404       1.93526531       7.17928306       24      -0.00241257       0.00240480      -0.00434339
O        5.21422278      -1.75090575       3.56065570       25      -0.00307145       0.00147299      -0.00434339
O        6.34344091       3.26100324       1.70497474       26      -0.00241257       0.00255909       0.00425431
O        3.64956782       2.30857527       3.88262635       27       0.00307145       0.00449798      -0.00089604
O        0.69497095       4.29738090       6.91528408       28       0.00307145      -0.00302499      -0.00344734
O        2.25962592      -0.11894993       0.32197064       29      -0.00307145       0.00302499       0.00344734
O       -3.38884404       0.91742773       5.53227997       30       0.00241257      -0.00255909      -0.00425431
O        5.04383802       0.76500784       1.96897373       31       0.00387580      -0.00204175       0.00335827
O        0.96002303       1.25726774       5.58760110       32       0.00321692      -0.00297356       0.00335827
O        3.38884404      -1.01783758       5.59025163       33      -0.00241257      -0.00496388       0.00008908
O        2.08924115       0.00153029       3.29665671       34       0.00387580      -0.00188747      -0.00344734
O        0.96002303      -2.05727581       6.97325573       35       0.00321692       0.00439512       0.00089604
O       -0.69497095       1.86985569       3.35462837       36      -0.00307145      -0.00449798       0.00089604
O       -0.96002303      -0.80000807       5.32360211       37      -0.00321692       0.00142157       0.00425431
O       -0.43424717       5.19626854       1.64700309       38       0.00241257       0.00496388      -0.00008908
O        3.81995258       4.94496909       5.26563045       39      -0.00387580      -0.00392922      -0.00008908
