40
Lattice="8.396387301403076 6.580853418540724e-10 6.597282851936329e-15 -2.798795767754808 7.916189864168279 -1.139848623475297e-09 -2.7987957668241403 -3.958094931426046 6.8556215243105125" Properties=species:S:1:pos:R:3:spacegroup_kinds:I:1:forces:R:3 spacegroup="P 1" unit_cell=conventional occupancy="_JSON {\"0\": {\"In\": 1}, \"1\": {\"In\": 1}, \"2\": {\"In\": 1}, \"3\": {\"In\": 1}, \"4\": {\"In\": 1}, \"5\": {\"In\": 1}, \"6\": {\"In\": 1}, \"7\": {\"In\": 1}, \"8\": {\"In\": 1}, \"9\": {\"In\": 1}, \"10\": {\"In\": 1}, \"11\": {\"In\": 1}, \"12\": {\"In\": 1}, \"13\": {\"In\": 1}, \"14\": {\"In\": 1}, \"15\": {\"In\": 1}, \"16\": {\"O\": 1}, \"17\": {\"O\": 1}, \"18\": {\"O\": 1}, \"19\": {\"O\": 1}, \"20\": {\"O\": 1}, \"21\": {\"O\": 1}, \"22\": {\"O\": 1}, \"23\": {\"O\": 1}, \"24\": {\"O\": 1}, \"25\": {\"O\": 1}, \"26\": {\"O\": 1}, \"27\": {\"O\": 1}, \"28\": {\"O\": 1}, \"29\": {\"O\": 1}, \"30\": {\"O\": 1}, \"31\": {\"O\": 1}, \"32\": {\"O\": 1}, \"33\": {\"O\": 1}, \"34\": {\"O\": 1}, \"35\": {\"O\": 1}, \"36\": {\"O\": 1}, \"37\": {\"O\": 1}, \"38\": {\"O\": 1}, \"39\": {\"O\": 1}}" n_minim_iter=3 energy=-45151.91053821898 stress="-0.0012006321330284696 -4.447424280821894e-13 5.905018761322693e-13 -4.447424280821894e-13 -0.0012006321323232145 1.1060656400974782e-13 5.905018761322693e-13 1.1060656400974782e-13 -0.001200632132893327" free_energy=-45151.91053821898 pbc="T T T"
In      -4.00254510       2.83022678       5.38133570        0      -0.00024093       0.00017036      -0.00029507
In       6.80134086       1.12786815       1.47428582        1       0.00024093      -0.00017036       0.00029507
In       1.20374933      -0.85117931       4.90209658        2       0.00024093      -0.00017036       0.00029507
In      -1.39939788      -1.97904746       3.42781076        3      -0.00000000       0.00000000      -0.00000000
In      -1.20374933       3.81975052       3.18819120        4      -0.00024093       0.00017036       0.00029507
In       4.39384220      -2.69188236       5.14171614        5      -0.00024093      -0.00034072      -0.00000000
In      -1.20374933       1.26621257       5.14171614        6      -0.00024093      -0.00034072      -0.00000000
In      -1.59504644       6.64997730       1.71390538        7       0.00024093       0.00034072      -0.00000000
In       4.00254510       0.13834442       3.66743032        8       0.00024093      -0.00017036      -0.00029507
In      -1.39939789       3.95809493      -0.00000000        9       0.00000000       0.00000000       0.00000000
In       4.00254510       6.07548682       0.23961956       10       0.00024093      -0.00017036      -0.00029507
In      -1.20374933      -2.11739188       6.61600196       11      -0.00024093       0.00017036       0.00029507
In       4.00254510       2.69188236       1.71390538       12       0.00024093       0.00034072       0.00000000
In       1.59504644       4.80927425       1.95352494       13      -0.00024093       0.00017036      -0.00029507
In       4.19819365       0.00000000      -0.00000000       14       0.00000000       0.00000000       0.00000000
In       1.39939788       1.97904747       3.42781076       15       0.00000000      -0.00000000      -0.00000000
O        0.79985482       3.95097293       3.76410448       16      -0.00466204      -0.00344151      -0.00138129
O       -1.99894094       3.26337111       4.97973712       17      -0.00466204       0.00052452       0.00367108
O       -0.39508832       2.12927604       0.08842587       18      -0.00430418       0.00027148       0.00410937
O       -0.79985483      -0.70184583       1.88822008       19       0.00466204      -0.00291699       0.00228979
O        3.74304943       4.71099346       1.79979421       20       0.00204854       0.00528954      -0.00181958
O        1.85454210       2.77587669       1.55192636       21      -0.00204854       0.00422057       0.00367108
O        1.85454210       5.89321171       0.24786785       22      -0.00204854       0.00106897      -0.00549067
O       -2.13919681       5.59987656       3.51623663       23      -0.00169068       0.00396753       0.00410937
O        3.19388408       1.82881889       6.76719565       24       0.00430418      -0.00027148      -0.00410937
O        4.93799258      -1.64178162       3.33938489       25       0.00169068      -0.00396753      -0.00410937
O        5.99267985       3.12026454       1.62801655       26       0.00430418       0.00369456       0.00181958
O        3.45839472       2.22425944       3.67567861       27      -0.00169068       0.00157506      -0.00549067
O        0.65959895       4.05014881       6.51932780       28      -0.00169068      -0.00554259       0.00138129
O        2.13919681      -0.09205387       0.33629372       29       0.00169068       0.00554259      -0.00138129
O       -3.19388409       0.83783040       5.22760497       30      -0.00430418      -0.00369456      -0.00181958
O        4.79773671       0.69472383       1.87588440       31       0.00466204      -0.00052452      -0.00367108
O        0.94425367       1.18221824       5.30369516       32       0.00204854      -0.00422057      -0.00367108
O        3.19388408      -0.99098849       5.31603084       33       0.00430418      -0.00342308       0.00228979
O        1.99894094       0.00712201       3.09151704       34       0.00466204       0.00344151       0.00138129
O        0.94425367      -1.93511677       6.60775367       35       0.00204854      -0.00106897       0.00549067
O       -0.65959896       1.73383550       3.17994291       36       0.00169068      -0.00157506       0.00549067
O       -0.94425367      -0.75289853       5.05582731       37      -0.00204854      -0.00528954       0.00181958
O       -0.39508832       4.94908343       1.53959068       38      -0.00430418       0.00342308      -0.00228979
O        3.59865059       4.65994076       4.96740144       39      -0.00466204       0.00291699      -0.00228979
