40
Lattice="9.484144977948539 7.433401037491753e-10 3.130063935882715e-15 -3.1613816600170077 8.941737636637212 -1.2875084262822505e-09 -3.161381658965769 -4.470868817575262 7.743771948161599" Properties=species:S:1:pos:R:3:spacegroup_kinds:I:1:forces:R:3 spacegroup="P 1" unit_cell=conventional occupancy="_JSON {\"0\": {\"In\": 1}, \"1\": {\"In\": 1}, \"2\": {\"In\": 1}, \"3\": {\"In\": 1}, \"4\": {\"In\": 1}, \"5\": {\"In\": 1}, \"6\": {\"In\": 1}, \"7\": {\"In\": 1}, \"8\": {\"In\": 1}, \"9\": {\"In\": 1}, \"10\": {\"In\": 1}, \"11\": {\"In\": 1}, \"12\": {\"In\": 1}, \"13\": {\"In\": 1}, \"14\": {\"In\": 1}, \"15\": {\"In\": 1}, \"16\": {\"O\": 1}, \"17\": {\"O\": 1}, \"18\": {\"O\": 1}, \"19\": {\"O\": 1}, \"20\": {\"O\": 1}, \"21\": {\"O\": 1}, \"22\": {\"O\": 1}, \"23\": {\"O\": 1}, \"24\": {\"O\": 1}, \"25\": {\"O\": 1}, \"26\": {\"O\": 1}, \"27\": {\"O\": 1}, \"28\": {\"O\": 1}, \"29\": {\"O\": 1}, \"30\": {\"O\": 1}, \"31\": {\"O\": 1}, \"32\": {\"O\": 1}, \"33\": {\"O\": 1}, \"34\": {\"O\": 1}, \"35\": {\"O\": 1}, \"36\": {\"O\": 1}, \"37\": {\"O\": 1}, \"38\": {\"O\": 1}, \"39\": {\"O\": 1}}" n_minim_iter=8 energy=-45151.71761699333 stress="0.004502035501198537 1.2744861443596824e-13 4.1441881511786244e-13 1.2744861443596824e-13 0.004502035501069221 1.7016723125104308e-14 4.1441881511786244e-13 1.7016723125104308e-14 0.004502035501167951" free_energy=-45151.71761699333 pbc="T T T"
In      -4.48826071       3.17367958       6.11868364        0      -0.00407598       0.00288215      -0.00499203
In       7.64964236       1.29718924       1.62508830        1       0.00407598      -0.00288215       0.00499203
In       1.32687904      -0.93824517       5.49697428        2       0.00407598      -0.00288215       0.00499203
In      -1.58069083      -2.23543441       3.87188597        3       0.00000000       0.00000000       0.00000000
In      -1.32687905       4.29139679       3.56103129        4      -0.00407598       0.00288215       0.00499203
In       4.99588427      -2.99420754       5.80782896        5      -0.00407598      -0.00576430      -0.00000000
In      -1.32687905       1.47666127       5.80782896        6      -0.00407598      -0.00576430      -0.00000000
In      -1.83450262       7.46507637       1.93594298        7       0.00407598       0.00576430       0.00000000
In       4.48826070       0.17947204       4.18274065        8       0.00407598      -0.00288215      -0.00499203
In      -1.58069083       4.47086882      -0.00000000        9       0.00000000      -0.00000000      -0.00000000
In       4.48826070       6.88577526       0.31085468       10       0.00407598      -0.00288215      -0.00499203
In      -1.32687905      -2.41490644       7.43291726       11      -0.00407598       0.00288215       0.00499203
In       4.48826070       2.99420755       1.93594298       12       0.00407598       0.00576430      -0.00000000
In       1.83450261       5.40911399       2.24679767       13      -0.00407598       0.00288215      -0.00499203
In       4.74207249       0.00000000      -0.00000000       14       0.00000000      -0.00000000      -0.00000000
In       1.58069083       2.23543441       3.87188597       15      -0.00000000       0.00000000       0.00000000
O        1.04957945       4.48720797       4.17346637       16       0.00128425      -0.00775289      -0.00284838
O       -2.11180221       3.60615833       5.64288864       17       0.00128425       0.00140968       0.00813839
O       -0.44999236       2.43108131      -0.06559021       18      -0.00555236       0.00624389      -0.00023471
O       -1.04957945      -0.84837134       2.07258307       19      -0.00128425      -0.00634322       0.00529001
O        4.10385274       5.28137164       2.13817328       20       0.00090097       0.00620771       0.00552472
O        2.21891057       3.02440785       1.77100267       21      -0.00090097      -0.00168070       0.00813839
O        2.21891057       6.72783261       0.36717060       22      -0.00090097       0.00788840      -0.00261367
O       -2.44204290       6.32019966       3.80629576       23      -0.00773758       0.00315352      -0.00023471
O        3.61137402       2.03978751       7.80936215       24       0.00555236      -0.00624389       0.00023471
O        5.60342455      -1.84933083       3.93747618       25       0.00773758      -0.00315352       0.00023471
O        6.77275567       3.39417228       1.73371269       26       0.00555236       0.00291868      -0.00552472
O        3.88072042       2.37168341       4.23905658       27      -0.00773758      -0.00178002      -0.00261367
O        0.71933876       4.72072339       7.44219155       28      -0.00773758      -0.00137349       0.00284838
O        2.44204289      -0.24985457       0.30158040       29       0.00773758       0.00137349      -0.00284838
O       -3.61137402       1.07669654       6.01005925       30      -0.00555236      -0.00291868       0.00552472
O        5.27318387       0.86471049       2.10088330       31      -0.00128425      -0.00140968      -0.00813839
O        0.94247109       1.44646097       5.97276927       32       0.00090097       0.00168070      -0.00813839
O        3.61137402      -0.96309096       5.94446904       33       0.00555236       0.00332521       0.00529001
O        2.11180221      -0.01633914       3.57030557       34      -0.00128425       0.00775289       0.00284838
O        0.94247109      -2.25696378       7.37660134       35       0.00090097      -0.00788840       0.00261367
O       -0.71933877       2.09918541       3.50471536       36       0.00773758       0.00178002       0.00261367
O       -0.94247109      -0.81050282       5.60559867       37      -0.00090097      -0.00620771      -0.00552472
O       -0.44999236       5.43395979       1.79930290       38      -0.00555236      -0.00332521      -0.00529001
O        4.21096111       5.31924017       5.67118887       39       0.00128425       0.00634322      -0.00529001
