40
Lattice="8.636412927494911 6.768967740092982e-10 -1.7606360429049293e-15 -2.8788043098031584 8.142488194652788 -1.1724255874898407e-09 -2.8788043088458752 -4.071244096649492 7.051601627365826" Properties=species:S:1:pos:R:3:spacegroup_kinds:I:1:forces:R:3 spacegroup="P 1" unit_cell=conventional occupancy="_JSON {\"0\": {\"In\": 1}, \"1\": {\"In\": 1}, \"2\": {\"In\": 1}, \"3\": {\"In\": 1}, \"4\": {\"In\": 1}, \"5\": {\"In\": 1}, \"6\": {\"In\": 1}, \"7\": {\"In\": 1}, \"8\": {\"In\": 1}, \"9\": {\"In\": 1}, \"10\": {\"In\": 1}, \"11\": {\"In\": 1}, \"12\": {\"In\": 1}, \"13\": {\"In\": 1}, \"14\": {\"In\": 1}, \"15\": {\"In\": 1}, \"16\": {\"O\": 1}, \"17\": {\"O\": 1}, \"18\": {\"O\": 1}, \"19\": {\"O\": 1}, \"20\": {\"O\": 1}, \"21\": {\"O\": 1}, \"22\": {\"O\": 1}, \"23\": {\"O\": 1}, \"24\": {\"O\": 1}, \"25\": {\"O\": 1}, \"26\": {\"O\": 1}, \"27\": {\"O\": 1}, \"28\": {\"O\": 1}, \"29\": {\"O\": 1}, \"30\": {\"O\": 1}, \"31\": {\"O\": 1}, \"32\": {\"O\": 1}, \"33\": {\"O\": 1}, \"34\": {\"O\": 1}, \"35\": {\"O\": 1}, \"36\": {\"O\": 1}, \"37\": {\"O\": 1}, \"38\": {\"O\": 1}, \"39\": {\"O\": 1}}" n_minim_iter=4 energy=-45151.91113616087 stress="0.0006929603410074202 4.860464622583708e-13 3.8886753675625024e-14 4.860464622583708e-13 0.000692960340908297 -2.621186578782951e-13 3.8886753675625024e-14 -2.621186578782951e-13 0.0006929603405179555" free_energy=-45151.91113616087 pbc="T T T"
In      -4.12143674       2.91429587       5.52969393        0      -0.00032338       0.00022866      -0.00039605
In       7.00024105       1.15694823       1.52190769        1       0.00032338      -0.00022866       0.00039605
In       1.24263243      -0.87867382       5.04770851        2       0.00032338      -0.00022866       0.00039605
In      -1.43940216      -2.03562205       3.52580081        3      -0.00000000      -0.00000000       0.00000000
In      -1.24263243       3.93210689       3.28480810        4      -0.00032338       0.00022866       0.00039605
In       4.51497619      -2.77515866       5.28870122        5      -0.00032338      -0.00045732       0.00000000
In      -1.24263243       1.29608544       5.28870122        6      -0.00032338      -0.00045732       0.00000000
In      -1.63617188       6.84640276       1.76290040        7       0.00032338       0.00045732      -0.00000000
In       4.12143674       0.13913721       3.76679352        8       0.00032338      -0.00022866      -0.00039605
In      -1.43940216       4.07124410      -0.00000000        9      -0.00000000      -0.00000000       0.00000000
In       4.12143674       6.24600335       0.24099271       10       0.00032338      -0.00022866      -0.00039605
In      -1.24263243      -2.17475925       6.81060891       11      -0.00032338       0.00022866       0.00039605
In       4.12143674       2.77515866       1.76290040       12       0.00032338       0.00045732       0.00000000
In       1.63617188       4.94991792       2.00389311       13      -0.00032338       0.00022866      -0.00039605
In       4.31820646       0.00000000      -0.00000000       14       0.00000000       0.00000000       0.00000000
In       1.43940215       2.03562205       3.52580081       15       0.00000000       0.00000000      -0.00000000
O        0.83177758       4.06609956       3.85558566       16      -0.00398302       0.00620951      -0.00111656
O       -2.04702673       3.34160741       5.12826410       17      -0.00398302      -0.00407173      -0.00481931
O       -0.41549920       2.18794323       0.07486744       18       0.00068785      -0.00737453       0.00090131
O       -0.83177759      -0.73478123       1.93224814       19       0.00398302       0.00213778      -0.00593588
O        3.83283992       4.84925007       1.85738069       20      -0.00251119      -0.00161741      -0.00683718
O        1.92476870       2.85170822       1.60246328       21       0.00251119       0.00511247      -0.00481931
O        1.92476870       6.06878595       0.25491741       22       0.00251119      -0.00672988      -0.00201787
O       -2.20131239       5.76928814       3.60066825       23       0.00718206       0.00180967       0.00090131
O        3.29430350       1.88330087       6.97673418       24      -0.00068785       0.00737453      -0.00090131
O        5.08011670      -1.69804404       3.45093337       25      -0.00718206      -0.00180967      -0.00090131
O        6.17310781       3.19443077       1.66842012       26      -0.00068785      -0.00290671       0.00683718
O        3.55629623       2.26924816       3.78071822       27       0.00718206      -0.00012428      -0.00201787
O        0.67749192       4.17519600       6.72181677       28       0.00718206      -0.00168539       0.00111656
O        2.20131239      -0.10395190       0.32978485       29      -0.00718206       0.00168539      -0.00111656
O       -3.29430351       0.87681333       5.38318151       30       0.00068785       0.00290671      -0.00683718
O        4.92583103       0.72963669       1.92333753       31       0.00398302       0.00407173       0.00481931
O        0.95403561       1.21953588       5.44913834       32      -0.00251119      -0.00511247       0.00481931
O        3.29430350      -1.00648754       5.45804895       33      -0.00068785      -0.00446782      -0.00593588
O        2.04702672       0.00514454       3.19601596       34       0.00398302      -0.00620951       0.00111656
O        0.95403561      -1.99754185       6.79668421       35      -0.00251119       0.00672988       0.00201787
O       -0.67749192       1.80199594       3.27088340       36      -0.00718206       0.00012428       0.00201787
O       -0.95403561      -0.77800597       5.19422093       37       0.00251119       0.00161741       0.00683718
O       -0.41549920       5.07773164       1.59355267       38       0.00068785       0.00446782       0.00593588
O        3.71058189       4.80602533       5.11935349       39      -0.00398302      -0.00213778       0.00593588
