40
Lattice="9.149914789349877 7.171448801603466e-10 1.3425162448345828e-15 -3.04997159712609 8.62662239286546 -1.2421340676812687e-09 -3.0499715961118943 -4.313311195715585 7.470874141905277" Properties=species:S:1:pos:R:3:spacegroup_kinds:I:1:forces:R:3 spacegroup="P 1" unit_cell=conventional occupancy="_JSON {\"0\": {\"In\": 1}, \"1\": {\"In\": 1}, \"2\": {\"In\": 1}, \"3\": {\"In\": 1}, \"4\": {\"In\": 1}, \"5\": {\"In\": 1}, \"6\": {\"In\": 1}, \"7\": {\"In\": 1}, \"8\": {\"In\": 1}, \"9\": {\"In\": 1}, \"10\": {\"In\": 1}, \"11\": {\"In\": 1}, \"12\": {\"In\": 1}, \"13\": {\"In\": 1}, \"14\": {\"In\": 1}, \"15\": {\"In\": 1}, \"16\": {\"O\": 1}, \"17\": {\"O\": 1}, \"18\": {\"O\": 1}, \"19\": {\"O\": 1}, \"20\": {\"O\": 1}, \"21\": {\"O\": 1}, \"22\": {\"O\": 1}, \"23\": {\"O\": 1}, \"24\": {\"O\": 1}, \"25\": {\"O\": 1}, \"26\": {\"O\": 1}, \"27\": {\"O\": 1}, \"28\": {\"O\": 1}, \"29\": {\"O\": 1}, \"30\": {\"O\": 1}, \"31\": {\"O\": 1}, \"32\": {\"O\": 1}, \"33\": {\"O\": 1}, \"34\": {\"O\": 1}, \"35\": {\"O\": 1}, \"36\": {\"O\": 1}, \"37\": {\"O\": 1}, \"38\": {\"O\": 1}, \"39\": {\"O\": 1}}" n_minim_iter=6 energy=-45151.90076899716 stress="0.0011160602946026943 -2.8358138755866463e-13 -6.7442318668096895e-15 -2.8358138755866463e-13 0.0011160602946787789 -2.772072330860546e-13 -6.7442318668096895e-15 -2.772072330860546e-13 0.001116060294694995" free_energy=-45151.90076899716 pbc="T T T"
In      -4.35919973       3.08241969       5.86740369        0      -0.00200934       0.00142082      -0.00246093
In       7.40917133       1.23089151       1.60347044        1       0.00200934      -0.00142082       0.00246093
In       1.30922813      -0.92576409       5.33890751        2       0.00200934      -0.00142082       0.00246093
In      -1.52498580      -2.15665560       3.73543707        3      -0.00000000       0.00000000      -0.00000000
In      -1.30922814       4.16074749       3.47118898        4      -0.00200934       0.00142082       0.00246093
In       4.79071506      -2.92985598       5.60315560        5      -0.00200934      -0.00284164       0.00000000
In      -1.30922814       1.38345521       5.60315560        6      -0.00200934      -0.00284164       0.00000000
In      -1.74074346       7.24316718       1.86771853        7       0.00200934       0.00284164      -0.00000000
In       4.35919973       0.15256371       3.99968516        8       0.00200934      -0.00142082      -0.00246093
In      -1.52498580       4.31331120      -0.00000000        9      -0.00000000      -0.00000000       0.00000000
In       4.35919973       6.62253050       0.26424809       10       0.00200934      -0.00142082      -0.00246093
In      -1.30922814      -2.30921930       7.20662605       11      -0.00200934       0.00142082       0.00246093
In       4.35919973       2.92985599       1.86771853       12       0.00200934       0.00284164      -0.00000000
In       1.74074346       5.23907529       2.13196662       13      -0.00200934       0.00142082      -0.00246093
In       4.57495739       0.00000000      -0.00000000       14       0.00000000       0.00000000      -0.00000000
In       1.52498580       2.15665560       3.73543707       15      -0.00000000      -0.00000000       0.00000000
O        0.92920150       4.32029874       4.05409485       16      -0.00003507      -0.00675274       0.00491123
O       -2.12077010       3.50745536       5.43777532       17      -0.00003507       0.00762962       0.00339243
O       -0.44344642       2.32140841       0.02119476       18       0.00081504       0.00702850       0.00443360
O       -0.92920150      -0.79886829       2.02099604       19       0.00003507       0.00087688       0.00830366
O        4.01378399       5.12441629       1.99980127       20       0.00720496       0.00168286       0.00387006
O        2.08615920       2.98698503       1.70233825       21      -0.00720496      -0.00251014       0.00339243
O        2.08615920       6.45074245       0.29746302       22      -0.00720496       0.00419300       0.00047763
O       -2.33646031       6.11424928       3.75663183       23      -0.00635485      -0.00311126       0.00443360
O        3.49341801       1.99190279       7.44967938       24      -0.00081504      -0.00702850      -0.00443360
O        5.38643191      -1.80093808       3.71424231       25       0.00635485       0.00311126      -0.00443360
O        6.54338960       3.33571501       1.73563579       26      -0.00081504       0.00735386      -0.00387006
O        3.76348288       2.35286956       4.03290009       27      -0.00635485       0.00539524       0.00047763
O        0.71351128       4.47281476       7.15221635       28      -0.00635485      -0.00228398      -0.00491123
O        2.33646031      -0.15950356       0.31865778       29       0.00635485       0.00228398       0.00491123
O       -3.49341801       0.97759619       5.73523835       30       0.00081504      -0.00735386       0.00387006
O        5.17074169       0.80585584       2.03309882       31       0.00003507      -0.00762962      -0.00339243
O        0.96381240       1.32632617       5.76853589       32       0.00720496       0.00251014      -0.00339243
O        3.49341801      -1.01430659       5.75643311       33      -0.00081504      -0.00032536       0.00830366
O        2.12077009      -0.00698754       3.41677928       34       0.00003507       0.00675274      -0.00491123
O        0.96381240      -2.13743125       7.17341111       35       0.00720496      -0.00419300      -0.00047763
O       -0.71351129       1.96044164       3.43797404       36       0.00635485      -0.00539524      -0.00047763
O       -0.96381240      -0.81110509       5.47107286       37      -0.00720496      -0.00168286      -0.00387006
O       -0.44344642       5.32761779       1.71444103       38       0.00081504       0.00032536      -0.00830366
O        3.97917309       5.11217949       5.44987810       39      -0.00003507      -0.00087688      -0.00830366
