40
Lattice="9.548228982545185 7.483618823025116e-10 5.36507884371433e-15 -3.1827429948872923 9.00215661559006 -1.2962128846192698e-09 -3.1827429938289513 -4.501078307046659 7.796096318811273" Properties=species:S:1:pos:R:3:spacegroup_kinds:I:1:forces:R:3 spacegroup="P 1" unit_cell=conventional occupancy="_JSON {\"0\": {\"In\": 1}, \"1\": {\"In\": 1}, \"2\": {\"In\": 1}, \"3\": {\"In\": 1}, \"4\": {\"In\": 1}, \"5\": {\"In\": 1}, \"6\": {\"In\": 1}, \"7\": {\"In\": 1}, \"8\": {\"In\": 1}, \"9\": {\"In\": 1}, \"10\": {\"In\": 1}, \"11\": {\"In\": 1}, \"12\": {\"In\": 1}, \"13\": {\"In\": 1}, \"14\": {\"In\": 1}, \"15\": {\"In\": 1}, \"16\": {\"O\": 1}, \"17\": {\"O\": 1}, \"18\": {\"O\": 1}, \"19\": {\"O\": 1}, \"20\": {\"O\": 1}, \"21\": {\"O\": 1}, \"22\": {\"O\": 1}, \"23\": {\"O\": 1}, \"24\": {\"O\": 1}, \"25\": {\"O\": 1}, \"26\": {\"O\": 1}, \"27\": {\"O\": 1}, \"28\": {\"O\": 1}, \"29\": {\"O\": 1}, \"30\": {\"O\": 1}, \"31\": {\"O\": 1}, \"32\": {\"O\": 1}, \"33\": {\"O\": 1}, \"34\": {\"O\": 1}, \"35\": {\"O\": 1}, \"36\": {\"O\": 1}, \"37\": {\"O\": 1}, \"38\": {\"O\": 1}, \"39\": {\"O\": 1}}" n_minim_iter=8 energy=-45151.65823749374 stress="0.004444777431055409 1.7358112197013902e-13 -2.438095499143499e-13 1.7358112197013902e-13 0.004444777430040051 -1.7341214778273014e-13 -2.438095499143499e-13 -1.7341214778273014e-13 0.004444777431392753" free_energy=-45151.65823749374 pbc="T T T"
In      -4.51189156       3.19038912       6.16822843        0       0.00129549      -0.00091605       0.00158664
In       7.69463455       1.31068919       1.62786788        1      -0.00129549       0.00091605      -0.00158664
In       1.32914856      -0.93984996       5.52591604        2      -0.00129549       0.00091605      -0.00158664
In      -1.59137150      -2.25053915       3.89804816        3       0.00000000      -0.00000000      -0.00000000
In      -1.32914856       4.31565869       3.57689196        4       0.00129549      -0.00091605      -0.00158664
In       5.03633742      -3.00496950       5.84707224        5       0.00129549       0.00183210      -0.00000000
In      -1.32914856       1.49610881       5.84707224        6       0.00129549       0.00183210       0.00000000
In      -1.85359443       7.50604781       1.94902408        7      -0.00129549      -0.00183210       0.00000000
In       4.51189156       0.18541962       4.21920435        8      -0.00129549       0.00091605       0.00158664
In      -1.59137150       4.50107831      -0.00000000        9      -0.00000000      -0.00000000       0.00000000
In       4.51189155       6.93703708       0.32115619       10      -0.00129549       0.00091605       0.00158664
In      -1.32914856      -2.43595877       7.47494012       11       0.00129549      -0.00091605      -0.00158664
In       4.51189155       3.00496950       1.94902408       12      -0.00129549      -0.00183210      -0.00000000
In       1.85359443       5.44092827       2.27018027       13       0.00129549      -0.00091605       0.00158664
In       4.77411449       0.00000000      -0.00000000       14       0.00000000       0.00000000      -0.00000000
In       1.59137150       2.25053916       3.89804816       15       0.00000000       0.00000000       0.00000000
O        1.07691131       4.51604763       4.19340838       16       0.00014446       0.00082646      -0.00399329
O       -2.10583168       3.62411353       5.68642831       17       0.00014446      -0.00387152       0.00128091
O       -0.45372668       2.45589888      -0.08626088       18      -0.00282276      -0.00177338      -0.00235317
O       -1.07691132      -0.86199546       2.08374038       19      -0.00014446      -0.00304506      -0.00271238
O        4.11879089       5.31327103       2.17000125       20      -0.00369826       0.00168646      -0.00035921
O        2.24669509       3.02789846       1.78838015       21       0.00369826       0.00115431       0.00128091
O        2.24669509       6.78645088       0.38162109       22       0.00369826       0.00053214      -0.00164012
O       -2.46668589       6.36076212       3.81178728       23       0.00073104       0.00325245      -0.00235317
O        3.63646967       2.04517944       7.88235719       24       0.00282276       0.00177338       0.00235317
O        5.64942888      -1.85968380       3.98430903       25      -0.00073104      -0.00325245       0.00235317
O        6.81921266       3.40378449       1.72804690       26       0.00282276      -0.00292460       0.00035921
O        3.89880010       2.37126272       4.27966925       27       0.00073104      -0.00366413      -0.00164012
O        0.71605710       4.77121009       7.50073609       28       0.00073104       0.00041168       0.00399329
O        2.46668589      -0.27013178       0.29536022       29      -0.00073104      -0.00041168      -0.00399329
O       -3.63646967       1.09729383       6.06804941       30      -0.00282276       0.00292460      -0.00035921
O        5.28857467       0.87696478       2.10966800       31      -0.00014446       0.00387152      -0.00128091
O        0.93604790       1.47317985       6.00771616       32      -0.00369826      -0.00115431      -0.00128091
O        3.63646967      -0.94788561       5.98178854       33       0.00282276       0.00115121      -0.00271238
O        2.10583168      -0.01496932       3.60268793       34      -0.00014446      -0.00082646       0.00399329
O        0.93604790      -2.28537257       7.41447522       35      -0.00369826      -0.00053214       0.00164012
O       -0.71605711       2.12981559       3.51642706       36      -0.00073104       0.00366413       0.00164012
O       -0.93604790      -0.81219272       5.62609506       37       0.00369826      -0.00168646       0.00035921
O       -0.45372668       5.44896392       1.81430778       38      -0.00282276      -0.00115121       0.00271238
O        4.25965431       5.36307377       5.71235594       39       0.00014446       0.00304506       0.00271238
