40
Lattice="9.080065387584904 7.116699861727689e-10 -3.580688954076082e-15 -3.0266884631992736 8.560767745334166 -1.2326481441656184e-09 -3.0266884621928165 -4.280383871955412 7.413842344179593" Properties=species:S:1:pos:R:3:spacegroup_kinds:I:1:forces:R:3 spacegroup="P 1" unit_cell=conventional occupancy="_JSON {\"0\": {\"In\": 1}, \"1\": {\"In\": 1}, \"2\": {\"In\": 1}, \"3\": {\"In\": 1}, \"4\": {\"In\": 1}, \"5\": {\"In\": 1}, \"6\": {\"In\": 1}, \"7\": {\"In\": 1}, \"8\": {\"In\": 1}, \"9\": {\"In\": 1}, \"10\": {\"In\": 1}, \"11\": {\"In\": 1}, \"12\": {\"In\": 1}, \"13\": {\"In\": 1}, \"14\": {\"In\": 1}, \"15\": {\"In\": 1}, \"16\": {\"O\": 1}, \"17\": {\"O\": 1}, \"18\": {\"O\": 1}, \"19\": {\"O\": 1}, \"20\": {\"O\": 1}, \"21\": {\"O\": 1}, \"22\": {\"O\": 1}, \"23\": {\"O\": 1}, \"24\": {\"O\": 1}, \"25\": {\"O\": 1}, \"26\": {\"O\": 1}, \"27\": {\"O\": 1}, \"28\": {\"O\": 1}, \"29\": {\"O\": 1}, \"30\": {\"O\": 1}, \"31\": {\"O\": 1}, \"32\": {\"O\": 1}, \"33\": {\"O\": 1}, \"34\": {\"O\": 1}, \"35\": {\"O\": 1}, \"36\": {\"O\": 1}, \"37\": {\"O\": 1}, \"38\": {\"O\": 1}, \"39\": {\"O\": 1}}" n_minim_iter=6 energy=-45151.909577056256 stress="7.702692834011206e-05 2.496218167732618e-13 -7.536750299295498e-15 2.496218167732618e-13 7.702692720884528e-05 -5.480185103329698e-13 -7.536750299295498e-15 -5.480185103329698e-13 7.702692719821352e-05" free_energy=-45151.909577056256 pbc="T T T"
In      -4.33145486       3.06280110       5.81583639        0       0.00271965      -0.00192309       0.00333088
In       7.35814331       1.21758278       1.59800594        1      -0.00271965       0.00192309      -0.00333088
In       1.30476639      -0.92260916       5.30492712        2      -0.00271965       0.00192309      -0.00333088
In      -1.51334423      -2.14019193       3.70692117        3       0.00000000      -0.00000000       0.00000000
In      -1.30476639       4.13289707       3.45146653        4       0.00271965      -0.00192309      -0.00333088
In       4.74861053      -2.91531429       5.56038176        5       0.00271965       0.00384617       0.00000000
In      -1.30476639       1.36506958       5.56038176        6       0.00271965       0.00384617       0.00000000
In      -1.72192207       7.19569817       1.85346058        7      -0.00271965      -0.00384617       0.00000000
In       4.33145485       0.14748681       3.96237581        8      -0.00271965       0.00192309       0.00333088
In      -1.51334423       4.28038387      -0.00000000        9      -0.00000000      -0.00000000      -0.00000000
In       4.33145485       6.56806262       0.25545464       10      -0.00271965       0.00192309       0.00333088
In      -1.30476639      -2.28767874       7.15838770       11       0.00271965      -0.00192309      -0.00333088
In       4.33145485       2.91531430       1.85346058       12      -0.00271965      -0.00384617      -0.00000000
In       1.72192207       5.20299304       2.10891522       13       0.00271965      -0.00192309       0.00333088
In       4.54003269       0.00000000      -0.00000000       14      -0.00000000       0.00000000      -0.00000000
In       1.51334423       2.14019194       3.70692117       15       0.00000000       0.00000000      -0.00000000
O        0.90705145       4.28457587       4.02687050       16      -0.00059227      -0.00482726       0.00750579
O       -2.11963701       3.48527616       5.39677672       17      -0.00059227       0.00891383       0.00042764
O       -0.44333201       2.29994953       0.03598033       18       0.00365543       0.00591025       0.00562999
O       -0.90705145      -0.79091572       2.00980488       19       0.00059227       0.00408657       0.00793343
O        3.99249554       5.09207285       1.97382455       20       0.00860147      -0.00083609       0.00230343
O        2.06088138       2.97684616       1.68985554       21      -0.00860147      -0.00241288       0.00042764
O        2.06088138       6.39561057       0.28396900       22      -0.00860147       0.00157679       0.00187579
O       -2.31619055       6.07190340       3.74290150       23      -0.00435376      -0.00541646       0.00562999
O        3.47002047       1.98043435       7.37786201       24      -0.00365543      -0.00591025      -0.00562999
O        5.34287901      -1.79151952       3.67094084       25       0.00435376       0.00541646      -0.00562999
O        6.49670893       3.32132658       1.73309662       26      -0.00365543       0.00783084      -0.00230343
O        3.73718638       2.34568803       3.99089017       27      -0.00435376       0.00758395       0.00187579
O        0.71049792       4.42356020       7.09389301       28      -0.00435376      -0.00216749      -0.00750579
O        2.31619054      -0.14317633       0.31994933       29       0.00435376       0.00216749       0.00750579
O       -3.47002047       0.95905730       5.68074572       30       0.00365543      -0.00783084       0.00230343
O        5.14632547       0.79510772       2.01706562       31       0.00059227      -0.00891383      -0.00042764
O        0.96580708       1.30353772       5.72398679       32       0.00860147       0.00241288      -0.00042764
O        3.47002047      -1.02137705       5.71672605       33      -0.00365543      -0.00192059       0.00793343
O        2.11963701      -0.00419199       3.38697184       34       0.00059227       0.00482726      -0.00750579
O        0.96580708      -2.11522669       7.12987334       35       0.00860147      -0.00157679      -0.00187579
O       -0.71049792       1.93469585       3.42295216       36       0.00435376      -0.00758395      -0.00187579
O       -0.96580708      -0.81168897       5.44001779       37      -0.00860147       0.00083609      -0.00230343
O       -0.44333201       5.30176093       1.69711629       38       0.00365543       0.00192059      -0.00793343
O        3.93373991       5.07129960       5.40403746       39      -0.00059227      -0.00408657      -0.00793343
