80
Lattice="11.758812762970885 0.0 0.0 6.452317444010323 9.830426094342354 0.0 6.452317444010323 3.4829815090918417 9.192720870539437" Properties=species:S:1:pos:R:3:initial_magmoms:R:1:forces:R:3 uid=supercell-003.xyz_R3c type=Bulk energy=-90301.4349601727 stress="0.0019291697916478119 -0.000854999609966171 -0.0006095656025046308 -0.000854999609966171 0.0030222138642418224 -0.0003141743681426663 -0.0006095656025046308 -0.0003141743681426663 0.0032910989756694824" virial="-2.085809515918755e-06 7.931951680254419e-07 5.538541423794208e-07 7.931951680254419e-07 -3.0906962048224462e-06 2.9118384708559254e-07 5.538541423794208e-07 2.9118384708559254e-07 -3.3473181709483243e-06" pbc="T T T"
In      10.57093864       5.70622635       3.94006911      10.00000000       0.00395714       0.00210343       0.00146173
In      16.45034502       5.70622635       3.94006911      10.00000000       0.00420450       0.00197790       0.00113411
In      13.79709736      10.62143940       3.94006911      10.00000000       0.00424729       0.00225863       0.00136386
In      19.67650374      10.62143940       3.94006911      10.00000000       0.00409791       0.00201848       0.00140012
In      13.79709736       7.44771711       8.53642955      10.00000000       0.01154061       0.01235508      -0.00225903
In      19.67650374       7.44771711       8.53642955      10.00000000       0.00340167       0.00285475       0.00129372
In      17.02325608      12.36293015       8.53642955      10.00000000       0.00472442       0.00244954       0.00185511
In      22.90266246      12.36293015       8.53642955      10.00000000       0.00435914       0.00207554       0.00177386
In       7.92664710       4.27882935       2.95447155      10.00000000      -0.00379004      -0.00187234      -0.00191103
In      13.80605348       4.27882935       2.95447155      10.00000000      -0.00372437      -0.00165376      -0.00174142
In      11.15280582       9.19404240       2.95447155      10.00000000      -0.00392790      -0.00250033      -0.00098992
In      17.03221221       9.19404240       2.95447155      10.00000000      -0.00408130      -0.00214356      -0.00149888
In      11.15280582       6.02032010       7.55083198      10.00000000      -0.00084772       0.00127685       0.00009355
In      17.03221221       6.02032010       7.55083198      10.00000000      -0.00568956      -0.00228365      -0.00040917
In      14.37896455      10.93553315       7.55083198      10.00000000      -0.00424802      -0.00286427      -0.00156991
In      20.25837093      10.93553315       7.55083198      10.00000000      -0.00385403      -0.00209938      -0.00170741
In       4.40507673       2.37787445       1.64188889      10.00000000       0.01684349       0.00354905      -0.00962729
In      10.28448311       2.37787445       1.64188889      10.00000000       0.00379685       0.00219492       0.00110628
In       7.63123545       7.29308750       1.64188889      10.00000000       0.00350577       0.00046881       0.00134783
In      13.51064183       7.29308750       1.64188889      10.00000000       0.00435450       0.00236990       0.00166018
In       7.63123545       4.11936520       6.23824933      10.00000000       0.00394233       0.00225038       0.00122628
In      13.51064183       4.11936520       6.23824933      10.00000000       0.00465771       0.00218943       0.00056011
In      10.85739417       9.03457825       6.23824933      10.00000000       0.00466609       0.00152361       0.00259369
In      16.73680055       9.03457825       6.23824933      10.00000000       0.00367535       0.00214134       0.00173456
In       1.76078518       0.95047746       0.65629133      10.00000000      -0.00398824      -0.00162486      -0.00161803
In       7.64019156       0.95047746       0.65629133      10.00000000      -0.00673432       0.00362083      -0.00239132
In       4.98694390       5.86569050       0.65629133      10.00000000      -0.00323176      -0.00322365      -0.00125296
In      10.86635028       5.86569050       0.65629133      10.00000000      -0.00440384      -0.00243338      -0.00144397
In       4.98694390       2.69196821       5.25265176      10.00000000      -0.00394804      -0.00154870      -0.00135085
In      10.86635028       2.69196821       5.25265176      10.00000000      -0.00437235      -0.00280716      -0.00237725
In       8.21310263       7.60718126       5.25265176      10.00000000      -0.00422019      -0.00225347      -0.00163386
In      14.09250901       7.60718126       5.25265176      10.00000000      -0.00426009      -0.00206253      -0.00105737
O        6.02844157       2.31817494       0.21474656       4.00000000      -0.04085424      -0.03738902       0.00769140
O       11.90204053       2.30932705       0.21474656       4.00000000       0.00060169       0.00721104      -0.01069296
O        9.24879287       7.22454010       0.21474656       4.00000000       0.00037289       0.00755841      -0.01084559
O       15.12819925       7.22454010       0.21474656       4.00000000      -0.00036896       0.00746787      -0.01058790
O        9.24879287       4.05081780       4.81110699       4.00000000       0.00011028       0.00720528      -0.01053142
O       15.12819925       4.05081780       4.81110699       4.00000000       0.00004890       0.00703557      -0.01071172
O       12.47495159       8.96603085       4.81110699       4.00000000       0.00015940       0.00783657      -0.01125677
O       18.35435798       8.96603085       4.81110699       4.00000000      -0.00012097       0.00771996      -0.01034294
O        7.09636398       5.12094207       1.14909010       4.00000000      -0.00427999       0.01789714       0.00288186
O       12.97577036       5.12094207       1.14909010       4.00000000      -0.00605066       0.01131175       0.00006716
O       10.32252270      10.03615511       1.14909010       4.00000000      -0.00080857       0.01552493      -0.00157268
O       16.20192908      10.03615511       1.14909010       4.00000000      -0.00573185       0.01149060       0.00003015
O       10.32252270       6.86243282       5.74545054       4.00000000      -0.00612125       0.01174353      -0.00029562
O       16.20192908       6.86243282       5.74545054       4.00000000      -0.00610482       0.01130353      -0.00016024
O       13.54868142      11.77764587       5.74545054       4.00000000      -0.00595545       0.01124860       0.00002342
O       19.42808780      11.77764587       5.74545054       4.00000000      -0.00668762       0.01169283       0.00072486
O        8.17506304       2.18091283       2.51292678       4.00000000       0.00755548      -0.00494931      -0.00891126
O       14.05446942       2.18091283       2.51292678       4.00000000       0.00608664      -0.00392606      -0.01061596
O       11.40122176       7.09612588       2.51292678       4.00000000       0.00621959      -0.00358806      -0.01074056
O       17.28062814       7.09612588       2.51292678       4.00000000       0.00540645      -0.00317141      -0.01039399
O       11.40122176       3.92240358       7.10928721       4.00000000       0.00755610      -0.00085287      -0.00595897
O       17.28062814       3.92240358       7.10928721       4.00000000       0.00622162      -0.00399600      -0.01046741
O       14.62738048       8.83761663       7.10928721       4.00000000       0.00603536      -0.00464503      -0.00978607
O       20.50678687       8.83761663       7.10928721       4.00000000       0.00540715      -0.00377788      -0.01092658
O        4.15666079       4.47579097       2.08343366       4.00000000      -0.00747788       0.00439507       0.01145232
O       10.03606717       4.47579097       2.08343366       4.00000000      -0.00610759       0.00405528       0.01062213
O        7.38281951       9.39100402       2.08343366       4.00000000      -0.00521583       0.00413372       0.01037977
O       13.26222589       9.39100402       2.08343366       4.00000000      -0.00745797       0.00640769       0.00874394
O        7.38281951       6.21728172       6.67979410       4.00000000      -0.00581837       0.00386146       0.01111276
O       13.26222589       6.21728172       6.67979410       4.00000000      -0.00627042       0.00381117       0.00582970
O       10.60897823      11.13249477       6.67979410       4.00000000      -0.00681141       0.00438040       0.01023956
O       16.48838462      11.13249477       6.67979410       4.00000000      -0.00581927       0.00432073       0.01020874
O        6.30908968       4.34737676       4.38161388       4.00000000       0.00041782      -0.00709460       0.01109221
O       12.18849606       4.34737676       4.38161388       4.00000000      -0.00021706      -0.00741729       0.01093410
O        9.53524840       9.26258981       4.38161388       4.00000000       0.00013903      -0.00706704       0.01038675
O       15.41465478       9.26258981       4.38161388       4.00000000      -0.00010575      -0.00724311       0.01062813
O        9.53524840       6.08886751       8.97797431       4.00000000       0.00728610      -0.00956699       0.01209458
O       15.41465478       6.08886751       8.97797431       4.00000000       0.01019540      -0.00792068       0.00947721
O       12.76140712      11.00408056       8.97797431       4.00000000      -0.00035443      -0.00594376       0.01046562
O       18.64081350      11.00408056       8.97797431       4.00000000       0.00044386      -0.00628401       0.01076957
O        5.23535984       1.53576173       3.44727032       4.00000000       0.00615198      -0.01156440      -0.00221164
O       11.11476623       1.53576173       3.44727032       4.00000000       0.00647220      -0.01142444      -0.00003176
O        8.46151857       6.45097478       3.44727032       4.00000000       0.00664366      -0.01136106       0.00057923
O       14.34092495       6.45097478       3.44727032       4.00000000       0.00556728      -0.01136956      -0.00021609
O        8.46151857       3.27725249       8.04363076       4.00000000       0.00606460      -0.01113361      -0.00002714
O       14.34092495       3.27725249       8.04363076       4.00000000       0.00462728      -0.01055046       0.00076963
O       11.68767729       8.19246553       8.04363076       4.00000000       0.00222030      -0.00469019      -0.00553089
O       17.56708367       8.19246553       8.04363076       4.00000000       0.00607626      -0.01099375      -0.00015395
