80
Lattice="11.758812762970885 0.0 0.0 6.452317444010323 9.830426094342354 0.0 6.452317444010323 3.4829815090918417 9.192720870539437" Properties=species:S:1:pos:R:3:initial_magmoms:R:1:forces:R:3 uid=supercell.xyz_R3c type=Bulk energy=-90301.43521057558 stress="0.0019035269335073947 -0.0008580399242901715 -0.0005924644231874701 -0.0008580399242901715 0.0030298960782523298 -0.0003198143366040703 -0.0005924644231874701 -0.0003198143366040703 0.0032722423082066233" virial="-2.080625233774798e-06 7.871468388574919e-07 5.434855780915065e-07 7.871468388574919e-07 -3.114025474470254e-06 2.929119411335783e-07 5.434855780915065e-07 2.929119411335783e-07 -3.3360855596364177e-06" pbc="T T T"
In      10.57093864       5.70622635       3.94006911      10.00000000       0.00406638       0.00219505       0.00151565
In      16.45034502       5.70622635       3.94006911      10.00000000       0.00406639       0.00219504       0.00151565
In      13.79709736      10.62143940       3.94006911      10.00000000       0.00406637       0.00219503       0.00151565
In      19.67650374      10.62143940       3.94006911      10.00000000       0.00406641       0.00219504       0.00151566
In      13.79709736       7.44771711       8.53642955      10.00000000       0.00406639       0.00219499       0.00151559
In      19.67650374       7.44771711       8.53642955      10.00000000       0.00406642       0.00219500       0.00151559
In      17.02325608      12.36293015       8.53642955      10.00000000       0.00406641       0.00219506       0.00151559
In      22.90266246      12.36293015       8.53642955      10.00000000       0.00406641       0.00219506       0.00151559
In       7.92664710       4.27882935       2.95447155      10.00000000      -0.00406641      -0.00219498      -0.00151575
In      13.80605348       4.27882935       2.95447155      10.00000000      -0.00406640      -0.00219498      -0.00151575
In      11.15280582       9.19404240       2.95447155      10.00000000      -0.00406640      -0.00219501      -0.00151574
In      17.03221221       9.19404240       2.95447155      10.00000000      -0.00406646      -0.00219500      -0.00151574
In      11.15280582       6.02032010       7.55083198      10.00000000      -0.00406637      -0.00219499      -0.00151570
In      17.03221221       6.02032010       7.55083198      10.00000000      -0.00406644      -0.00219499      -0.00151570
In      14.37896455      10.93553315       7.55083198      10.00000000      -0.00406645      -0.00219498      -0.00151569
In      20.25837093      10.93553315       7.55083198      10.00000000      -0.00406645      -0.00219498      -0.00151569
In       4.40507673       2.37787445       1.64188889      10.00000000       0.00406634       0.00219502       0.00151565
In      10.28448311       2.37787445       1.64188889      10.00000000       0.00406635       0.00219501       0.00151566
In       7.63123545       7.29308750       1.64188889      10.00000000       0.00406634       0.00219501       0.00151566
In      13.51064183       7.29308750       1.64188889      10.00000000       0.00406634       0.00219501       0.00151567
In       7.63123545       4.11936520       6.23824933      10.00000000       0.00406637       0.00219504       0.00151563
In      13.51064183       4.11936520       6.23824933      10.00000000       0.00406637       0.00219504       0.00151563
In      10.85739417       9.03457825       6.23824933      10.00000000       0.00406641       0.00219502       0.00151564
In      16.73680055       9.03457825       6.23824933      10.00000000       0.00406643       0.00219501       0.00151562
In       1.76078518       0.95047746       0.65629133      10.00000000      -0.00406632      -0.00219511      -0.00151570
In       7.64019156       0.95047746       0.65629133      10.00000000      -0.00406631      -0.00219512      -0.00151570
In       4.98694390       5.86569050       0.65629133      10.00000000      -0.00406632      -0.00219505      -0.00151572
In      10.86635028       5.86569050       0.65629133      10.00000000      -0.00406631      -0.00219505      -0.00151571
In       4.98694390       2.69196821       5.25265176      10.00000000      -0.00406633      -0.00219510      -0.00151565
In      10.86635028       2.69196821       5.25265176      10.00000000      -0.00406630      -0.00219510      -0.00151567
In       8.21310263       7.60718126       5.25265176      10.00000000      -0.00406636      -0.00219514      -0.00151565
In      14.09250901       7.60718126       5.25265176      10.00000000      -0.00406638      -0.00219513      -0.00151565
O        6.02263415       2.30932705       0.21474656       4.00000000      -0.00000003       0.00732584      -0.01060971
O       11.90204053       2.30932705       0.21474656       4.00000000      -0.00000001       0.00732583      -0.01060971
O        9.24879287       7.22454010       0.21474656       4.00000000      -0.00000000       0.00732580      -0.01060971
O       15.12819925       7.22454010       0.21474656       4.00000000       0.00000001       0.00732579      -0.01060970
O        9.24879287       4.05081780       4.81110699       4.00000000      -0.00000002       0.00732585      -0.01060968
O       15.12819925       4.05081780       4.81110699       4.00000000      -0.00000001       0.00732585      -0.01060968
O       12.47495159       8.96603085       4.81110699       4.00000000       0.00000000       0.00732583      -0.01060967
O       18.35435798       8.96603085       4.81110699       4.00000000      -0.00000007       0.00732583      -0.01060964
O        7.09636398       5.12094207       1.14909010       4.00000000      -0.00612444       0.01134570       0.00000014
O       12.97577036       5.12094207       1.14909010       4.00000000      -0.00612444       0.01134569       0.00000013
O       10.32252270      10.03615511       1.14909010       4.00000000      -0.00612444       0.01134573       0.00000013
O       16.20192908      10.03615511       1.14909010       4.00000000      -0.00612443       0.01134573       0.00000014
O       10.32252270       6.86243282       5.74545054       4.00000000      -0.00612444       0.01134570       0.00000005
O       16.20192908       6.86243282       5.74545054       4.00000000      -0.00612443       0.01134570       0.00000006
O       13.54868142      11.77764587       5.74545054       4.00000000      -0.00612443       0.01134568       0.00000006
O       19.42808780      11.77764587       5.74545054       4.00000000      -0.00612443       0.01134568       0.00000006
O        8.17506304       2.18091283       2.51292678       4.00000000       0.00612445      -0.00401986      -0.01060973
O       14.05446942       2.18091283       2.51292678       4.00000000       0.00612446      -0.00401985      -0.01060975
O       11.40122176       7.09612588       2.51292678       4.00000000       0.00612445      -0.00401988      -0.01060973
O       17.28062814       7.09612588       2.51292678       4.00000000       0.00612447      -0.00401988      -0.01060973
O       11.40122176       3.92240358       7.10928721       4.00000000       0.00612443      -0.00401986      -0.01060969
O       17.28062814       3.92240358       7.10928721       4.00000000       0.00612444      -0.00401987      -0.01060970
O       14.62738048       8.83761663       7.10928721       4.00000000       0.00612445      -0.00401986      -0.01060971
O       20.50678687       8.83761663       7.10928721       4.00000000       0.00612441      -0.00401988      -0.01060969
O        4.15666079       4.47579097       2.08343366       4.00000000      -0.00612446       0.00401986       0.01060972
O       10.03606717       4.47579097       2.08343366       4.00000000      -0.00612446       0.00401986       0.01060971
O        7.38281951       9.39100402       2.08343366       4.00000000      -0.00612444       0.00401986       0.01060969
O       13.26222589       9.39100402       2.08343366       4.00000000      -0.00612445       0.00401987       0.01060971
O        7.38281951       6.21728172       6.67979410       4.00000000      -0.00612442       0.00401993       0.01060965
O       13.26222589       6.21728172       6.67979410       4.00000000      -0.00612442       0.00401993       0.01060965
O       10.60897823      11.13249477       6.67979410       4.00000000      -0.00612443       0.00401990       0.01060967
O       16.48838462      11.13249477       6.67979410       4.00000000      -0.00612448       0.00401988       0.01060968
O        6.30908968       4.34737676       4.38161388       4.00000000      -0.00000003      -0.00732585       0.01060970
O       12.18849606       4.34737676       4.38161388       4.00000000      -0.00000002      -0.00732586       0.01060970
O        9.53524840       9.26258981       4.38161388       4.00000000      -0.00000001      -0.00732586       0.01060970
O       15.41465478       9.26258981       4.38161388       4.00000000       0.00000003      -0.00732586       0.01060969
O        9.53524840       6.08886751       8.97797431       4.00000000      -0.00000003      -0.00732582       0.01060973
O       15.41465478       6.08886751       8.97797431       4.00000000       0.00000001      -0.00732582       0.01060971
O       12.76140712      11.00408056       8.97797431       4.00000000       0.00000001      -0.00732586       0.01060971
O       18.64081350      11.00408056       8.97797431       4.00000000       0.00000003      -0.00732587       0.01060971
O        5.23535984       1.53576173       3.44727032       4.00000000       0.00612447      -0.01134565       0.00000008
O       11.11476623       1.53576173       3.44727032       4.00000000       0.00612442      -0.01134564       0.00000006
O        8.46151857       6.45097478       3.44727032       4.00000000       0.00612444      -0.01134566       0.00000006
O       14.34092495       6.45097478       3.44727032       4.00000000       0.00612444      -0.01134566       0.00000006
O        8.46151857       3.27725249       8.04363076       4.00000000       0.00612443      -0.01134569       0.00000004
O       14.34092495       3.27725249       8.04363076       4.00000000       0.00612443      -0.01134568       0.00000004
O       11.68767729       8.19246553       8.04363076       4.00000000       0.00612443      -0.01134564       0.00000004
O       17.56708367       8.19246553       8.04363076       4.00000000       0.00612444      -0.01134564       0.00000003
