40
Lattice="5.851414064593835 2.538668002953005e-42 0.0 -3.084826960718725e-44 6.183181841081555 0.0 0.0 0.0 16.546515871765955" Properties=species:S:1:pos:R:3:spacegroup_kinds:I:1:forces:R:3 spacegroup="P 1" unit_cell=conventional occupancy="_JSON {\"0\": {\"In\": 1}, \"1\": {\"In\": 1}, \"2\": {\"In\": 1}, \"3\": {\"In\": 1}, \"4\": {\"In\": 1}, \"5\": {\"In\": 1}, \"6\": {\"In\": 1}, \"7\": {\"In\": 1}, \"8\": {\"In\": 1}, \"9\": {\"In\": 1}, \"10\": {\"In\": 1}, \"11\": {\"In\": 1}, \"12\": {\"In\": 1}, \"13\": {\"In\": 1}, \"14\": {\"In\": 1}, \"15\": {\"In\": 1}, \"16\": {\"O\": 1}, \"17\": {\"O\": 1}, \"18\": {\"O\": 1}, \"19\": {\"O\": 1}, \"20\": {\"O\": 1}, \"21\": {\"O\": 1}, \"22\": {\"O\": 1}, \"23\": {\"O\": 1}, \"24\": {\"O\": 1}, \"25\": {\"O\": 1}, \"26\": {\"O\": 1}, \"27\": {\"O\": 1}, \"28\": {\"O\": 1}, \"29\": {\"O\": 1}, \"30\": {\"O\": 1}, \"31\": {\"O\": 1}, \"32\": {\"O\": 1}, \"33\": {\"O\": 1}, \"34\": {\"O\": 1}, \"35\": {\"O\": 1}, \"36\": {\"O\": 1}, \"37\": {\"O\": 1}, \"38\": {\"O\": 1}, \"39\": {\"O\": 1}}" n_minim_iter=27 energy=-45147.84446347253 stress="0.03820567832951349 2.4035504707969334e-13 4.4228005101602335e-14 2.4035504707969334e-13 0.038215398093258565 2.1902624702797049e-13 4.4228005101602335e-14 2.1902624702797049e-13 0.03826868719820153" free_energy=-45147.84446347253 pbc="T T T"
In       2.65418727       5.12968254       9.52970010        0      -0.00575164      -0.00095032       0.00611728
In      -0.27151976       4.14509022       7.01681577        1      -0.00575164       0.00095032      -0.00611728
In       3.19722679       2.03809162      15.29007370        2       0.00575164      -0.00095032      -0.00611728
In       6.12293382       1.05349930       1.25644217        3       0.00575164       0.00095032       0.00611728
In       3.19722679       1.05349930       7.01681577        4       0.00575164       0.00095032      -0.00611728
In       6.12293382       2.03809162       9.52970010        5       0.00575164      -0.00095032       0.00611728
In       2.65418727       4.14509022       1.25644217        6      -0.00575164       0.00095032       0.00611728
In      -0.27151976       5.12968254      15.29007370        7      -0.00575164      -0.00095032      -0.00611728
In       2.66897174       4.93392171      13.50271445        8       0.00144634      -0.00597693      -0.00328512
In       5.59467877       4.34085105       3.04380142        9       0.00144634       0.00597693       0.00328512
In       3.18244233       1.84233079      11.31705935       10      -0.00144634      -0.00597693       0.00328512
In       0.25673530       1.24926013       5.22945652       11      -0.00144634       0.00597693      -0.00328512
In       3.18244233       1.24926013       3.04380142       12      -0.00144634       0.00597693       0.00328512
In       0.25673530       1.84233079      13.50271445       13      -0.00144634      -0.00597693      -0.00328512
In       2.66897174       4.34085105       5.22945652       14       0.00144634       0.00597693      -0.00328512
In       5.59467877       4.93392171      11.31705935       15       0.00144634      -0.00597693       0.00328512
O        4.77437829       5.57812285      13.25215712       16      -0.00096489       0.00559123       0.00139877
O        1.84867126       3.69664991       3.29435875       17      -0.00096489      -0.00559123      -0.00139877
O        1.07703577       2.48653193      11.56761669       18       0.00096489       0.00559123      -0.00139877
O        4.00274281       0.60505899       4.97889918       19       0.00096489      -0.00559123       0.00139877
O        1.07703577       0.60505899       3.29435875       20       0.00096489      -0.00559123      -0.00139877
O        4.00274281       2.48653193      13.25215712       21       0.00096489       0.00559123       0.00139877
O        4.77437829       3.69664991       4.97889918       22      -0.00096489      -0.00559123       0.00139877
O        1.84867126       5.57812285      11.56761669       23      -0.00096489       0.00559123      -0.00139877
O        4.05445522       3.64103403      10.40616025       24       0.00302628      -0.00379020       0.00437422
O        1.12874819       5.63373873       6.14035562       25       0.00302628       0.00379020      -0.00437422
O        1.79695884       0.54944311      14.41361355       26      -0.00302628      -0.00379020      -0.00437422
O        4.72266587       2.54214781       2.13290232       27      -0.00302628       0.00379020       0.00437422
O        1.79695884       2.54214781       6.14035562       28      -0.00302628       0.00379020      -0.00437422
O        4.72266587       0.54944311      10.40616025       29      -0.00302628      -0.00379020       0.00437422
O        4.05445522       5.63373873       2.13290232       30       0.00302628       0.00379020       0.00437422
O        1.12874819       3.64103403      14.41361355       31       0.00302628      -0.00379020      -0.00437422
O        3.69837645       4.12828357      15.81834346       32      -0.00587573       0.00631760       0.00125005
O        0.77266942       5.14648919       0.72817241       33      -0.00587573      -0.00631760      -0.00125005
O        2.15303762       1.03669265       9.00143034       34       0.00587573       0.00631760      -0.00125005
O        5.07874465       2.05489827       7.54508553       35       0.00587573      -0.00631760       0.00125005
O        2.15303762       2.05489827       0.72817241       36       0.00587573      -0.00631760      -0.00125005
O        5.07874465       1.03669265      15.81834346       37       0.00587573       0.00631760       0.00125005
O        3.69837645       5.14648919       7.54508553       38      -0.00587573      -0.00631760       0.00125005
O        0.77266942       4.12828357       9.00143034       39      -0.00587573       0.00631760      -0.00125005
