40
Lattice="5.683844095217197 -6.276858308432341e-43 0.0 6.461982981148286e-43 5.85147887780931 0.0 0.0 0.0 16.434748799398353" Properties=species:S:1:pos:R:3:spacegroup_kinds:I:1:forces:R:3 spacegroup="P 1" unit_cell=conventional occupancy="_JSON {\"0\": {\"In\": 1}, \"1\": {\"In\": 1}, \"2\": {\"In\": 1}, \"3\": {\"In\": 1}, \"4\": {\"In\": 1}, \"5\": {\"In\": 1}, \"6\": {\"In\": 1}, \"7\": {\"In\": 1}, \"8\": {\"In\": 1}, \"9\": {\"In\": 1}, \"10\": {\"In\": 1}, \"11\": {\"In\": 1}, \"12\": {\"In\": 1}, \"13\": {\"In\": 1}, \"14\": {\"In\": 1}, \"15\": {\"In\": 1}, \"16\": {\"O\": 1}, \"17\": {\"O\": 1}, \"18\": {\"O\": 1}, \"19\": {\"O\": 1}, \"20\": {\"O\": 1}, \"21\": {\"O\": 1}, \"22\": {\"O\": 1}, \"23\": {\"O\": 1}, \"24\": {\"O\": 1}, \"25\": {\"O\": 1}, \"26\": {\"O\": 1}, \"27\": {\"O\": 1}, \"28\": {\"O\": 1}, \"29\": {\"O\": 1}, \"30\": {\"O\": 1}, \"31\": {\"O\": 1}, \"32\": {\"O\": 1}, \"33\": {\"O\": 1}, \"34\": {\"O\": 1}, \"35\": {\"O\": 1}, \"36\": {\"O\": 1}, \"37\": {\"O\": 1}, \"38\": {\"O\": 1}, \"39\": {\"O\": 1}}" n_minim_iter=1 energy=-45149.97744142865 stress="0.024693686390585085 8.908772934269853e-15 1.6106642441458581e-13 8.908772934269853e-15 0.026166750957027675 -5.931293186731199e-13 1.6106642441458581e-13 -5.931293186731199e-13 0.02556742348866244" free_energy=-45149.97744142865 pbc="T T T"
In       2.83717139       4.67173920       9.37718632        0       0.00066766      -0.04066910       0.00033250
In      -0.00475066       4.10547912       7.05756247        1       0.00066766       0.04066910      -0.00033250
In       2.84667271       1.74599976      15.27493687        2      -0.00066766      -0.04066910      -0.00033250
In       5.68859476       1.17973968       1.15981192        3      -0.00066766       0.04066910       0.00033250
In       2.84667271       1.17973968       7.05756247        4      -0.00066766       0.04066910      -0.00033250
In       5.68859476       1.74599976       9.37718632        5      -0.00066766      -0.04066910       0.00033250
In       2.83717139       4.10547912       1.15981192        6       0.00066766       0.04066910       0.00033250
In      -0.00475066       4.67173920      15.27493687        7       0.00066766      -0.04066910      -0.00033250
In       2.82407291       4.36931281      13.44575156        8      -0.02426689       0.01419410      -0.03285834
In       5.66599495       4.40790551       2.98899724        9      -0.02426689      -0.01419410       0.03285834
In       2.85977119       1.44357337      11.20637164       10       0.02426689       0.01419410       0.03285834
In       0.01784914       1.48216607       5.22837716       11       0.02426689      -0.01419410      -0.03285834
In       2.85977119       1.48216607       2.98899724       12       0.02426689      -0.01419410       0.03285834
In       0.01784914       1.44357337      13.44575156       13       0.02426689       0.01419410      -0.03285834
In       2.82407291       4.40790551       5.22837716       14      -0.02426689      -0.01419410      -0.03285834
In       5.66599495       4.36931281      11.20637164       15      -0.02426689       0.01419410       0.03285834
O        4.88251049       5.14520503      13.11797363       16      -0.00923231      -0.04084860      -0.01047315
O        2.04058844       3.63201329       3.31677517       17      -0.00923231       0.04084860       0.01047315
O        0.80133361       2.21946559      11.53414957       18       0.00923231      -0.04084860       0.01047315
O        3.64325565       0.70627385       4.90059923       19       0.00923231       0.04084860      -0.01047315
O        0.80133361       0.70627385       3.31677517       20       0.00923231       0.04084860       0.01047315
O        3.64325565       2.21946559      13.11797363       21       0.00923231      -0.04084860      -0.01047315
O        4.88251049       3.63201329       4.90059923       22      -0.00923231       0.04084860      -0.01047315
O        2.04058844       5.14520503      11.53414957       23      -0.00923231      -0.04084860       0.01047315
O        4.01374003       3.08304226      10.26189032       24      -0.06139843       0.01313790      -0.01467675
O        1.17181798       5.69417606       6.17285848       25      -0.06139843      -0.01313790       0.01467675
O        1.67010407       0.15730282      14.39023288       26       0.06139843       0.01313790       0.01467675
O        4.51202611       2.76843662       2.04451592       27       0.06139843      -0.01313790      -0.01467675
O        1.67010407       2.76843662       6.17285848       28       0.06139843      -0.01313790       0.01467675
O        4.51202611       0.15730282      10.26189032       29       0.06139843       0.01313790      -0.01467675
O        4.01374003       5.69417606       2.04451592       30      -0.06139843      -0.01313790      -0.01467675
O        1.17181798       3.08304226      14.39023288       31      -0.06139843       0.01313790       0.01467675
O        3.67586783       3.86422777      15.58111258       32       0.03301396       0.01753159       0.01246478
O        0.83394578       4.91299055       0.85363622       33       0.03301396      -0.01753159      -0.01246478
O        2.00797627       0.93848833       9.07101062       34      -0.03301396       0.01753159      -0.01246478
O        4.84989831       1.98725111       7.36373818       35      -0.03301396      -0.01753159       0.01246478
O        2.00797627       1.98725111       0.85363622       36      -0.03301396      -0.01753159      -0.01246478
O        4.84989831       0.93848833      15.58111258       37      -0.03301396       0.01753159       0.01246478
O        3.67586783       4.91299055       7.36373818       38       0.03301396      -0.01753159       0.01246478
O        0.83394578       3.86422777       9.07101062       39       0.03301396       0.01753159      -0.01246478
40
Lattice="5.691526013453643 -6.281439839209353e-43 0.0 6.45824405050706e-43 5.844504003112267 0.0 0.0 0.0 16.432153509096366" Properties=species:S:1:pos:R:3:spacegroup_kinds:I:1:forces:R:3 spacegroup="P 1" unit_cell=conventional occupancy="_JSON {\"0\": {\"In\": 1}, \"1\": {\"In\": 1}, \"2\": {\"In\": 1}, \"3\": {\"In\": 1}, \"4\": {\"In\": 1}, \"5\": {\"In\": 1}, \"6\": {\"In\": 1}, \"7\": {\"In\": 1}, \"8\": {\"In\": 1}, \"9\": {\"In\": 1}, \"10\": {\"In\": 1}, \"11\": {\"In\": 1}, \"12\": {\"In\": 1}, \"13\": {\"In\": 1}, \"14\": {\"In\": 1}, \"15\": {\"In\": 1}, \"16\": {\"O\": 1}, \"17\": {\"O\": 1}, \"18\": {\"O\": 1}, \"19\": {\"O\": 1}, \"20\": {\"O\": 1}, \"21\": {\"O\": 1}, \"22\": {\"O\": 1}, \"23\": {\"O\": 1}, \"24\": {\"O\": 1}, \"25\": {\"O\": 1}, \"26\": {\"O\": 1}, \"27\": {\"O\": 1}, \"28\": {\"O\": 1}, \"29\": {\"O\": 1}, \"30\": {\"O\": 1}, \"31\": {\"O\": 1}, \"32\": {\"O\": 1}, \"33\": {\"O\": 1}, \"34\": {\"O\": 1}, \"35\": {\"O\": 1}, \"36\": {\"O\": 1}, \"37\": {\"O\": 1}, \"38\": {\"O\": 1}, \"39\": {\"O\": 1}}" n_minim_iter=2 energy=-45149.97810189281 stress="0.0256035510001347 -6.376976077749506e-13 -2.9224054496173295e-13 -6.376976077749506e-13 0.025223150099792233 1.0986176873658631e-12 -2.9224054496173295e-13 1.0986176873658631e-12 0.02530561639822732" free_energy=-45149.97810189281 pbc="T T T"
In       2.84100804       4.66604224       9.37570658        0      -0.00703955      -0.04585343      -0.00392405
In      -0.00475497       4.10071376       7.05644693        1      -0.00703955       0.04585343       0.00392405
In       2.85051798       1.74379024      15.27252369        2       0.00703955      -0.04585343       0.00392405
In       5.69628098       1.17846176       1.15962982        3       0.00703955       0.04585343      -0.00392405
In       2.85051798       1.17846176       7.05644693        4       0.00703955       0.04585343       0.00392405
In       5.69628098       1.74379024       9.37570658        5       0.00703955      -0.04585343      -0.00392405
In       2.84100804       4.10071376       1.15962982        6      -0.00703955       0.04585343      -0.00392405
In      -0.00475497       4.66604224      15.27252369        7      -0.00703955      -0.04585343       0.00392405
In       2.82781299       4.36414943      13.44352450        8      -0.01773091       0.01910632      -0.03434880
In       5.67357599       4.40260657       2.98862901        9      -0.01773091      -0.01910632       0.03434880
In       2.86371303       1.44189743      11.20470576       10       0.01773091       0.01910632       0.03434880
In       0.01795002       1.48035457       5.22744775       11       0.01773091      -0.01910632      -0.03434880
In       2.86371303       1.48035457       2.98862901       12       0.01773091      -0.01910632       0.03434880
In       0.01795002       1.44189743      13.44352450       13       0.01773091       0.01910633      -0.03434880
In       2.82781299       4.40260657       5.22744775       14      -0.01773091      -0.01910632      -0.03434880
In       5.67357599       4.36414943      11.20470576       15      -0.01773091       0.01910633       0.03434880
O        4.88908017       5.13894315      13.11586903       16      -0.00784933      -0.04095731      -0.00745528
O        2.04331717       3.62781286       3.31628448       17      -0.00784933       0.04095731       0.00745528
O        0.80244584       2.21669114      11.53236123       18       0.00784933      -0.04095731       0.00745528
O        3.64820885       0.70556086       4.89979228       19       0.00784933       0.04095731      -0.00745528
O        0.80244584       0.70556086       3.31628448       20       0.00784933       0.04095731       0.00745528
O        3.64820885       2.21669114      13.11586903       21       0.00784933      -0.04095731      -0.00745528
O        4.88908017       3.62781286       4.89979228       22      -0.00784933       0.04095731      -0.00745528
O        2.04331717       5.13894315      11.53236123       23      -0.00784933      -0.04095731       0.00745528
O        4.01897054       3.07940877      10.26022347       24      -0.05690254       0.01116293      -0.01299739
O        1.17320753       5.68734724       6.17193004       25      -0.05690254      -0.01116293       0.01299739
O        1.67255547       0.15715677      14.38800680       26       0.05690254       0.01116293       0.01299739
O        4.51831848       2.76509523       2.04414671       27       0.05690254      -0.01116293      -0.01299739
O        1.67255547       2.76509523       6.17193004       28       0.05690254      -0.01116293       0.01299739
O        4.51831848       0.15715677      10.26022347       29       0.05690254       0.01116293      -0.01299739
O        4.01897054       5.68734724       2.04414671       30      -0.05690254      -0.01116293      -0.01299739
O        1.17320753       3.07940877      14.38800680       31      -0.05690254       0.01116293       0.01299739
O        3.68094032       3.85967698      15.57869145       32       0.03409715       0.02245061       0.00907584
O        0.83517731       4.90707903       0.85346206       33       0.03409715      -0.02245061      -0.00907584
O        2.01058570       0.93742498       9.06953881       34      -0.03409715       0.02245061      -0.00907584
O        4.85634870       1.98482702       7.36261470       35      -0.03409715      -0.02245061       0.00907584
O        2.01058570       1.98482702       0.85346206       36      -0.03409715      -0.02245061      -0.00907584
O        4.85634870       0.93742498      15.57869145       37      -0.03409715       0.02245061       0.00907584
O        3.68094032       4.90707903       7.36261470       38       0.03409715      -0.02245061       0.00907584
O        0.83517731       3.85967698       9.06953881       39       0.03409715       0.02245061      -0.00907584
40
Lattice="5.689242588578545 -7.505691638832513e-43 0.0 7.714599760490215e-43 5.839734463356558 0.0 0.0 0.0 16.452174860318166" Properties=species:S:1:pos:R:3:spacegroup_kinds:I:1:forces:R:3 spacegroup="P 1" unit_cell=conventional occupancy="_JSON {\"0\": {\"In\": 1}, \"1\": {\"In\": 1}, \"2\": {\"In\": 1}, \"3\": {\"In\": 1}, \"4\": {\"In\": 1}, \"5\": {\"In\": 1}, \"6\": {\"In\": 1}, \"7\": {\"In\": 1}, \"8\": {\"In\": 1}, \"9\": {\"In\": 1}, \"10\": {\"In\": 1}, \"11\": {\"In\": 1}, \"12\": {\"In\": 1}, \"13\": {\"In\": 1}, \"14\": {\"In\": 1}, \"15\": {\"In\": 1}, \"16\": {\"O\": 1}, \"17\": {\"O\": 1}, \"18\": {\"O\": 1}, \"19\": {\"O\": 1}, \"20\": {\"O\": 1}, \"21\": {\"O\": 1}, \"22\": {\"O\": 1}, \"23\": {\"O\": 1}, \"24\": {\"O\": 1}, \"25\": {\"O\": 1}, \"26\": {\"O\": 1}, \"27\": {\"O\": 1}, \"28\": {\"O\": 1}, \"29\": {\"O\": 1}, \"30\": {\"O\": 1}, \"31\": {\"O\": 1}, \"32\": {\"O\": 1}, \"33\": {\"O\": 1}, \"34\": {\"O\": 1}, \"35\": {\"O\": 1}, \"36\": {\"O\": 1}, \"37\": {\"O\": 1}, \"38\": {\"O\": 1}, \"39\": {\"O\": 1}}" n_minim_iter=3 energy=-45149.98076578211 stress="0.024643434584408618 4.423478645210943e-13 9.387492279490277e-13 4.423478645210943e-13 0.024351357721728042 -2.0053269880321059e-13 9.387492279490277e-13 -2.0053269880321059e-13 0.026064447508054926" free_energy=-45149.98076578211 pbc="T T T"
In       2.83954372       4.65956168       9.38694904        0      -0.00014280      -0.00349354      -0.02795431
In      -0.00507757       4.10004001       7.06522582        1      -0.00014280       0.00349354       0.02795431
In       2.84969887       1.73969445      15.29131325        2       0.00014280      -0.00349354       0.02795431
In       5.69432016       1.18017278       1.16086161        3       0.00014280       0.00349354      -0.02795431
In       2.84969887       1.18017278       7.06522582        4       0.00014280       0.00349354       0.02795431
In       5.69432016       1.73969445       9.38694904        5       0.00014280      -0.00349354      -0.02795431
In       2.83954372       4.10004001       1.16086161        6      -0.00014280       0.00349354      -0.02795431
In      -0.00507757       4.65956168      15.29131325        7      -0.00014280      -0.00349354       0.02795431
In       2.82553118       4.36166676      13.45786402        8      -0.01432353      -0.00015163      -0.01485789
In       5.67015247       4.39793493       2.99431084        9      -0.01432353       0.00015163       0.01485789
In       2.86371141       1.44179953      11.22039827       10       0.01432353      -0.00015163       0.01485789
In       0.01909012       1.47806770       5.23177659       11       0.01432353       0.00015163      -0.01485789
In       2.86371141       1.47806770       2.99431084       12       0.01432353       0.00015163       0.01485789
In       0.01909012       1.44179953      13.45786402       13       0.01432353      -0.00015163      -0.01485789
In       2.82553118       4.39793493       5.23177659       14      -0.01432353       0.00015163      -0.01485789
In       5.67015247       4.36166676      11.22039827       15      -0.01432353      -0.00015163       0.01485789
O        4.88662999       5.13230472      13.13136438       16       0.00157686      -0.02245771      -0.00072550
O        2.04200870       3.62729698       3.32081048       17       0.00157686       0.02245771       0.00072550
O        0.80261259       2.21243749      11.54689791       18      -0.00157686      -0.02245771       0.00072550
O        3.64723389       0.70742974       4.90527695       19      -0.00157686       0.02245771      -0.00072550
O        0.80261259       0.70742974       3.32081048       20      -0.00157686       0.02245771       0.00072550
O        3.64723389       2.21243749      13.13136438       21      -0.00157686      -0.02245771      -0.00072550
O        4.88662999       3.62729698       4.90527695       22       0.00157686       0.02245771      -0.00072550
O        2.04200870       5.13230472      11.54689791       23       0.00157686      -0.02245771       0.00072550
O        4.01388573       3.07758746      10.27192417       24      -0.00899063      -0.00923883       0.00191085
O        1.16926444       5.68201424       6.18025069       25      -0.00899063       0.00923883      -0.00191085
O        1.67535685       0.15772023      14.40633812       26       0.00899063      -0.00923883      -0.00191085
O        4.51997815       2.76214701       2.04583674       27       0.00899063       0.00923883       0.00191085
O        1.67535685       2.76214701       6.18025069       28       0.00899063       0.00923883      -0.00191085
O        4.51997815       0.15772023      10.27192417       29       0.00899063      -0.00923883       0.00191085
O        4.01388573       5.68201424       2.04583674       30      -0.00899063       0.00923883       0.00191085
O        1.16926444       3.07758746      14.40633812       31      -0.00899063      -0.00923883      -0.00191085
O        3.68149624       3.85780564      15.59826016       32      -0.00435265      -0.00246240       0.00964055
O        0.83687495       4.90179606       0.85391470       33      -0.00435265       0.00246240      -0.00964055
O        2.00774635       0.93793840       9.08000213       34       0.00435265      -0.00246240      -0.00964055
O        4.85236764       1.98192883       7.37217273       35       0.00435265       0.00246240       0.00964055
O        2.00774635       1.98192883       0.85391470       36       0.00435265       0.00246240      -0.00964055
O        4.85236764       0.93793840      15.59826016       37       0.00435265      -0.00246240       0.00964055
O        3.68149624       4.90179606       7.37217273       38      -0.00435265       0.00246240       0.00964055
O        0.83687495       3.85780564       9.08000213       39      -0.00435265      -0.00246240      -0.00964055
40
Lattice="5.691908211747608 -7.127804419146904e-43 0.0 7.957517460789495e-43 5.844277344740198 0.0 0.0 0.0 16.431687373260065" Properties=species:S:1:pos:R:3:spacegroup_kinds:I:1:forces:R:3 spacegroup="P 1" unit_cell=conventional occupancy="_JSON {\"0\": {\"In\": 1}, \"1\": {\"In\": 1}, \"2\": {\"In\": 1}, \"3\": {\"In\": 1}, \"4\": {\"In\": 1}, \"5\": {\"In\": 1}, \"6\": {\"In\": 1}, \"7\": {\"In\": 1}, \"8\": {\"In\": 1}, \"9\": {\"In\": 1}, \"10\": {\"In\": 1}, \"11\": {\"In\": 1}, \"12\": {\"In\": 1}, \"13\": {\"In\": 1}, \"14\": {\"In\": 1}, \"15\": {\"In\": 1}, \"16\": {\"O\": 1}, \"17\": {\"O\": 1}, \"18\": {\"O\": 1}, \"19\": {\"O\": 1}, \"20\": {\"O\": 1}, \"21\": {\"O\": 1}, \"22\": {\"O\": 1}, \"23\": {\"O\": 1}, \"24\": {\"O\": 1}, \"25\": {\"O\": 1}, \"26\": {\"O\": 1}, \"27\": {\"O\": 1}, \"28\": {\"O\": 1}, \"29\": {\"O\": 1}, \"30\": {\"O\": 1}, \"31\": {\"O\": 1}, \"32\": {\"O\": 1}, \"33\": {\"O\": 1}, \"34\": {\"O\": 1}, \"35\": {\"O\": 1}, \"36\": {\"O\": 1}, \"37\": {\"O\": 1}, \"38\": {\"O\": 1}, \"39\": {\"O\": 1}}" n_minim_iter=4 energy=-45149.981476085 stress="0.024908355689418116 -1.5246552117264214e-13 2.9931382956208965e-13 -1.5246552117264214e-13 0.02488529700898012 -4.765584686317798e-13 2.9931382956208965e-13 -4.765584686317798e-13 0.02486863097918705" free_energy=-45149.981476085 pbc="T T T"
In       2.84078786       4.66246812       9.37513506        0      -0.00575463       0.00536269      -0.02115202
In      -0.00516624       4.10394789       7.05655232        1      -0.00575463      -0.00536269       0.02115202
In       2.85112035       1.74032945      15.27239600        2       0.00575463       0.00536269       0.02115202
In       5.69707445       1.18180922       1.15929137        3       0.00575463      -0.00536269      -0.02115202
In       2.85112035       1.18180922       7.05655232        4       0.00575463      -0.00536269       0.02115202
In       5.69707445       1.74032945       9.37513506        5       0.00575463       0.00536269      -0.02115202
In       2.84078786       4.10394789       1.15929137        6      -0.00575463      -0.00536269      -0.02115202
In      -0.00516624       4.66246812      15.27239600        7      -0.00575463       0.00536269       0.02115202
In       2.82651132       4.36534544      13.44052441        8      -0.00815963      -0.00968694      -0.00029116
In       5.67246542       4.40107058       2.99116296        9      -0.00815963       0.00968694       0.00029115
In       2.86539690       1.44320677      11.20700665       10       0.00815963      -0.00968694       0.00029115
In       0.01944279       1.47893190       5.22468072       11       0.00815963       0.00968694      -0.00029115
In       2.86539690       1.47893190       2.99116296       12       0.00815963       0.00968694       0.00029116
In       0.01944279       1.44320677      13.44052441       13       0.00815963      -0.00968694      -0.00029115
In       2.82651132       4.40107058       5.22468072       14      -0.00815963       0.00968694      -0.00029116
In       5.67246542       4.36534544      11.20700665       15      -0.00815963      -0.00968694       0.00029115
O        4.88879430       5.13558744      13.11488170       16      -0.00046834      -0.01702082       0.00922266
O        2.04284019       3.63082858       3.31680567       17      -0.00046834       0.01702082      -0.00922266
O        0.80311391       2.21344877      11.53264936       18       0.00046834      -0.01702082      -0.00922266
O        3.64906802       0.70868990       4.89903801       19       0.00046834       0.01702082       0.00922266
O        0.80311391       0.70868990       3.31680567       20       0.00046834       0.01702082      -0.00922266
O        3.64906802       2.21344877      13.11488170       21       0.00046834      -0.01702082       0.00922266
O        4.88879430       3.63082858       4.89903801       22      -0.00046834       0.01702082       0.00922266
O        2.04284019       5.13558744      11.53264936       23      -0.00046834      -0.01702082      -0.00922266
O        4.01482087       3.08013982      10.25892610       24      -0.00012120      -0.00883630       0.00219170
O        1.16886677       5.68627620       6.17276127       25      -0.00012120       0.00883630      -0.00219170
O        1.67708734       0.15800115      14.38860496       26       0.00012120      -0.00883630      -0.00219170
O        4.52304144       2.76413752       2.04308242       27       0.00012120       0.00883630       0.00219170
O        1.67708734       2.76413752       6.17276127       28       0.00012120       0.00883630      -0.00219170
O        4.52304144       0.15800115      10.25892610       29       0.00012120      -0.00883630       0.00219170
O        4.01482087       5.68627620       2.04308242       30      -0.00012120       0.00883630       0.00219170
O        1.16886677       3.08013982      14.38860496       31      -0.00012120      -0.00883630      -0.00219170
O        3.68374813       3.86113898      15.57901801       32      -0.00738341      -0.00797903       0.00192517
O        0.83779403       4.90527704       0.85266936       33      -0.00738341       0.00797903      -0.00192517
O        2.00816008       0.93900030       9.06851305       34       0.00738341      -0.00797903      -0.00192517
O        4.85411418       1.98313837       7.36317432       35       0.00738341       0.00797903       0.00192517
O        2.00816008       1.98313837       0.85266936       36       0.00738341       0.00797903      -0.00192517
O        4.85411418       0.93900030      15.57901801       37       0.00738341      -0.00797903       0.00192517
O        3.68374813       4.90527704       7.36317432       38      -0.00738341       0.00797903       0.00192517
O        0.83779403       3.86113898       9.06851305       39      -0.00738341      -0.00797903      -0.00192517
40
Lattice="5.689962261907069 -1.1570211294391593e-42 0.0 7.95714091533378e-43 5.8442661646502625 0.0 0.0 0.0 16.43733840511062" Properties=species:S:1:pos:R:3:spacegroup_kinds:I:1:forces:R:3 spacegroup="P 1" unit_cell=conventional occupancy="_JSON {\"0\": {\"In\": 1}, \"1\": {\"In\": 1}, \"2\": {\"In\": 1}, \"3\": {\"In\": 1}, \"4\": {\"In\": 1}, \"5\": {\"In\": 1}, \"6\": {\"In\": 1}, \"7\": {\"In\": 1}, \"8\": {\"In\": 1}, \"9\": {\"In\": 1}, \"10\": {\"In\": 1}, \"11\": {\"In\": 1}, \"12\": {\"In\": 1}, \"13\": {\"In\": 1}, \"14\": {\"In\": 1}, \"15\": {\"In\": 1}, \"16\": {\"O\": 1}, \"17\": {\"O\": 1}, \"18\": {\"O\": 1}, \"19\": {\"O\": 1}, \"20\": {\"O\": 1}, \"21\": {\"O\": 1}, \"22\": {\"O\": 1}, \"23\": {\"O\": 1}, \"24\": {\"O\": 1}, \"25\": {\"O\": 1}, \"26\": {\"O\": 1}, \"27\": {\"O\": 1}, \"28\": {\"O\": 1}, \"29\": {\"O\": 1}, \"30\": {\"O\": 1}, \"31\": {\"O\": 1}, \"32\": {\"O\": 1}, \"33\": {\"O\": 1}, \"34\": {\"O\": 1}, \"35\": {\"O\": 1}, \"36\": {\"O\": 1}, \"37\": {\"O\": 1}, \"38\": {\"O\": 1}, \"39\": {\"O\": 1}}" n_minim_iter=5 energy=-45149.98230818868 stress="0.024646199743012256 -1.316247487506074e-12 1.680789272201686e-13 -1.316247487506074e-12 0.024949794618017673 -5.215065296994537e-13 1.680789272201686e-13 -5.215065296994537e-13 0.024769382212937598" free_energy=-45149.98230818868 pbc="T T T"
In       2.83878996       4.66255870       9.37476781        0       0.00743599      -0.00913355       0.01609784
In      -0.00619117       4.10384055       7.06257060        1       0.00743599       0.00913355      -0.01609784
In       2.85117230       1.74042562      15.28123980        2      -0.00743599      -0.00913355      -0.01609784
In       5.69615343       1.18170746       1.15609860        3      -0.00743599       0.00913355       0.01609784
In       2.85117230       1.18170746       7.06257060        4      -0.00743599       0.00913355      -0.01609784
In       5.69615343       1.74042562       9.37476781        5      -0.00743599      -0.00913355       0.01609784
In       2.83878996       4.10384055       1.15609860        6       0.00743599       0.00913355       0.01609784
In      -0.00619117       4.66255870      15.28123980        7       0.00743599      -0.00913355      -0.01609784
In       2.82381614       4.36405510      13.44446801        8      -0.00141494      -0.01565691      -0.00423874
In       5.66879727       4.40234415       2.99287039        9      -0.00141494       0.01565691       0.00423874
In       2.86614612       1.44192202      11.21153959       10       0.00141494      -0.01565691       0.00423874
In       0.02116499       1.48021107       5.22579881       11       0.00141494       0.01565691      -0.00423874
In       2.86614612       1.48021107       2.99287039       12       0.00141494       0.01565691       0.00423874
In       0.02116499       1.44192202      13.44446801       13       0.00141494      -0.01565691      -0.00423874
In       2.82381614       4.40234415       5.22579881       14      -0.00141494       0.01565691      -0.00423874
In       5.66879727       4.36405510      11.21153959       15      -0.00141494      -0.01565691       0.00423874
O        4.88690478       5.13201718      13.12075688       16      -0.00282130      -0.00843431       0.00785234
O        2.04192365       3.63438207       3.31658153       17      -0.00282130       0.00843431      -0.00785234
O        0.80305748       2.20988409      11.53525073       18       0.00282130      -0.00843431      -0.00785234
O        3.64803861       0.71224899       4.90208767       19       0.00282130       0.00843431       0.00785234
O        0.80305748       0.71224899       3.31658153       20       0.00282130       0.00843431      -0.00785234
O        3.64803861       2.20988409      13.12075688       21       0.00282130      -0.00843431       0.00785234
O        4.88690478       3.63438207       4.90208767       22      -0.00282130       0.00843431       0.00785234
O        2.04192365       5.13201718      11.53525073       23      -0.00282130      -0.00843431      -0.00785234
O        4.01238299       3.07886801      10.26258260       24       0.00242129       0.00220395      -0.01019611
O        1.16740186       5.68753124       6.17475580       25       0.00242129      -0.00220395       0.01019611
O        1.67757927       0.15673493      14.39342500       26      -0.00242129       0.00220395       0.01019611
O        4.52256040       2.76539816       2.04391340       27      -0.00242129      -0.00220395      -0.01019611
O        1.67757927       2.76539816       6.17475580       28      -0.00242129      -0.00220395       0.01019611
O        4.52256040       0.15673493      10.26258260       29      -0.00242129       0.00220395      -0.01019611
O        4.01238299       5.68753124       2.04391340       30       0.00242129      -0.00220395      -0.01019611
O        1.16740186       3.07886801      14.39342500       31       0.00242129       0.00220395       0.01019611
O        3.68185229       3.86018144      15.58489541       32      -0.00468810      -0.00855702      -0.00480152
O        0.83687116       4.90621780       0.85244299       33      -0.00468810       0.00855702       0.00480152
O        2.00810997       0.93804836       9.07111220       34       0.00468810      -0.00855702       0.00480152
O        4.85309111       1.98408472       7.36622621       35       0.00468810       0.00855702      -0.00480153
O        2.00810997       1.98408472       0.85244299       36       0.00468810       0.00855702       0.00480153
O        4.85309111       0.93804836      15.58489541       37       0.00468810      -0.00855702      -0.00480152
O        3.68185229       4.90621780       7.36622621       38      -0.00468810       0.00855702      -0.00480152
O        0.83687116       3.86018144       9.07111220       39      -0.00468810      -0.00855702       0.00480152
40