40
Lattice="5.413610541155707 -3.310118990351501e-42 0.0 5.000742157865045e-42 5.465848832112226 0.0 0.0 0.0 15.39377014603428" Properties=species:S:1:pos:R:3:spacegroup_kinds:I:1:forces:R:3 spacegroup="P 1" unit_cell=conventional occupancy="_JSON {\"0\": {\"In\": 1}, \"1\": {\"In\": 1}, \"2\": {\"In\": 1}, \"3\": {\"In\": 1}, \"4\": {\"In\": 1}, \"5\": {\"In\": 1}, \"6\": {\"In\": 1}, \"7\": {\"In\": 1}, \"8\": {\"In\": 1}, \"9\": {\"In\": 1}, \"10\": {\"In\": 1}, \"11\": {\"In\": 1}, \"12\": {\"In\": 1}, \"13\": {\"In\": 1}, \"14\": {\"In\": 1}, \"15\": {\"In\": 1}, \"16\": {\"O\": 1}, \"17\": {\"O\": 1}, \"18\": {\"O\": 1}, \"19\": {\"O\": 1}, \"20\": {\"O\": 1}, \"21\": {\"O\": 1}, \"22\": {\"O\": 1}, \"23\": {\"O\": 1}, \"24\": {\"O\": 1}, \"25\": {\"O\": 1}, \"26\": {\"O\": 1}, \"27\": {\"O\": 1}, \"28\": {\"O\": 1}, \"29\": {\"O\": 1}, \"30\": {\"O\": 1}, \"31\": {\"O\": 1}, \"32\": {\"O\": 1}, \"33\": {\"O\": 1}, \"34\": {\"O\": 1}, \"35\": {\"O\": 1}, \"36\": {\"O\": 1}, \"37\": {\"O\": 1}, \"38\": {\"O\": 1}, \"39\": {\"O\": 1}}" n_minim_iter=14 energy=-45148.81968608393 stress="-0.06459060709480934 -6.644419359984296e-13 -3.8882516959200585e-13 -6.644419359984296e-13 -0.0645786930500023 -6.948423120278647e-13 -3.8882516959200585e-13 -6.948423120278647e-13 -0.06460073616659973" free_energy=-45148.81968608393 pbc="T T T"
In       2.67057433       4.41944270       8.82481786        0      -0.00593633      -0.00137395       0.00074558
In      -0.03623094       3.77933055       6.56895229        1      -0.00593633       0.00137395      -0.00074558
In       2.74303621       1.68651828      14.26583736        2       0.00593633      -0.00137395      -0.00074558
In       5.44984148       1.04640613       1.12793279        3       0.00593633       0.00137395       0.00074558
In       2.74303621       1.04640613       6.56895229        4       0.00593633       0.00137395      -0.00074558
In       5.44984148       1.68651828       8.82481786        5       0.00593633      -0.00137395       0.00074558
In       2.67057433       3.77933055       1.12793279        6      -0.00593633       0.00137395       0.00074558
In      -0.03623094       4.41944270      14.26583736        7      -0.00593633      -0.00137395      -0.00074558
In       2.70542336       4.20511119      12.59618578        8      -0.00615222      -0.00501170       0.00205842
In       5.41222863       3.99366206       2.79758437        9      -0.00615222       0.00501170      -0.00205842
In       2.70818718       1.47218677      10.49446944       10       0.00615222      -0.00501170      -0.00205842
In       0.00138191       1.26073764       4.89930070       11       0.00615222       0.00501170       0.00205842
In       2.70818718       1.26073764       2.79758437       12       0.00615222       0.00501170      -0.00205842
In       0.00138191       1.47218677      12.59618578       13       0.00615222      -0.00501170       0.00205842
In       2.70542336       3.99366206       4.89930070       14      -0.00615222       0.00501170       0.00205842
In       5.41222863       4.20511119      10.49446944       15      -0.00615222      -0.00501170      -0.00205842
O        4.64402911       4.94760713      12.28327879       16      -0.00161050      -0.00239604       0.00140109
O        1.93722384       3.25116612       3.11049136       17      -0.00161050       0.00239604      -0.00140109
O        0.76958143       2.21468271      10.80737643       18       0.00161050      -0.00239604      -0.00140109
O        3.47638670       0.51824171       4.58639371       19       0.00161050       0.00239604       0.00140109
O        0.76958143       0.51824171       3.11049136       20       0.00161050       0.00239604      -0.00140109
O        3.47638670       2.21468271      12.28327879       21       0.00161050      -0.00239604       0.00140109
O        4.64402911       3.25116612       4.58639371       22      -0.00161050       0.00239604       0.00140109
O        1.93722384       4.94760713      10.80737643       23      -0.00161050      -0.00239604      -0.00140109
O        3.87173046       2.96330472       9.63617127       24       0.00290017      -0.00327559      -0.00088667
O        1.16492519       5.23546853       5.75759887       25       0.00290017       0.00327559       0.00088667
O        1.54188008       0.23038031      13.45448395       26      -0.00290017      -0.00327559       0.00088667
O        4.24868535       2.50254411       1.93928620       27      -0.00290017       0.00327559      -0.00088667
O        1.54188008       2.50254411       5.75759887       28      -0.00290017       0.00327559       0.00088667
O        4.24868535       0.23038031       9.63617127       29      -0.00290017      -0.00327559      -0.00088667
O        3.87173046       5.23546853       1.93928620       30       0.00290017       0.00327559      -0.00088667
O        1.16492519       2.96330472      13.45448395       31       0.00290017      -0.00327559       0.00088667
O        3.44498928       3.72114522      14.60461872       32       0.00239948      -0.00231749      -0.00671052
O        0.73818401       4.47762803       0.78915143       33       0.00239948       0.00231749       0.00671052
O        1.96862126       0.98822080       8.48603650       34      -0.00239948      -0.00231749       0.00671052
O        4.67542653       1.74470362       6.90773364       35      -0.00239948       0.00231749      -0.00671052
O        1.96862126       1.74470362       0.78915143       36      -0.00239948       0.00231749       0.00671052
O        4.67542653       0.98822080      14.60461872       37      -0.00239948      -0.00231749      -0.00671052
O        3.44498928       4.47762803       6.90773364       38       0.00239948       0.00231749      -0.00671052
O        0.73818401       3.72114522       8.48603650       39       0.00239948      -0.00231749       0.00671052
