40
Lattice="5.888658516895763 2.230989084207566e-42 0.0 -2.4854165467606338e-42 6.254931660884102 0.0 0.0 0.0 16.959923015692976" Properties=species:S:1:pos:R:3:spacegroup_kinds:I:1:forces:R:3 spacegroup="P 1" unit_cell=conventional occupancy="_JSON {\"0\": {\"In\": 1}, \"1\": {\"In\": 1}, \"2\": {\"In\": 1}, \"3\": {\"In\": 1}, \"4\": {\"In\": 1}, \"5\": {\"In\": 1}, \"6\": {\"In\": 1}, \"7\": {\"In\": 1}, \"8\": {\"In\": 1}, \"9\": {\"In\": 1}, \"10\": {\"In\": 1}, \"11\": {\"In\": 1}, \"12\": {\"In\": 1}, \"13\": {\"In\": 1}, \"14\": {\"In\": 1}, \"15\": {\"In\": 1}, \"16\": {\"O\": 1}, \"17\": {\"O\": 1}, \"18\": {\"O\": 1}, \"19\": {\"O\": 1}, \"20\": {\"O\": 1}, \"21\": {\"O\": 1}, \"22\": {\"O\": 1}, \"23\": {\"O\": 1}, \"24\": {\"O\": 1}, \"25\": {\"O\": 1}, \"26\": {\"O\": 1}, \"27\": {\"O\": 1}, \"28\": {\"O\": 1}, \"29\": {\"O\": 1}, \"30\": {\"O\": 1}, \"31\": {\"O\": 1}, \"32\": {\"O\": 1}, \"33\": {\"O\": 1}, \"34\": {\"O\": 1}, \"35\": {\"O\": 1}, \"36\": {\"O\": 1}, \"37\": {\"O\": 1}, \"38\": {\"O\": 1}, \"39\": {\"O\": 1}}" n_minim_iter=11 energy=-45147.32376360986 stress="0.042637486033892925 1.6210547773868544e-13 -2.0957036470891844e-14 1.6210547773868544e-13 0.042592117117567434 5.84423105264558e-13 -2.0957036470891844e-14 5.84423105264558e-13 0.04292779269160839" free_energy=-45147.32376360986 pbc="T T T"
In       2.67705342       5.19815186       9.77121374        0      -0.00384571       0.00457496       0.00340567
In      -0.26727584       4.18424563       7.18870927        1      -0.00384571      -0.00457495      -0.00340567
In       3.21160509       2.07068603      15.66867078        2       0.00384571       0.00457495      -0.00340567
In       6.15593435       1.05677980       1.29125223        3       0.00384571      -0.00457495       0.00340567
In       3.21160509       1.05677980       7.18870927        4       0.00384571      -0.00457495      -0.00340567
In       6.15593435       2.07068603       9.77121374        5       0.00384571       0.00457496       0.00340567
In       2.67705342       4.18424563       1.29125223        6      -0.00384571      -0.00457496       0.00340567
In      -0.26727584       5.19815186      15.66867078        7      -0.00384571       0.00457495      -0.00340567
In       2.68903493       5.00628469      13.81736891        8       0.00126902       0.00115185      -0.00130870
In       5.63336419       4.37611280       3.14255411        9       0.00126902      -0.00115185       0.00130870
In       3.19962359       1.87881886      11.62251562       10      -0.00126902       0.00115185       0.00130870
In       0.25529433       1.24864697       5.33740740       11      -0.00126902      -0.00115185      -0.00130870
In       3.19962359       1.24864697       3.14255411       12      -0.00126902      -0.00115185       0.00130870
In       0.25529433       1.87881886      13.81736891       13      -0.00126902       0.00115185      -0.00130870
In       2.68903493       4.37611280       5.33740740       14       0.00126902      -0.00115185      -0.00130870
In       5.63336419       5.00628469      11.62251562       15       0.00126902       0.00115185       0.00130870
O        4.81126677       5.63404174      13.59021577       16      -0.00165323       0.00695546      -0.00436055
O        1.86693751       3.74835575       3.36970725       17      -0.00165323      -0.00695546       0.00436055
O        1.07739175       2.50657591      11.84966876       18       0.00165323       0.00695546       0.00436055
O        4.02172101       0.62088992       5.11025426       19       0.00165323      -0.00695546      -0.00436055
O        1.07739175       0.62088992       3.36970725       20       0.00165323      -0.00695546       0.00436055
O        4.02172101       2.50657591      13.59021577       21       0.00165323       0.00695546      -0.00436055
O        4.81126677       3.74835575       5.11025426       22      -0.00165323      -0.00695546      -0.00436055
O        1.86693751       5.63404174      11.84966876       23      -0.00165323       0.00695546       0.00436055
O        4.08217474       3.70770758      10.71125726       24      -0.00302747       0.00661427       0.00080728
O        1.13784548       5.67468991       6.24866575       25      -0.00302747      -0.00661427      -0.00080728
O        1.80648378       0.58024175      14.72862726       26       0.00302747       0.00661427      -0.00080728
O        4.75081304       2.54722408       2.23129575       27       0.00302747      -0.00661427       0.00080728
O        1.80648378       2.54722408       6.24866575       28       0.00302747      -0.00661427      -0.00080728
O        4.75081304       0.58024175      10.71125726       29       0.00302747       0.00661427       0.00080728
O        4.08217474       5.67468991       2.23129575       30      -0.00302747      -0.00661427       0.00080728
O        1.13784548       3.70770758      14.72862726       31      -0.00302747       0.00661427      -0.00080728
O        3.72503457       4.16828891      16.23853999       32      -0.00006316       0.00688489      -0.00476668
O        0.78070532       5.21410858       0.72138303       33      -0.00006316      -0.00688489       0.00476668
O        2.16362394       1.04082308       9.20134454       34       0.00006316       0.00688489       0.00476668
O        5.10795320       2.08664275       7.75857848       35       0.00006316      -0.00688489      -0.00476668
O        2.16362394       2.08664275       0.72138303       36       0.00006316      -0.00688489       0.00476668
O        5.10795320       1.04082308      16.23853999       37       0.00006316       0.00688489      -0.00476668
O        3.72503457       5.21410858       7.75857848       38      -0.00006316      -0.00688489      -0.00476668
O        0.78070532       4.16828891       9.20134454       39      -0.00006316       0.00688489       0.00476668
