40
Lattice="5.535693099277368 -1.043575180338097e-42 0.0 1.607802325585031e-42 5.739302291758542 0.0 0.0 0.0 15.975522864995286" Properties=species:S:1:pos:R:3:spacegroup_kinds:I:1:forces:R:3 spacegroup="P 1" unit_cell=conventional occupancy="_JSON {\"0\": {\"In\": 1}, \"1\": {\"In\": 1}, \"2\": {\"In\": 1}, \"3\": {\"In\": 1}, \"4\": {\"In\": 1}, \"5\": {\"In\": 1}, \"6\": {\"In\": 1}, \"7\": {\"In\": 1}, \"8\": {\"In\": 1}, \"9\": {\"In\": 1}, \"10\": {\"In\": 1}, \"11\": {\"In\": 1}, \"12\": {\"In\": 1}, \"13\": {\"In\": 1}, \"14\": {\"In\": 1}, \"15\": {\"In\": 1}, \"16\": {\"O\": 1}, \"17\": {\"O\": 1}, \"18\": {\"O\": 1}, \"19\": {\"O\": 1}, \"20\": {\"O\": 1}, \"21\": {\"O\": 1}, \"22\": {\"O\": 1}, \"23\": {\"O\": 1}, \"24\": {\"O\": 1}, \"25\": {\"O\": 1}, \"26\": {\"O\": 1}, \"27\": {\"O\": 1}, \"28\": {\"O\": 1}, \"29\": {\"O\": 1}, \"30\": {\"O\": 1}, \"31\": {\"O\": 1}, \"32\": {\"O\": 1}, \"33\": {\"O\": 1}, \"34\": {\"O\": 1}, \"35\": {\"O\": 1}, \"36\": {\"O\": 1}, \"37\": {\"O\": 1}, \"38\": {\"O\": 1}, \"39\": {\"O\": 1}}" n_minim_iter=14 energy=-45150.21547336772 stress="-0.013118716249824762 4.0801399769607463e-13 -1.0054539256315262e-13 4.0801399769607463e-13 -0.01303656827494335 9.906073638931965e-14 -1.0054539256315262e-13 9.906073638931965e-14 -0.013100168910961952" free_energy=-45150.21547336772 pbc="T T T"
In       2.75621622       4.61752646       9.12976753        0      -0.00172028      -0.00387065       0.00295534
In      -0.01163033       3.99142698       6.84575534        1      -0.00172028       0.00387065      -0.00295534
In       2.77947688       1.74787531      14.83351677        2       0.00172028      -0.00387065      -0.00295534
In       5.54732343       1.12177583       1.14200610        3       0.00172028       0.00387065       0.00295534
In       2.77947688       1.12177583       6.84575534        4       0.00172028       0.00387065      -0.00295534
In       5.54732343       1.74787531       9.12976753        5       0.00172028      -0.00387065       0.00295534
In       2.75621622       3.99142698       1.14200610        6      -0.00172028       0.00387065       0.00295534
In      -0.01163033       4.61752646      14.83351677        7      -0.00172028      -0.00387065      -0.00295534
In       2.75275289       4.32321355      13.07635145        8      -0.00344636      -0.00305588      -0.00042133
In       5.52059944       4.28573988       2.89917141        9      -0.00344636       0.00305588       0.00042133
In       2.78294021       1.45356241      10.88693284       10       0.00344636      -0.00305588       0.00042133
In       0.01509366       1.41608874       5.08859002       11       0.00344636       0.00305588      -0.00042133
In       2.78294021       1.41608874       2.89917141       12       0.00344636       0.00305588       0.00042133
In       0.01509366       1.45356241      13.07635145       13       0.00344636      -0.00305588      -0.00042133
In       2.75275289       4.28573988       5.08859002       14      -0.00344636       0.00305588      -0.00042133
In       5.52059944       4.32321355      10.88693284       15      -0.00344636      -0.00305588       0.00042133
O        4.75148875       5.10277987      12.75088465       16       0.00124106       0.00597582       0.00610912
O        1.98364220       3.50617357       3.22463822       17       0.00124106      -0.00597582      -0.00610912
O        0.78420435       2.23312872      11.21239965       18      -0.00124106       0.00597582      -0.00610912
O        3.55205090       0.63652242       4.76312321       19      -0.00124106      -0.00597582       0.00610912
O        0.78420435       0.63652242       3.22463822       20      -0.00124106      -0.00597582      -0.00610912
O        3.55205090       2.23312872      12.75088465       21      -0.00124106       0.00597582       0.00610912
O        4.75148875       3.50617357       4.76312321       22       0.00124106      -0.00597582       0.00610912
O        1.98364220       5.10277987      11.21239965       23       0.00124106       0.00597582      -0.00610912
O        3.91388817       3.05708291       9.97479643       24      -0.00014102      -0.00478107      -0.00284287
O        1.14604162       5.55187052       6.00072643       25      -0.00014102       0.00478107       0.00284287
O        1.62180493       0.18743177      13.98848786       26       0.00014102      -0.00478107       0.00284287
O        4.38965148       2.68221938       1.98703500       27       0.00014102       0.00478107      -0.00284287
O        1.62180493       2.68221938       6.00072643       28       0.00014102       0.00478107       0.00284287
O        4.38965148       0.18743177       9.97479643       29       0.00014102      -0.00478107      -0.00284287
O        3.91388817       5.55187052       1.98703500       30      -0.00014102       0.00478107      -0.00284287
O        1.14604162       3.05708291      13.98848786       31      -0.00014102      -0.00478107       0.00284287
O        3.56877005       3.81695352      15.14601307       32      -0.00378326       0.00455449       0.00391273
O        0.80092350       4.79199992       0.82950980       33      -0.00378326      -0.00455449      -0.00391273
O        1.96692305       0.94730237       8.81727123       34       0.00378326       0.00455449      -0.00391273
O        4.73476960       1.92234878       7.15825164       35       0.00378326      -0.00455449       0.00391273
O        1.96692305       1.92234878       0.82950980       36       0.00378326      -0.00455449      -0.00391273
O        4.73476960       0.94730237      15.14601307       37       0.00378326       0.00455449       0.00391273
O        3.56877005       4.79199992       7.15825164       38      -0.00378326      -0.00455449       0.00391273
O        0.80092350       3.81695352       8.81727123       39      -0.00378326       0.00455449      -0.00391273
