40
Lattice="5.888658516895763 2.230989084207566e-42 0.0 -2.3697560688666014e-42 6.254931660884102 0.0 0.0 0.0 16.959923015692976" Properties=species:S:1:pos:R:3:spacegroup_kinds:I:1:forces:R:3 spacegroup="P 1" unit_cell=conventional occupancy="_JSON {\"0\": {\"In\": 1}, \"1\": {\"In\": 1}, \"2\": {\"In\": 1}, \"3\": {\"In\": 1}, \"4\": {\"In\": 1}, \"5\": {\"In\": 1}, \"6\": {\"In\": 1}, \"7\": {\"In\": 1}, \"8\": {\"In\": 1}, \"9\": {\"In\": 1}, \"10\": {\"In\": 1}, \"11\": {\"In\": 1}, \"12\": {\"In\": 1}, \"13\": {\"In\": 1}, \"14\": {\"In\": 1}, \"15\": {\"In\": 1}, \"16\": {\"O\": 1}, \"17\": {\"O\": 1}, \"18\": {\"O\": 1}, \"19\": {\"O\": 1}, \"20\": {\"O\": 1}, \"21\": {\"O\": 1}, \"22\": {\"O\": 1}, \"23\": {\"O\": 1}, \"24\": {\"O\": 1}, \"25\": {\"O\": 1}, \"26\": {\"O\": 1}, \"27\": {\"O\": 1}, \"28\": {\"O\": 1}, \"29\": {\"O\": 1}, \"30\": {\"O\": 1}, \"31\": {\"O\": 1}, \"32\": {\"O\": 1}, \"33\": {\"O\": 1}, \"34\": {\"O\": 1}, \"35\": {\"O\": 1}, \"36\": {\"O\": 1}, \"37\": {\"O\": 1}, \"38\": {\"O\": 1}, \"39\": {\"O\": 1}}" n_minim_iter=1 energy=-45146.66606256692 stress="0.061224068170020025 3.672951441425863e-13 -2.383755356306677e-13 3.672951441425863e-13 0.05812482420499447 2.3263689889863995e-13 -2.383755356306677e-13 2.3263689889863995e-13 0.057121444452312105" free_energy=-45146.66606256692 pbc="T T T"
In       2.67705342       5.19815186       9.77121374        0       0.03616870       0.05298557       0.04565773
In      -0.26727584       4.18424563       7.18870927        1       0.03616870      -0.05298557      -0.04565773
In       3.21160509       2.07068603      15.66867078        2      -0.03616870       0.05298557      -0.04565773
In       6.15593435       1.05677980       1.29125223        3      -0.03616870      -0.05298557       0.04565773
In       3.21160509       1.05677980       7.18870927        4      -0.03616870      -0.05298557      -0.04565773
In       6.15593435       2.07068603       9.77121374        5      -0.03616870       0.05298557       0.04565773
In       2.67705342       4.18424563       1.29125223        6       0.03616870      -0.05298557       0.04565773
In      -0.26727584       5.19815186      15.66867078        7       0.03616870       0.05298557      -0.04565773
In       2.68903493       5.00628469      13.81736891        8       0.01792665       0.03703905      -0.04213370
In       5.63336419       4.37611280       3.14255411        9       0.01792665      -0.03703905       0.04213370
In       3.19962359       1.87881886      11.62251562       10      -0.01792665       0.03703905       0.04213370
In       0.25529433       1.24864697       5.33740740       11      -0.01792665      -0.03703905      -0.04213370
In       3.19962359       1.24864697       3.14255411       12      -0.01792665      -0.03703905       0.04213370
In       0.25529433       1.87881886      13.81736891       13      -0.01792665       0.03703905      -0.04213370
In       2.68903493       4.37611280       5.33740740       14       0.01792665      -0.03703905      -0.04213370
In       5.63336419       5.00628469      11.62251562       15       0.01792665       0.03703905       0.04213370
O        4.81126677       5.63404174      13.59021577       16      -0.00407294      -0.09726534      -0.00553373
O        1.86693751       3.74835575       3.36970725       17      -0.00407294       0.09726534       0.00553373
O        1.07739175       2.50657591      11.84966876       18       0.00407294      -0.09726534       0.00553373
O        4.02172101       0.62088992       5.11025426       19       0.00407294       0.09726534      -0.00553373
O        1.07739175       0.62088992       3.36970725       20       0.00407294       0.09726534       0.00553373
O        4.02172101       2.50657591      13.59021577       21       0.00407294      -0.09726534      -0.00553373
O        4.81126677       3.74835575       5.11025426       22      -0.00407294       0.09726534      -0.00553373
O        1.86693751       5.63404174      11.84966876       23      -0.00407294      -0.09726534       0.00553373
O        4.08217474       3.70770758      10.71125726       24      -0.02946996       0.11605972       0.06592498
O        1.13784548       5.67468991       6.24866575       25      -0.02946996      -0.11605972      -0.06592498
O        1.80648378       0.58024175      14.72862726       26       0.02946996       0.11605972      -0.06592498
O        4.75081304       2.54722408       2.23129575       27       0.02946996      -0.11605972       0.06592498
O        1.80648378       2.54722408       6.24866575       28       0.02946996      -0.11605972      -0.06592498
O        4.75081304       0.58024175      10.71125726       29       0.02946996       0.11605972       0.06592498
O        4.08217474       5.67468991       2.23129575       30      -0.02946996      -0.11605972       0.06592498
O        1.13784548       3.70770758      14.72862726       31      -0.02946996       0.11605972      -0.06592498
O        3.72503457       4.16828891      16.23853999       32      -0.03700211      -0.08210312       0.05089302
O        0.78070532       5.21410858       0.72138303       33      -0.03700211       0.08210312      -0.05089302
O        2.16362394       1.04082308       9.20134454       34       0.03700211      -0.08210312      -0.05089302
O        5.10795320       2.08664275       7.75857848       35       0.03700211       0.08210312       0.05089302
O        2.16362394       2.08664275       0.72138303       36       0.03700211       0.08210312      -0.05089302
O        5.10795320       1.04082308      16.23853999       37       0.03700211      -0.08210312       0.05089302
O        3.72503457       5.21410858       7.75857848       38      -0.03700211       0.08210312       0.05089302
O        0.78070532       4.16828891       9.20134454       39      -0.03700211      -0.08210312      -0.05089302
40
Lattice="5.871368354331079 2.226002721510484e-42 0.0 -2.3700779305019995e-42 6.2602865129553535 0.0 0.0 0.0 16.995317345624848" Properties=species:S:1:pos:R:3:spacegroup_kinds:I:1:forces:R:3 spacegroup="P 1" unit_cell=conventional occupancy="_JSON {\"0\": {\"In\": 1}, \"1\": {\"In\": 1}, \"2\": {\"In\": 1}, \"3\": {\"In\": 1}, \"4\": {\"In\": 1}, \"5\": {\"In\": 1}, \"6\": {\"In\": 1}, \"7\": {\"In\": 1}, \"8\": {\"In\": 1}, \"9\": {\"In\": 1}, \"10\": {\"In\": 1}, \"11\": {\"In\": 1}, \"12\": {\"In\": 1}, \"13\": {\"In\": 1}, \"14\": {\"In\": 1}, \"15\": {\"In\": 1}, \"16\": {\"O\": 1}, \"17\": {\"O\": 1}, \"18\": {\"O\": 1}, \"19\": {\"O\": 1}, \"20\": {\"O\": 1}, \"21\": {\"O\": 1}, \"22\": {\"O\": 1}, \"23\": {\"O\": 1}, \"24\": {\"O\": 1}, \"25\": {\"O\": 1}, \"26\": {\"O\": 1}, \"27\": {\"O\": 1}, \"28\": {\"O\": 1}, \"29\": {\"O\": 1}, \"30\": {\"O\": 1}, \"31\": {\"O\": 1}, \"32\": {\"O\": 1}, \"33\": {\"O\": 1}, \"34\": {\"O\": 1}, \"35\": {\"O\": 1}, \"36\": {\"O\": 1}, \"37\": {\"O\": 1}, \"38\": {\"O\": 1}, \"39\": {\"O\": 1}}" n_minim_iter=2 energy=-45146.669932491466 stress="0.05794124558209887 2.3750184176192865e-13 3.589403132293599e-13 2.3750184176192865e-13 0.05862049789561128 7.076326736801948e-13 3.589403132293599e-13 7.076326736801948e-13 0.058262316016407786" free_energy=-45146.669932491466 pbc="T T T"
In       2.66926382       5.20270599       9.79169538        0       0.05136041       0.07356192       0.03650001
In      -0.26642035       4.18772378       7.20362196        1       0.05136041      -0.07356192      -0.03650001
In       3.20210453       2.07256273      15.70128063        2      -0.05136041       0.07356192      -0.03650001
In       6.13778871       1.05758052       1.29403671        3      -0.05136041      -0.07356192       0.03650001
In       3.20210453       1.05758052       7.20362196        4      -0.05136041      -0.07356192      -0.03650001
In       6.13778871       2.07256273       9.79169538        5      -0.05136041       0.07356192       0.03650001
In       2.66926382       4.18772378       1.29403671        6       0.05136041      -0.07356192       0.03650001
In      -0.26642035       5.20270599      15.70128063        7       0.05136041       0.07356192      -0.03650001
In       2.68117449       5.01064326      13.84612213        8      -0.00696907       0.03406960      -0.05188440
In       5.61685866       4.37978651       3.14919522        9      -0.00696907      -0.03406960       0.05188440
In       3.19019387       1.88050001      11.64685389       10       0.00696907       0.03406960       0.05188440
In       0.25450969       1.24964325       5.34846345       11       0.00696907      -0.03406960      -0.05188440
In       3.19019387       1.24964325       3.14919522       12       0.00696907      -0.03406960       0.05188440
In       0.25450969       1.88050001      13.84612213       13       0.00696907       0.03406960      -0.05188440
In       2.68117449       4.37978651       5.34846345       14      -0.00696907      -0.03406960      -0.05188440
In       5.61685866       5.01064326      11.64685389       15      -0.00696907       0.03406960       0.05188440
O        4.79713206       5.63867417      13.61856685       16       0.01250574      -0.09528946      -0.02119703
O        1.86144788       3.75175560       3.37675050       17       0.01250574       0.09528946       0.02119703
O        1.07423630       2.50853091      11.87440917       18      -0.01250574      -0.09528946       0.02119703
O        4.00992047       0.62161234       5.12090817       19      -0.01250574       0.09528946      -0.02119703
O        1.07423630       0.62161234       3.37675050       20      -0.01250574       0.09528946       0.02119703
O        4.00992047       2.50853091      13.61856685       21      -0.01250574      -0.09528946      -0.02119703
O        4.79713206       3.75175560       5.12090817       22       0.01250574       0.09528946      -0.02119703
O        1.86144788       5.63867417      11.87440917       23       0.01250574      -0.09528946       0.02119703
O        4.07013112       3.71110952      10.73374054       24      -0.03031909       0.10509621       0.08265153
O        1.13444695       5.67932025       6.26157680       25      -0.03031909      -0.10509621      -0.08265153
O        1.80123723       0.58096626      14.75923548       26       0.03031909       0.10509621      -0.08265153
O        4.73692141       2.54917700       2.23608187       27       0.03031909      -0.10509621       0.08265153
O        1.80123723       2.54917700       6.26157680       28       0.03031909      -0.10509621      -0.08265153
O        4.73692141       0.58096626      10.73374054       29       0.03031909       0.10509621       0.08265153
O        4.07013112       5.67932025       2.23608187       30      -0.03031909      -0.10509621       0.08265153
O        1.13444695       3.71110952      14.75923548       31      -0.03031909       0.10509621      -0.08265153
O        3.71402486       4.17169626      16.27252883       32      -0.04327324      -0.08933745       0.06325193
O        0.77834068       5.21873351       0.72278851       33      -0.04327324       0.08933745      -0.06325193
O        2.15734349       1.04155300       9.22044719       34       0.04327324      -0.08933745      -0.06325193
O        5.09302767       2.08859026       7.77487016       35       0.04327324       0.08933745       0.06325193
O        2.15734349       2.08859026       0.72278851       36       0.04327324       0.08933745      -0.06325193
O        5.09302767       1.04155300      16.27252883       37       0.04327324      -0.08933745       0.06325193
O        3.71402486       5.21873351       7.77487016       38      -0.04327324       0.08933745       0.06325193
O        0.77834068       4.17169626       9.22044719       39      -0.04327324      -0.08933745      -0.06325193
40
Lattice="5.872002908524269 2.2268772947107813e-42 0.0 -2.3640548033237192e-42 6.246178604661131 0.0 0.0 0.0 17.03186302036601" Properties=species:S:1:pos:R:3:spacegroup_kinds:I:1:forces:R:3 spacegroup="P 1" unit_cell=conventional occupancy="_JSON {\"0\": {\"In\": 1}, \"1\": {\"In\": 1}, \"2\": {\"In\": 1}, \"3\": {\"In\": 1}, \"4\": {\"In\": 1}, \"5\": {\"In\": 1}, \"6\": {\"In\": 1}, \"7\": {\"In\": 1}, \"8\": {\"In\": 1}, \"9\": {\"In\": 1}, \"10\": {\"In\": 1}, \"11\": {\"In\": 1}, \"12\": {\"In\": 1}, \"13\": {\"In\": 1}, \"14\": {\"In\": 1}, \"15\": {\"In\": 1}, \"16\": {\"O\": 1}, \"17\": {\"O\": 1}, \"18\": {\"O\": 1}, \"19\": {\"O\": 1}, \"20\": {\"O\": 1}, \"21\": {\"O\": 1}, \"22\": {\"O\": 1}, \"23\": {\"O\": 1}, \"24\": {\"O\": 1}, \"25\": {\"O\": 1}, \"26\": {\"O\": 1}, \"27\": {\"O\": 1}, \"28\": {\"O\": 1}, \"29\": {\"O\": 1}, \"30\": {\"O\": 1}, \"31\": {\"O\": 1}, \"32\": {\"O\": 1}, \"33\": {\"O\": 1}, \"34\": {\"O\": 1}, \"35\": {\"O\": 1}, \"36\": {\"O\": 1}, \"37\": {\"O\": 1}, \"38\": {\"O\": 1}, \"39\": {\"O\": 1}}" n_minim_iter=3 energy=-45146.6748644203 stress="0.05784498956057258 -9.570022497340113e-14 -4.734027408123848e-13 -9.570022497340113e-14 0.056181500465448286 -7.029983284155009e-14 -4.734027408123848e-13 -7.029983284155009e-14 0.0590547058345535" free_energy=-45146.6748644203 pbc="T T T"
In       2.67035241       5.19213526       9.81336451        0       0.04073420       0.05035277       0.02837979
In      -0.26564904       4.17713265       7.21849851        1       0.04073420      -0.05035277      -0.02837979
In       3.20165049       2.06904596      15.73443002        2      -0.04073420       0.05035277      -0.02837979
In       6.13765195       1.05404335       1.29743300        3      -0.04073420      -0.05035277       0.02837979
In       3.20165049       1.05404335       7.21849851        4      -0.04073420      -0.05035277      -0.02837979
In       6.13765195       2.06904596       9.81336451        5      -0.04073420       0.05035277       0.02837979
In       2.67035241       4.17713265       1.29743300        6       0.04073420      -0.05035277       0.02837979
In      -0.26564904       5.19213526      15.73443002        7       0.04073420       0.05035277      -0.02837979
In       2.68139932       4.99990981      13.87506745        8      -0.00672199       0.03299033      -0.06853291
In       5.61740078       4.36935809       3.15679557        9      -0.00672199      -0.03299033       0.06853291
In       3.19060359       1.87682051      11.67272708       10       0.00672199       0.03299033       0.06853291
In       0.25460213       1.24626879       5.35913594       11       0.00672199      -0.03299033      -0.06853291
In       3.19060359       1.24626879       3.15679557       12       0.00672199      -0.03299033       0.06853291
In       0.25460213       1.87682051      13.87506745       13       0.00672199       0.03299033      -0.06853291
In       2.68139932       4.36935809       5.35913594       14      -0.00672199      -0.03299033      -0.06853291
In       5.61740078       4.99990981      11.67272708       15      -0.00672199       0.03299033       0.06853291
O        4.79782072       5.62441764      13.64753536       16       0.01686345      -0.08399277      -0.02822969
O        1.86181927       3.74485026       3.38432766       17       0.01686345       0.08399277       0.02822969
O        1.07418219       2.50132834      11.90025917       18      -0.01686345      -0.08399277       0.02822969
O        4.01018364       0.62176096       5.13160385       19      -0.01686345       0.08399277      -0.02822969
O        1.07418219       0.62176096       3.38432766       20      -0.01686345       0.08399277       0.02822969
O        4.01018364       2.50132834      13.64753536       21      -0.01686345      -0.08399277      -0.02822969
O        4.79782072       3.74485026       5.13160385       22       0.01686345       0.08399277      -0.02822969
O        1.86181927       5.62441764      11.90025917       23       0.01686345      -0.08399277       0.02822969
O        4.07008317       3.70447205      10.75813923       24      -0.02294407       0.09346317       0.08456722
O        1.13408172       5.66479586       6.27372379       25      -0.02294407      -0.09346317      -0.08456722
O        1.80191973       0.58138275      14.78965530       26       0.02294407       0.09346317      -0.08456722
O        4.73792119       2.54170656       2.24220772       27       0.02294407      -0.09346317       0.08456722
O        1.80191973       2.54170656       6.27372379       28       0.02294407      -0.09346317      -0.08456722
O        4.73792119       0.58138275      10.75813923       29       0.02294407       0.09346317       0.08456722
O        4.07008317       5.66479586       2.24220772       30      -0.02294407      -0.09346317       0.08456722
O        1.13408172       3.70447205      14.78965530       31      -0.02294407       0.09346317      -0.08456722
O        3.71373966       4.16085982      16.30852940       32      -0.02853106      -0.05220479       0.06291544
O        0.77773821       5.20840809       0.72333362       33      -0.02853106       0.05220479      -0.06291544
O        2.15826325       1.03777052       9.23926513       34       0.02853106      -0.05220479      -0.06291544
O        5.09426470       2.08531878       7.79259789       35       0.02853106       0.05220479       0.06291544
O        2.15826325       2.08531878       0.72333362       36       0.02853106       0.05220480      -0.06291544
O        5.09426470       1.03777052      16.30852940       37       0.02853106      -0.05220479       0.06291544
O        3.71373966       5.20840809       7.79259789       38      -0.02853106       0.05220479       0.06291544
O        0.77773821       4.16085982       9.23926513       39      -0.02853106      -0.05220479      -0.06291544
40
Lattice="5.858494242954709 2.220928617282359e-42 0.0 -2.3655628676549666e-42 6.267900121051791 0.0 0.0 0.0 17.01197520914671" Properties=species:S:1:pos:R:3:spacegroup_kinds:I:1:forces:R:3 spacegroup="P 1" unit_cell=conventional occupancy="_JSON {\"0\": {\"In\": 1}, \"1\": {\"In\": 1}, \"2\": {\"In\": 1}, \"3\": {\"In\": 1}, \"4\": {\"In\": 1}, \"5\": {\"In\": 1}, \"6\": {\"In\": 1}, \"7\": {\"In\": 1}, \"8\": {\"In\": 1}, \"9\": {\"In\": 1}, \"10\": {\"In\": 1}, \"11\": {\"In\": 1}, \"12\": {\"In\": 1}, \"13\": {\"In\": 1}, \"14\": {\"In\": 1}, \"15\": {\"In\": 1}, \"16\": {\"O\": 1}, \"17\": {\"O\": 1}, \"18\": {\"O\": 1}, \"19\": {\"O\": 1}, \"20\": {\"O\": 1}, \"21\": {\"O\": 1}, \"22\": {\"O\": 1}, \"23\": {\"O\": 1}, \"24\": {\"O\": 1}, \"25\": {\"O\": 1}, \"26\": {\"O\": 1}, \"27\": {\"O\": 1}, \"28\": {\"O\": 1}, \"29\": {\"O\": 1}, \"30\": {\"O\": 1}, \"31\": {\"O\": 1}, \"32\": {\"O\": 1}, \"33\": {\"O\": 1}, \"34\": {\"O\": 1}, \"35\": {\"O\": 1}, \"36\": {\"O\": 1}, \"37\": {\"O\": 1}, \"38\": {\"O\": 1}, \"39\": {\"O\": 1}}" n_minim_iter=4 energy=-45146.69565998633 stress="0.053046773544644994 2.5868429724065096e-13 4.920856782744379e-13 2.5868429724065096e-13 0.053838954151575025 -5.2981197857808015e-14 4.920856782744379e-13 -5.2981197857808015e-14 0.052721088192363874" free_energy=-45146.69565998633 pbc="T T T"
In       2.67059198       5.21928619       9.80677226        0      -0.06107486      -0.03149060      -0.02734230
In      -0.25865514       4.18256399       7.20520295        1      -0.06107486       0.03149060       0.02734230
In       3.18790226       2.08533613      15.71119056        2       0.06107486      -0.03149060       0.02734230
In       6.11714938       1.04861393       1.30078465        3       0.06107486       0.03149060      -0.02734230
In       3.18790226       1.04861393       7.20520295        4       0.06107486       0.03149060       0.02734230
In       6.11714938       2.08533613       9.80677226        5       0.06107486      -0.03149060      -0.02734230
In       2.67059198       4.18256399       1.30078465        6      -0.06107486       0.03149060      -0.02734230
In      -0.25865514       5.21928619      15.71119056        7      -0.06107486      -0.03149060       0.02734230
In       2.67466144       5.02187897      13.85170440        8       0.00997132       0.00120842       0.03205941
In       5.60390856       4.37997121       3.16027080        9       0.00997132      -0.00120842      -0.03205941
In       3.18383281       1.88792891      11.66625841       10      -0.00997132       0.00120842      -0.03205941
In       0.25458568       1.24602115       5.34571680       11      -0.00997132      -0.00120842       0.03205941
In       3.18383281       1.24602115       3.16027080       12      -0.00997132      -0.00120842      -0.03205941
In       0.25458568       1.88792891      13.85170440       13      -0.00997132       0.00120842       0.03205941
In       2.67466144       4.37997121       5.34571680       14       0.00997132      -0.00120842       0.03205941
In       5.60390856       5.02187897      11.66625841       15       0.00997132       0.00120842      -0.03205941
O        4.78829388       5.63141702      13.62883424       16       0.00467393       0.00477400       0.02311175
O        1.85904675       3.77043316       3.38314097       17       0.00467393      -0.00477400      -0.02311175
O        1.07020037       2.49746696      11.88912857       18      -0.00467393       0.00477400      -0.02311175
O        3.99944749       0.63648310       5.12284664       19      -0.00467393      -0.00477400       0.02311175
O        1.07020037       0.63648310       3.38314097       20      -0.00467393      -0.00477400      -0.02311175
O        3.99944749       2.49746696      13.62883424       21      -0.00467393       0.00477400       0.02311175
O        4.78829388       3.77043316       5.12284664       22       0.00467393      -0.00477400       0.02311175
O        1.85904675       5.63141702      11.88912857       23       0.00467393       0.00477400      -0.02311175
O        4.05685984       3.73134776      10.75647461       24       0.01239923       0.01964213       0.09088760
O        1.12761272       5.67050242       6.25550060       25       0.01239923      -0.01964213      -0.09088760
O        1.80163441       0.59739770      14.76148820       26      -0.01239923       0.01964213      -0.09088760
O        4.73088153       2.53655236       2.25048701       27      -0.01239923      -0.01964213       0.09088760
O        1.80163441       2.53655236       6.25550060       28      -0.01239923      -0.01964213      -0.09088760
O        4.73088153       0.59739770      10.75647461       29      -0.01239923       0.01964213       0.09088760
O        4.05685984       5.67050242       2.25048701       30       0.01239923      -0.01964213       0.09088760
O        1.12761272       3.73134776      14.76148820       31       0.01239923       0.01964213      -0.09088760
O        3.69984116       4.16421151      16.29779596       32       0.09405869       0.07832928      -0.00988951
O        0.77059404       5.23763867       0.71417925       33       0.09405869      -0.07832928       0.00988951
O        2.15865308       1.03026145       9.22016685       34      -0.09405869       0.07832929       0.00988951
O        5.08790020       2.10368861       7.79180836       35      -0.09405869      -0.07832928      -0.00988951
O        2.15865308       2.10368861       0.71417925       36      -0.09405869      -0.07832928       0.00988951
O        5.08790020       1.03026145      16.29779596       37      -0.09405869       0.07832928      -0.00988951
O        3.69984116       5.23763867       7.79180836       38       0.09405869      -0.07832929      -0.00988951
O        0.77059404       4.16421151       9.22016685       39       0.09405869       0.07832929       0.00988951
40
Lattice="5.86130911174962 2.2224006186983207e-42 0.0 -2.366606365098225e-42 6.261759517574152 0.0 0.0 0.0 17.020480086446124" Properties=species:S:1:pos:R:3:spacegroup_kinds:I:1:forces:R:3 spacegroup="P 1" unit_cell=conventional occupancy="_JSON {\"0\": {\"In\": 1}, \"1\": {\"In\": 1}, \"2\": {\"In\": 1}, \"3\": {\"In\": 1}, \"4\": {\"In\": 1}, \"5\": {\"In\": 1}, \"6\": {\"In\": 1}, \"7\": {\"In\": 1}, \"8\": {\"In\": 1}, \"9\": {\"In\": 1}, \"10\": {\"In\": 1}, \"11\": {\"In\": 1}, \"12\": {\"In\": 1}, \"13\": {\"In\": 1}, \"14\": {\"In\": 1}, \"15\": {\"In\": 1}, \"16\": {\"O\": 1}, \"17\": {\"O\": 1}, \"18\": {\"O\": 1}, \"19\": {\"O\": 1}, \"20\": {\"O\": 1}, \"21\": {\"O\": 1}, \"22\": {\"O\": 1}, \"23\": {\"O\": 1}, \"24\": {\"O\": 1}, \"25\": {\"O\": 1}, \"26\": {\"O\": 1}, \"27\": {\"O\": 1}, \"28\": {\"O\": 1}, \"29\": {\"O\": 1}, \"30\": {\"O\": 1}, \"31\": {\"O\": 1}, \"32\": {\"O\": 1}, \"33\": {\"O\": 1}, \"34\": {\"O\": 1}, \"35\": {\"O\": 1}, \"36\": {\"O\": 1}, \"37\": {\"O\": 1}, \"38\": {\"O\": 1}, \"39\": {\"O\": 1}}" n_minim_iter=5 energy=-45146.69914228071 stress="0.05388623973815057 -5.688921844740844e-13 3.729478510565641e-14 -5.688921844740844e-13 0.05383831265307928 6.634032545093789e-13 3.729478510565641e-14 6.634032545093789e-13 0.05390252503804447" free_energy=-45146.69914228071 pbc="T T T"
In       2.67036519       5.21262171       9.81073562        0      -0.03680549      -0.01566870      -0.01504450
In      -0.26028936       4.18001756       7.20974446        1      -0.03680549       0.01566870       0.01504450
In       3.19094392       2.08174195      15.71998451        2       0.03680549      -0.01566870       0.01504450
In       6.12159848       1.04913781       1.30049558        3       0.03680549       0.01566870      -0.01504450
In       3.19094392       1.04913781       7.20974446        4       0.03680549       0.01566870       0.01504450
In       6.12159848       2.08174195       9.81073562        5       0.03680549      -0.01566870      -0.01504450
In       2.67036519       4.18001756       1.30049558        6      -0.03680549       0.01566870      -0.01504450
In      -0.26028936       5.21262171      15.71998451        7      -0.03680549      -0.01566870       0.01504450
In       2.67612834       5.01641085      13.85981384        8       0.00906026       0.00842846       0.00591857
In       5.60678289       4.37622843       3.16066625        9       0.00906026      -0.00842846      -0.00591857
In       3.18518077       1.88553109      11.67090629       10      -0.00906026       0.00842846      -0.00591857
In       0.25452622       1.24534867       5.34957379       11      -0.00906026      -0.00842846       0.00591857
In       3.18518077       1.24534867       3.16066625       12      -0.00906026      -0.00842846      -0.00591857
In       0.25452622       1.88553109      13.85981384       13      -0.00906026       0.00842846       0.00591857
In       2.67612834       4.37622843       5.34957379       14       0.00906026      -0.00842846       0.00591857
In       5.60678289       5.01641085      11.67090629       15       0.00906026       0.00842846      -0.00591857
O        4.79048017       5.62752498      13.63622628       16       0.00635599      -0.00817604       0.01305352
O        1.85982561       3.76511430       3.38425381       17       0.00635599       0.00817604      -0.01305352
O        1.07082894       2.49664522      11.89449385       18      -0.00635599      -0.00817604      -0.01305352
O        4.00148350       0.63423454       5.12598623       19      -0.00635599       0.00817604       0.01305352
O        1.07082894       0.63423454       3.38425381       20      -0.00635599       0.00817604      -0.01305352
O        4.00148350       2.49664522      13.63622628       21      -0.00635599      -0.00817604       0.01305352
O        4.79048017       3.76511430       5.12598623       22       0.00635599       0.00817604       0.01305352
O        1.85982561       5.62752498      11.89449385       23       0.00635599      -0.00817604      -0.01305352
O        4.05944666       3.72617248      10.76158483       24       0.00773376       0.02811644       0.07882189
O        1.12879210       5.66646680       6.25889525       25       0.00773376      -0.02811644      -0.07882189
O        1.80186245       0.59529272      14.76913530       26      -0.00773376       0.02811644      -0.07882189
O        4.73251701       2.53558704       2.25134479       27      -0.00773376      -0.02811644       0.07882189
O        1.80186245       2.53558704       6.25889525       28      -0.00773376      -0.02811644      -0.07882189
O        4.73251701       0.59529272      10.76158483       29      -0.00773376       0.02811644       0.07882189
O        4.05944666       5.66646680       2.25134479       30       0.00773376      -0.02811644       0.07882189
O        1.12879210       3.72617248      14.76913530       31       0.00773376       0.02811644      -0.07882189
O        3.70339438       4.16252016      16.30481628       32       0.06236969       0.05029140       0.00664035
O        0.77273982       5.23011912       0.71566381       33       0.06236969      -0.05029140      -0.00664035
O        2.15791474       1.03164040       9.22590385       34      -0.06236969       0.05029140      -0.00664035
O        5.08856929       2.09923936       7.79457624       35      -0.06236969      -0.05029140       0.00664035
O        2.15791474       2.09923936       0.71566381       36      -0.06236969      -0.05029140      -0.00664035
O        5.08856929       1.03164040      16.30481628       37      -0.06236969       0.05029140       0.00664035
O        3.70339438       5.23011912       7.79457624       38       0.06236969      -0.05029140       0.00664035
O        0.77273982       4.16252016       9.22590385       39       0.06236969       0.05029140      -0.00664035
40