40
Lattice="5.683844095217197 -6.276858308432342e-43 0.0 2.996271461318043e-42 5.851478877809309 0.0 0.0 0.0 16.434748799398346" Properties=species:S:1:pos:R:3:spacegroup_kinds:I:1:forces:R:3 spacegroup="P 1" unit_cell=conventional occupancy="_JSON {\"0\": {\"In\": 1}, \"1\": {\"In\": 1}, \"2\": {\"In\": 1}, \"3\": {\"In\": 1}, \"4\": {\"In\": 1}, \"5\": {\"In\": 1}, \"6\": {\"In\": 1}, \"7\": {\"In\": 1}, \"8\": {\"In\": 1}, \"9\": {\"In\": 1}, \"10\": {\"In\": 1}, \"11\": {\"In\": 1}, \"12\": {\"In\": 1}, \"13\": {\"In\": 1}, \"14\": {\"In\": 1}, \"15\": {\"In\": 1}, \"16\": {\"O\": 1}, \"17\": {\"O\": 1}, \"18\": {\"O\": 1}, \"19\": {\"O\": 1}, \"20\": {\"O\": 1}, \"21\": {\"O\": 1}, \"22\": {\"O\": 1}, \"23\": {\"O\": 1}, \"24\": {\"O\": 1}, \"25\": {\"O\": 1}, \"26\": {\"O\": 1}, \"27\": {\"O\": 1}, \"28\": {\"O\": 1}, \"29\": {\"O\": 1}, \"30\": {\"O\": 1}, \"31\": {\"O\": 1}, \"32\": {\"O\": 1}, \"33\": {\"O\": 1}, \"34\": {\"O\": 1}, \"35\": {\"O\": 1}, \"36\": {\"O\": 1}, \"37\": {\"O\": 1}, \"38\": {\"O\": 1}, \"39\": {\"O\": 1}}" n_minim_iter=13 energy=-45150.22001941128 stress="0.011993780761989028 1.1371277677798896e-12 3.6961370389334214e-13 1.1371277677798896e-12 0.012008479806934154 2.4344110133068607e-13 3.6961370389334214e-13 2.4344110133068607e-13 0.011903243082471829" free_energy=-45150.22001941128 pbc="T T T"
In       2.83717139       4.67173920       9.37718632        0      -0.00242290      -0.00611251       0.00099769
In      -0.00475066       4.10547912       7.05756247        1      -0.00242290       0.00611251      -0.00099769
In       2.84667271       1.74599976      15.27493687        2       0.00242290      -0.00611251      -0.00099769
In       5.68859476       1.17973968       1.15981192        3       0.00242290       0.00611251       0.00099769
In       2.84667271       1.17973968       7.05756247        4       0.00242290       0.00611251      -0.00099769
In       5.68859476       1.74599976       9.37718632        5       0.00242290      -0.00611251       0.00099769
In       2.83717139       4.10547912       1.15981192        6      -0.00242290       0.00611251       0.00099769
In      -0.00475066       4.67173920      15.27493687        7      -0.00242290      -0.00611251      -0.00099769
In       2.82407291       4.36931281      13.44575156        8      -0.00437921      -0.00029966       0.00026474
In       5.66599495       4.40790551       2.98899724        9      -0.00437921       0.00029966      -0.00026474
In       2.85977119       1.44357337      11.20637164       10       0.00437921      -0.00029966      -0.00026474
In       0.01784914       1.48216607       5.22837716       11       0.00437921       0.00029966       0.00026474
In       2.85977119       1.48216607       2.98899724       12       0.00437921       0.00029966      -0.00026474
In       0.01784914       1.44357337      13.44575156       13       0.00437921      -0.00029966       0.00026474
In       2.82407291       4.40790551       5.22837716       14      -0.00437921       0.00029966       0.00026474
In       5.66599495       4.36931281      11.20637164       15      -0.00437921      -0.00029966      -0.00026474
O        4.88251049       5.14520503      13.11797363       16       0.00013092       0.00286069       0.00472769
O        2.04058844       3.63201329       3.31677517       17       0.00013092      -0.00286069      -0.00472769
O        0.80133361       2.21946559      11.53414957       18      -0.00013092       0.00286069      -0.00472769
O        3.64325565       0.70627385       4.90059923       19      -0.00013092      -0.00286069       0.00472769
O        0.80133361       0.70627385       3.31677517       20      -0.00013092      -0.00286069      -0.00472769
O        3.64325565       2.21946559      13.11797363       21      -0.00013092       0.00286069       0.00472769
O        4.88251049       3.63201329       4.90059923       22       0.00013092      -0.00286069       0.00472769
O        2.04058844       5.14520503      11.53414957       23       0.00013092       0.00286069      -0.00472769
O        4.01374003       3.08304226      10.26189032       24      -0.00194178      -0.00229117      -0.00146434
O        1.17181798       5.69417606       6.17285848       25      -0.00194178       0.00229117       0.00146434
O        1.67010407       0.15730282      14.39023288       26       0.00194178      -0.00229117       0.00146434
O        4.51202611       2.76843662       2.04451592       27       0.00194178       0.00229117      -0.00146434
O        1.67010407       2.76843662       6.17285848       28       0.00194178       0.00229117       0.00146434
O        4.51202611       0.15730282      10.26189032       29       0.00194178      -0.00229117      -0.00146434
O        4.01374003       5.69417606       2.04451592       30      -0.00194178       0.00229117      -0.00146434
O        1.17181798       3.08304226      14.39023288       31      -0.00194178      -0.00229117       0.00146434
O        3.67586783       3.86422777      15.58111258       32      -0.00128296       0.00143733      -0.00251957
O        0.83394578       4.91299055       0.85363622       33      -0.00128296      -0.00143733       0.00251957
O        2.00797627       0.93848833       9.07101062       34       0.00128296       0.00143733       0.00251957
O        4.84989831       1.98725111       7.36373818       35       0.00128296      -0.00143733      -0.00251957
O        2.00797627       1.98725111       0.85363622       36       0.00128296      -0.00143733       0.00251957
O        4.84989831       0.93848833      15.58111258       37       0.00128296       0.00143733      -0.00251957
O        3.67586783       4.91299055       7.36373818       38      -0.00128296      -0.00143733      -0.00251957
O        0.83394578       3.86422777       9.07101062       39      -0.00128296       0.00143733       0.00251957
