40
Lattice="5.177569175537063 -4.615592052805558e-42 -7.140832517953702e-76 2.6424522222675817e-42 5.468645861434803 -4.963902213255884e-33 8.213465533893796e-80 -2.0441766902971716e-32 13.789138161495101" Properties=species:S:1:pos:R:3:spacegroup_kinds:I:1:forces:R:3 spacegroup="P 1" unit_cell=conventional occupancy="_JSON {\"0\": {\"In\": 1}, \"1\": {\"In\": 1}, \"2\": {\"In\": 1}, \"3\": {\"In\": 1}, \"4\": {\"In\": 1}, \"5\": {\"In\": 1}, \"6\": {\"In\": 1}, \"7\": {\"In\": 1}, \"8\": {\"In\": 1}, \"9\": {\"In\": 1}, \"10\": {\"In\": 1}, \"11\": {\"In\": 1}, \"12\": {\"In\": 1}, \"13\": {\"In\": 1}, \"14\": {\"In\": 1}, \"15\": {\"In\": 1}, \"16\": {\"O\": 1}, \"17\": {\"O\": 1}, \"18\": {\"O\": 1}, \"19\": {\"O\": 1}, \"20\": {\"O\": 1}, \"21\": {\"O\": 1}, \"22\": {\"O\": 1}, \"23\": {\"O\": 1}, \"24\": {\"O\": 1}, \"25\": {\"O\": 1}, \"26\": {\"O\": 1}, \"27\": {\"O\": 1}, \"28\": {\"O\": 1}, \"29\": {\"O\": 1}, \"30\": {\"O\": 1}, \"31\": {\"O\": 1}, \"32\": {\"O\": 1}, \"33\": {\"O\": 1}, \"34\": {\"O\": 1}, \"35\": {\"O\": 1}, \"36\": {\"O\": 1}, \"37\": {\"O\": 1}, \"38\": {\"O\": 1}, \"39\": {\"O\": 1}}" n_minim_iter=34 energy=-45134.544471952206 stress="-0.3599098643226607 3.310095500996273e-13 -3.697203022091515e-13 3.310095500996273e-13 -0.36000700545788616 2.517967246352994e-12 -3.697203022091515e-13 2.517967246352994e-12 -0.3600370824294062" free_energy=-45134.544471952206 pbc="T T T"
In       2.82817498       3.84698405       7.55417595        0      -0.00520139       0.00513419      -0.00360252
In       0.23939039       4.35598474       6.23496221        1      -0.00520139      -0.00513419       0.00360252
In       2.34939420       1.11266112      13.12953129        2       0.00520139       0.00513419       0.00360252
In       4.93817878       1.62166181       0.65960687        3       0.00520139      -0.00513419      -0.00360252
In       2.34939420       1.62166181       6.23496221        4       0.00520139      -0.00513419       0.00360252
In       4.93817878       1.11266112       7.55417595        5       0.00520139       0.00513419      -0.00360252
In       2.82817498       4.35598474       0.65960687        6      -0.00520139      -0.00513419      -0.00360252
In       0.23939039       3.84698405      13.12953129        7      -0.00520139       0.00513419       0.00360252
In       2.70507644       3.14439338      11.20542025        8      -0.00237524      -0.00263426      -0.00165792
In       5.29386102       5.05857541       2.58371791        9      -0.00237524       0.00263426       0.00165792
In       2.47249274       0.41007045       9.47828699       10       0.00237524      -0.00263426       0.00165792
In      -0.11629185       2.32425248       4.31085117       11       0.00237524       0.00263426      -0.00165792
In       2.47249274       2.32425248       2.58371791       12       0.00237524       0.00263426       0.00165792
In      -0.11629185       0.41007045      11.20542025       13       0.00237524      -0.00263426      -0.00165792
In       2.70507644       5.05857541       4.31085117       14      -0.00237524       0.00263426      -0.00165792
In       5.29386102       3.14439338       9.47828699       15      -0.00237524      -0.00263426       0.00165792
O        4.56450103       3.92331329      11.15676151       16       0.00082007      -0.00169289      -0.00171011
O        1.97571645       4.27965550       2.63237665       17       0.00082007       0.00169289       0.00171011
O        0.61306814       1.18899036       9.52694573       18      -0.00082007      -0.00169289       0.00171011
O        3.20185273       1.54533257       4.26219243       19      -0.00082007       0.00169289      -0.00171011
O        0.61306814       1.54533257       2.63237665       20      -0.00082007       0.00169289       0.00171011
O        3.20185273       1.18899036      11.15676151       21      -0.00082007      -0.00169289      -0.00171011
O        4.56450103       4.27965550       4.26219243       22       0.00082007       0.00169289      -0.00171011
O        1.97571645       3.92331329       9.52694573       23       0.00082007      -0.00169289       0.00171011
O        3.40819027       2.10256104       8.65420168       24       0.00531331       0.00135767       0.00178323
O        0.81940568       6.10040775       5.13493648       25       0.00531331      -0.00135767      -0.00178323
O        1.76937890      -0.63176189      12.02950556       26      -0.00531331       0.00135767      -0.00178323
O        4.35816349       3.36608482       1.75963260       27      -0.00531331      -0.00135767       0.00178323
O        1.76937890       3.36608482       5.13493648       28      -0.00531331      -0.00135767      -0.00178323
O        4.35816349      -0.63176189       8.65420168       29      -0.00531331       0.00135767       0.00178323
O        3.40819027       6.10040775       1.75963260       30       0.00531332      -0.00135767       0.00178323
O        0.81940568       2.10256104      12.02950556       31       0.00531331       0.00135767      -0.00178323
O        3.57861094       2.85329574      13.15552955       32      -0.00185468      -0.00249735       0.00031073
O        0.98982635       5.34967306       0.63360861       33      -0.00185468       0.00249735      -0.00031073
O        1.59895824       0.11897281       7.52817769       34       0.00185468      -0.00249735      -0.00031073
O        4.18774282       2.61535013       6.26096047       35       0.00185468       0.00249735       0.00031073
O        1.59895824       2.61535013       0.63360861       36       0.00185468       0.00249735      -0.00031073
O        4.18774282       0.11897281      13.15552955       37       0.00185468      -0.00249735       0.00031073
O        3.57861094       5.34967306       6.26096047       38      -0.00185468       0.00249735       0.00031073
O        0.98982635       2.85329574       7.52817769       39      -0.00185468      -0.00249735      -0.00031073
