40
Lattice="5.734064363647009 5.6626299192305284e-43 0.0 -5.818529377937561e-43 5.891930504156741 0.0 0.0 0.0 16.564176712559785" Properties=species:S:1:pos:R:3:spacegroup_kinds:I:1:forces:R:3 spacegroup="P 1" unit_cell=conventional occupancy="_JSON {\"0\": {\"In\": 1}, \"1\": {\"In\": 1}, \"2\": {\"In\": 1}, \"3\": {\"In\": 1}, \"4\": {\"In\": 1}, \"5\": {\"In\": 1}, \"6\": {\"In\": 1}, \"7\": {\"In\": 1}, \"8\": {\"In\": 1}, \"9\": {\"In\": 1}, \"10\": {\"In\": 1}, \"11\": {\"In\": 1}, \"12\": {\"In\": 1}, \"13\": {\"In\": 1}, \"14\": {\"In\": 1}, \"15\": {\"In\": 1}, \"16\": {\"O\": 1}, \"17\": {\"O\": 1}, \"18\": {\"O\": 1}, \"19\": {\"O\": 1}, \"20\": {\"O\": 1}, \"21\": {\"O\": 1}, \"22\": {\"O\": 1}, \"23\": {\"O\": 1}, \"24\": {\"O\": 1}, \"25\": {\"O\": 1}, \"26\": {\"O\": 1}, \"27\": {\"O\": 1}, \"28\": {\"O\": 1}, \"29\": {\"O\": 1}, \"30\": {\"O\": 1}, \"31\": {\"O\": 1}, \"32\": {\"O\": 1}, \"33\": {\"O\": 1}, \"34\": {\"O\": 1}, \"35\": {\"O\": 1}, \"36\": {\"O\": 1}, \"37\": {\"O\": 1}, \"38\": {\"O\": 1}, \"39\": {\"O\": 1}}" n_minim_iter=1 energy=-45149.57496571228 stress="0.03757477021475947 -3.763801170888324e-13 1.5259379932544106e-13 -3.763801170888324e-13 0.038560477477654134 6.823146052113595e-13 1.5259379932544106e-13 6.823146052113595e-13 0.03915734899612164" free_energy=-45149.57496571228 pbc="T T T"
In       2.85972083       4.69306320       9.44776373        0       0.00485636      -0.01153236       0.01295189
In      -0.00731135       4.14483255       7.11641298        1       0.00485636       0.01153236      -0.01295189
In       2.87434353       1.74709795      15.39850134        2      -0.00485636      -0.01153236      -0.01295189
In       5.74137571       1.19886730       1.16567537        3      -0.00485636       0.01153236       0.01295189
In       2.87434353       1.19886730       7.11641298        4      -0.00485636       0.01153236      -0.01295189
In       5.74137571       1.74709795       9.44776373        5      -0.00485636      -0.01153236       0.01295189
In       2.85972083       4.14483255       1.16567537        6       0.00485636       0.01153236       0.01295189
In      -0.00731135       4.69306320      15.39850134        7       0.00485636      -0.01153236      -0.01295189
In       2.84212141       4.38583624      13.54689237        8      -0.01024838      -0.00371570      -0.02754571
In       5.70915359       4.45205952       3.01728434        9      -0.01024838       0.00371570       0.02754571
In       2.89194296       1.43987099      11.29937270       10       0.01024838      -0.00371570       0.02754571
In       0.02491078       1.50609427       5.26480401       11       0.01024838       0.00371570      -0.02754571
In       2.89194296       1.50609427       3.01728434       12       0.01024838       0.00371570       0.02754571
In       0.02491078       1.43987099      13.54689237       13       0.01024838      -0.00371570      -0.02754571
In       2.84212141       4.45205952       5.26480401       14      -0.01024838       0.00371570      -0.02754571
In       5.70915359       4.38583624      11.29937270       15      -0.01024838      -0.00371570       0.02754571
O        4.92265329       5.16097386      13.22304674       16      -0.01005108      -0.04832745      -0.00934913
O        2.05562111       3.67692190       3.34112997       17      -0.01005108       0.04832745       0.00934913
O        0.81141107       2.21500860      11.62321832       18       0.01005108      -0.04832745       0.00934913
O        3.67844325       0.73095665       4.94095839       19       0.01005108       0.04832745      -0.00934913
O        0.81141107       0.73095665       3.34112997       20       0.01005108       0.04832745       0.00934913
O        3.67844325       2.21500860      13.22304674       21       0.01005108      -0.04832745      -0.00934913
O        4.92265329       3.67692190       4.94095839       22      -0.01005108       0.04832745      -0.00934913
O        2.05562111       5.16097386      11.62321832       23      -0.01005108      -0.04832745       0.00934913
O        4.04317586       3.09667516      10.34138748       24      -0.06168062       0.01482500      -0.00759375
O        1.17614368       5.74122060       6.22278923       25      -0.06168062      -0.01482500       0.00759375
O        1.69088850       0.15070991      14.50487759       26       0.06168062       0.01482500       0.00759375
O        4.55792068       2.79525535       2.05929913       27       0.06168062      -0.01482500      -0.00759375
O        1.69088850       2.79525535       6.22278923       28       0.06168062      -0.01482500       0.00759375
O        4.55792068       0.15070991      10.34138748       29       0.06168062       0.01482500      -0.00759375
O        4.04317586       5.74122060       2.05929913       30      -0.06168062      -0.01482500      -0.00759375
O        1.17614368       3.09667516      14.50487759       31      -0.06168062       0.01482500       0.00759375
O        3.70889748       3.88594707      15.70405598       32       0.03305136       0.01956794       0.03377911
O        0.84186530       4.95194869       0.86012073       33       0.03305136      -0.01956794      -0.03377911
O        2.02516688       0.93998181       9.14220909       34      -0.03305136       0.01956794      -0.03377911
O        4.89219907       2.00598344       7.42196762       35      -0.03305136      -0.01956794       0.03377911
O        2.02516688       2.00598344       0.86012073       36      -0.03305136      -0.01956794      -0.03377911
O        4.89219907       0.93998181      15.70405598       37      -0.03305136       0.01956794       0.03377911
O        3.70889748       4.95194869       7.42196762       38       0.03305136      -0.01956794       0.03377911
O        0.84186530       3.88594707       9.14220909       39       0.03305136       0.01956794      -0.03377911
40
Lattice="5.741480860333867 6.321563079780262e-43 0.0 -5.1518646451506745e-43 5.8907775993609555 0.0 0.0 0.0 16.546017759555212" Properties=species:S:1:pos:R:3:spacegroup_kinds:I:1:forces:R:3 spacegroup="P 1" unit_cell=conventional occupancy="_JSON {\"0\": {\"In\": 1}, \"1\": {\"In\": 1}, \"2\": {\"In\": 1}, \"3\": {\"In\": 1}, \"4\": {\"In\": 1}, \"5\": {\"In\": 1}, \"6\": {\"In\": 1}, \"7\": {\"In\": 1}, \"8\": {\"In\": 1}, \"9\": {\"In\": 1}, \"10\": {\"In\": 1}, \"11\": {\"In\": 1}, \"12\": {\"In\": 1}, \"13\": {\"In\": 1}, \"14\": {\"In\": 1}, \"15\": {\"In\": 1}, \"16\": {\"O\": 1}, \"17\": {\"O\": 1}, \"18\": {\"O\": 1}, \"19\": {\"O\": 1}, \"20\": {\"O\": 1}, \"21\": {\"O\": 1}, \"22\": {\"O\": 1}, \"23\": {\"O\": 1}, \"24\": {\"O\": 1}, \"25\": {\"O\": 1}, \"26\": {\"O\": 1}, \"27\": {\"O\": 1}, \"28\": {\"O\": 1}, \"29\": {\"O\": 1}, \"30\": {\"O\": 1}, \"31\": {\"O\": 1}, \"32\": {\"O\": 1}, \"33\": {\"O\": 1}, \"34\": {\"O\": 1}, \"35\": {\"O\": 1}, \"36\": {\"O\": 1}, \"37\": {\"O\": 1}, \"38\": {\"O\": 1}, \"39\": {\"O\": 1}}" n_minim_iter=2 energy=-45149.57561869603 stress="0.038496518791875434 -2.6960711145209287e-13 -7.663968815427549e-13 -2.6960711145209287e-13 0.038403135740643024 -4.244174747842597e-13 -7.663968815427549e-13 -4.244174747842597e-13 0.03815476838450848" free_energy=-45149.57561869603 pbc="T T T"
In       2.86343274       4.69211378       9.43744125        0      -0.00531753      -0.01643041       0.01601829
In      -0.00730769       4.14405262       7.10857651        1      -0.00531753       0.01643041      -0.01601829
In       2.87804812       1.74672498      15.38158539        2       0.00531753      -0.01643041      -0.01601829
In       5.74878855       1.19866382       1.16443237        3       0.00531753       0.01643041       0.01601829
In       2.87804812       1.19866382       7.10857651        4       0.00531753       0.01643041      -0.01601829
In       5.74878855       1.74672498       9.43744125        5       0.00531753      -0.01643041       0.01601829
In       2.86343274       4.14405262       1.16443237        6      -0.00531753       0.01643041       0.01601829
In      -0.00730769       4.69211378      15.38158539        7      -0.00531753      -0.01643041      -0.01601829
In       2.84576975       4.38496802      13.53196696        8      -0.00513247      -0.00422100      -0.02291763
In       5.71651018       4.45119838       3.01405079        9      -0.00513247       0.00422100       0.02291763
In       2.89571111       1.43957922      11.28705967       10       0.00513247      -0.00422100       0.02291763
In       0.02497068       1.50580958       5.25895809       11       0.00513247       0.00422100      -0.02291763
In       2.89571111       1.50580958       3.01405079       12       0.00513247       0.00422100       0.02291763
In       0.02497068       1.43957922      13.53196696       13       0.00513247      -0.00422100      -0.02291763
In       2.84576975       4.45119838       5.25895809       14      -0.00513247       0.00422100      -0.02291764
In       5.71651018       4.38496802      11.28705967       15      -0.00513247      -0.00422100       0.02291764
O        4.92899315       5.15983362      13.20852541       16      -0.01125923      -0.04754788      -0.00234220
O        2.05825272       3.67633278       3.33749235       17      -0.01125923       0.04754788       0.00234220
O        0.81248771       2.21444482      11.61050123       18       0.01125923      -0.04754788       0.00234220
O        3.68322814       0.73094398       4.93551653       19       0.01125923       0.04754788      -0.00234220
O        0.81248771       0.73094398       3.33749235       20       0.01125923       0.04754788       0.00234220
O        3.68322814       2.21444482      13.20852541       21       0.01125923      -0.04754788      -0.00234220
O        4.92899315       3.67633278       4.93551653       22      -0.01125923       0.04754788      -0.00234220
O        2.05825272       5.15983362      11.61050123       23      -0.01125923      -0.04754788       0.00234220
O        4.04823872       3.09610921      10.33002998       24      -0.06218876       0.01738999      -0.00929181
O        1.17749829       5.74005719       6.21598778       25      -0.06218876      -0.01738999       0.00929181
O        1.69324214       0.15072041      14.48899666       26       0.06218876       0.01738999       0.00929181
O        4.56398257       2.79466839       2.05702110       27       0.06218876      -0.01738999      -0.00929181
O        1.69324214       2.79466839       6.21598778       28       0.06218876      -0.01738999       0.00929181
O        4.56398257       0.15072041      10.33002998       29       0.06218876       0.01738999      -0.00929181
O        4.04823872       5.74005719       2.05702110       30      -0.06218876      -0.01738999      -0.00929181
O        1.17749829       3.09610921      14.48899666       31      -0.06218876       0.01738999       0.00929181
O        3.71378389       3.88523947      15.68693100       32       0.03693105       0.02259827       0.02628514
O        0.84304346       4.95092693       0.85908676       33       0.03693105      -0.02259827      -0.02628514
O        2.02769697       0.93985067       9.13209564       34      -0.03693105       0.02259827      -0.02628514
O        4.89843740       2.00553813       7.41392212       35      -0.03693105      -0.02259827       0.02628514
O        2.02769697       2.00553813       0.85908676       36      -0.03693105      -0.02259827      -0.02628514
O        4.89843740       0.93985067      15.68693100       37      -0.03693105       0.02259827       0.02628514
O        3.71378389       4.95092693       7.41392212       38       0.03693105      -0.02259827       0.02628514
O        0.84304346       3.88523947       9.13209564       39       0.03693105       0.02259827      -0.02628514
40
Lattice="5.745952550721729 7.237542970432279e-43 0.0 -5.142334458744204e-43 5.880687042541351 0.0 0.0 0.0 16.56150999718326" Properties=species:S:1:pos:R:3:spacegroup_kinds:I:1:forces:R:3 spacegroup="P 1" unit_cell=conventional occupancy="_JSON {\"0\": {\"In\": 1}, \"1\": {\"In\": 1}, \"2\": {\"In\": 1}, \"3\": {\"In\": 1}, \"4\": {\"In\": 1}, \"5\": {\"In\": 1}, \"6\": {\"In\": 1}, \"7\": {\"In\": 1}, \"8\": {\"In\": 1}, \"9\": {\"In\": 1}, \"10\": {\"In\": 1}, \"11\": {\"In\": 1}, \"12\": {\"In\": 1}, \"13\": {\"In\": 1}, \"14\": {\"In\": 1}, \"15\": {\"In\": 1}, \"16\": {\"O\": 1}, \"17\": {\"O\": 1}, \"18\": {\"O\": 1}, \"19\": {\"O\": 1}, \"20\": {\"O\": 1}, \"21\": {\"O\": 1}, \"22\": {\"O\": 1}, \"23\": {\"O\": 1}, \"24\": {\"O\": 1}, \"25\": {\"O\": 1}, \"26\": {\"O\": 1}, \"27\": {\"O\": 1}, \"28\": {\"O\": 1}, \"29\": {\"O\": 1}, \"30\": {\"O\": 1}, \"31\": {\"O\": 1}, \"32\": {\"O\": 1}, \"33\": {\"O\": 1}, \"34\": {\"O\": 1}, \"35\": {\"O\": 1}, \"36\": {\"O\": 1}, \"37\": {\"O\": 1}, \"38\": {\"O\": 1}, \"39\": {\"O\": 1}}" n_minim_iter=3 energy=-45149.57760199895 stress="0.03860892273966289 1.9259243607825955e-13 -1.3005657443039979e-13 1.9259243607825955e-13 0.03680492530607091 -2.0315036526399635e-13 -1.3005657443039979e-13 -2.0315036526399635e-13 0.03876475392034436" free_energy=-45149.57760199895 pbc="T T T"
In       2.86549600       4.68334682       9.44700366        0      -0.00919834      -0.00414509      -0.00772414
In      -0.00748028       4.13768374       7.11450634        1      -0.00919834       0.00414509       0.00772414
In       2.88045655       1.74300330      15.39526133        2       0.00919834      -0.00414509       0.00772414
In       5.75343283       1.19734022       1.16624866        3       0.00919834       0.00414509      -0.00772414
In       2.88045655       1.19734022       7.11450634        4       0.00919834       0.00414509       0.00772414
In       5.75343283       1.74300330       9.44700366        5       0.00919834      -0.00414509      -0.00772414
In       2.86549600       4.13768374       1.16624866        6      -0.00919834       0.00414509      -0.00772414
In      -0.00748028       4.68334682      15.39526133        7      -0.00919834      -0.00414509       0.00772414
In       2.84770247       4.37726322      13.54352456        8      -0.00474001      -0.00289130      -0.01714001
In       5.72067875       4.44376734       3.01798544        9      -0.00474001       0.00289130       0.01714001
In       2.89825008       1.43691970      11.29874044       10       0.00474001      -0.00289130       0.01714001
In       0.02527380       1.50342382       5.26276956       11       0.00474001       0.00289130      -0.01714001
In       2.89825008       1.50342382       3.01798544       12       0.00474001       0.00289130       0.01714001
In       0.02527380       1.43691970      13.54352456       13       0.00474001      -0.00289130      -0.01714001
In       2.84770247       4.44376734       5.26276956       14      -0.00474001       0.00289130      -0.01714001
In       5.72067875       4.37726322      11.29874044       15      -0.00474001      -0.00289130       0.01714001
O        4.93231177       5.14876138      13.22072550       16      -0.00000212      -0.03439862       0.00127207
O        2.05933549       3.67226918       3.34078450       17      -0.00000212       0.03439862      -0.00127207
O        0.81364078       2.20841786      11.62153950       18       0.00000212      -0.03439862      -0.00127207
O        3.68661706       0.73192566       4.93997050       19       0.00000212       0.03439862       0.00127207
O        0.81364078       0.73192566       3.34078450       20       0.00000212       0.03439862      -0.00127207
O        3.68661706       2.20841786      13.22072550       21       0.00000212      -0.03439862       0.00127207
O        4.93231177       3.67226918       4.93997050       22      -0.00000212       0.03439862       0.00127207
O        2.05933549       5.14876138      11.62153950       23      -0.00000212      -0.03439862      -0.00127207
O        4.04846738       3.09159942      10.33928030       24      -0.02632576      -0.00055573       0.00513279
O        1.17549110       5.72943115       6.22222969       25      -0.02632576       0.00055573      -0.00513279
O        1.69748518       0.15125589      14.50298469       26       0.02632576      -0.00055573      -0.00513279
O        4.57046145       2.78908763       2.05852530       27       0.02632576       0.00055573       0.00513279
O        1.69748518       2.78908763       6.22222969       28       0.02632576       0.00055573      -0.00513279
O        4.57046145       0.15125589      10.33928030       29       0.02632576      -0.00055573       0.00513279
O        4.04846738       5.72943115       2.05852530       30      -0.02632576       0.00055573       0.00513279
O        1.17549110       3.09159942      14.50298469       31      -0.02632576      -0.00055573      -0.00513279
O        3.71838356       3.87961812      15.70291279       32       0.01134647       0.01067996       0.01946667
O        0.84540728       4.94141244       0.85859720       33       0.01134647      -0.01067996      -0.01946667
O        2.02756899       0.93927460       9.13935220       34      -0.01134647       0.01067996      -0.01946667
O        4.90054527       2.00106892       7.42215779       35      -0.01134647      -0.01067996       0.01946667
O        2.02756899       2.00106892       0.85859720       36      -0.01134647      -0.01067996      -0.01946667
O        4.90054527       0.93927460      15.70291279       37      -0.01134647       0.01067996       0.01946667
O        3.71838356       4.94141244       7.42215779       38       0.01134647      -0.01067996       0.01946667
O        0.84540728       3.87961812       9.13935220       39       0.01134647       0.01067996      -0.01946667
40
Lattice="5.741636282930953 7.23752043474217e-43 0.0 -5.034233524946554e-43 5.8910426729471475 0.0 0.0 0.0 16.544825383824254" Properties=species:S:1:pos:R:3:spacegroup_kinds:I:1:forces:R:3 spacegroup="P 1" unit_cell=conventional occupancy="_JSON {\"0\": {\"In\": 1}, \"1\": {\"In\": 1}, \"2\": {\"In\": 1}, \"3\": {\"In\": 1}, \"4\": {\"In\": 1}, \"5\": {\"In\": 1}, \"6\": {\"In\": 1}, \"7\": {\"In\": 1}, \"8\": {\"In\": 1}, \"9\": {\"In\": 1}, \"10\": {\"In\": 1}, \"11\": {\"In\": 1}, \"12\": {\"In\": 1}, \"13\": {\"In\": 1}, \"14\": {\"In\": 1}, \"15\": {\"In\": 1}, \"16\": {\"O\": 1}, \"17\": {\"O\": 1}, \"18\": {\"O\": 1}, \"19\": {\"O\": 1}, \"20\": {\"O\": 1}, \"21\": {\"O\": 1}, \"22\": {\"O\": 1}, \"23\": {\"O\": 1}, \"24\": {\"O\": 1}, \"25\": {\"O\": 1}, \"26\": {\"O\": 1}, \"27\": {\"O\": 1}, \"28\": {\"O\": 1}, \"29\": {\"O\": 1}, \"30\": {\"O\": 1}, \"31\": {\"O\": 1}, \"32\": {\"O\": 1}, \"33\": {\"O\": 1}, \"34\": {\"O\": 1}, \"35\": {\"O\": 1}, \"36\": {\"O\": 1}, \"37\": {\"O\": 1}, \"38\": {\"O\": 1}, \"39\": {\"O\": 1}}" n_minim_iter=4 energy=-45149.579428677134 stress="0.037752094577747614 8.444042022373583e-13 5.275399025160271e-13 8.444042022373583e-13 0.03777394876319753 -3.787263290853893e-13 5.275399025160271e-13 -3.787263290853893e-13 0.037759909501469846" free_energy=-45149.579428677134 pbc="T T T"
In       2.86314643       4.69090321       9.43811577        0      -0.00844595       0.01722104      -0.01284842
In      -0.00767171       4.14566080       7.10670962        1      -0.00844595      -0.01722104       0.01284842
In       2.87848986       1.74538187      15.37912231        2       0.00844595       0.01722104       0.01284842
In       5.74930800       1.20013947       1.16570308        3       0.00844595      -0.01722104      -0.01284842
In       2.87848986       1.20013947       7.10670962        4       0.00844595      -0.01722104       0.01284842
In       5.74930800       1.74538187       9.43811577        5       0.00844595       0.01722104      -0.01284842
In       2.86314643       4.14566080       1.16570308        6      -0.00844595      -0.01722104      -0.01284842
In      -0.00767171       4.69090321      15.37912231        7      -0.00844595       0.01722104       0.01284842
In       2.84528055       4.38477962      13.52877871        8      -0.00696340      -0.02005579       0.00366098
In       5.71609869       4.45178439       3.01604667        9      -0.00696340       0.02005579      -0.00366098
In       2.89635573       1.43925828      11.28845936       10       0.00696340      -0.02005579      -0.00366098
In       0.02553759       1.50626305       5.25636602       11       0.00696340       0.02005579       0.00366098
In       2.89635573       1.50626305       3.01604667       12       0.00696340       0.02005579      -0.00366098
In       0.02553759       1.43925828      13.52877871       13       0.00696340      -0.02005579       0.00366098
In       2.84528055       4.45178439       5.25636602       14      -0.00696340       0.02005579       0.00366098
In       5.71609869       4.38477962      11.28845936       15      -0.00696340      -0.02005579      -0.00366098
O        4.92812934       5.15561068      13.20725925       16       0.00224348      -0.02033239       0.01018287
O        2.05731120       3.68095333       3.33756614       17       0.00224348       0.02033239      -0.01018287
O        0.81350694       2.21008934      11.60997883       18      -0.00224348      -0.02033239      -0.01018287
O        3.68432508       0.73543200       4.93484655       19      -0.00224348       0.02033239       0.01018287
O        0.81350694       0.73543200       3.33756614       20      -0.00224348       0.02033239      -0.01018287
O        3.68432508       2.21008934      13.20725925       21      -0.00224348      -0.02033239       0.01018287
O        4.92812934       3.68095333       4.93484655       22       0.00224348       0.02033239       0.01018287
O        2.05731120       5.15561068      11.60997883       23       0.00224348      -0.02033239      -0.01018287
O        4.04261796       3.09777096      10.32850160       24       0.00059613      -0.00612258       0.01207644
O        1.17179982       5.73879305       6.21632379       25       0.00059613       0.00612258      -0.01207644
O        1.69901832       0.15224962      14.48873648       26      -0.00059613      -0.00612258      -0.01207644
O        4.56983646       2.79327171       2.05608891       27      -0.00059613       0.00612258       0.01207644
O        1.69901832       2.79327171       6.21632379       28      -0.00059613       0.00612258      -0.01207644
O        4.56983646       0.15224962      10.32850160       29      -0.00059613      -0.00612258       0.01207644
O        4.04261796       5.73879305       2.05608891       30       0.00059613       0.00612258       0.01207644
O        1.17179982       3.09777096      14.48873648       31       0.00059613      -0.00612258      -0.01207644
O        3.71721075       3.88745147      15.68837217       32      -0.00733144      -0.00857763       0.00580912
O        0.84639261       4.94911254       0.85645322       33      -0.00733144       0.00857763      -0.00580912
O        2.02442553       0.94193013       9.12886591       34       0.00733144      -0.00857763      -0.00580912
O        4.89524367       2.00359121       7.41595947       35       0.00733144       0.00857763       0.00580912
O        2.02442553       2.00359121       0.85645322       36       0.00733144       0.00857763      -0.00580912
O        4.89524367       0.94193013      15.68837217       37       0.00733144      -0.00857763       0.00580912
O        3.71721075       4.94911254       7.41595947       38      -0.00733144       0.00857763       0.00580912
O        0.84639261       3.88745147       9.12886591       39      -0.00733144      -0.00857763      -0.00580912
40
Lattice="5.740904689275455 1.697908739959023e-42 0.0 -1.9424207132508422e-42 5.892051062572721 0.0 0.0 0.0 16.54410186820719" Properties=species:S:1:pos:R:3:spacegroup_kinds:I:1:forces:R:3 spacegroup="P 1" unit_cell=conventional occupancy="_JSON {\"0\": {\"In\": 1}, \"1\": {\"In\": 1}, \"2\": {\"In\": 1}, \"3\": {\"In\": 1}, \"4\": {\"In\": 1}, \"5\": {\"In\": 1}, \"6\": {\"In\": 1}, \"7\": {\"In\": 1}, \"8\": {\"In\": 1}, \"9\": {\"In\": 1}, \"10\": {\"In\": 1}, \"11\": {\"In\": 1}, \"12\": {\"In\": 1}, \"13\": {\"In\": 1}, \"14\": {\"In\": 1}, \"15\": {\"In\": 1}, \"16\": {\"O\": 1}, \"17\": {\"O\": 1}, \"18\": {\"O\": 1}, \"19\": {\"O\": 1}, \"20\": {\"O\": 1}, \"21\": {\"O\": 1}, \"22\": {\"O\": 1}, \"23\": {\"O\": 1}, \"24\": {\"O\": 1}, \"25\": {\"O\": 1}, \"26\": {\"O\": 1}, \"27\": {\"O\": 1}, \"28\": {\"O\": 1}, \"29\": {\"O\": 1}, \"30\": {\"O\": 1}, \"31\": {\"O\": 1}, \"32\": {\"O\": 1}, \"33\": {\"O\": 1}, \"34\": {\"O\": 1}, \"35\": {\"O\": 1}, \"36\": {\"O\": 1}, \"37\": {\"O\": 1}, \"38\": {\"O\": 1}, \"39\": {\"O\": 1}}" n_minim_iter=5 energy=-45149.58081436792 stress="0.037504902088397074 -2.2515322617952222e-13 6.416003254419775e-14 -2.2515322617952222e-13 0.0374250502006159 -1.1210598195911239e-13 6.416003254419775e-14 -1.1210598195911239e-13 0.03737254206365548" free_energy=-45149.58081436792 pbc="T T T"
In       2.86104670       4.69435176       9.43582348        0       0.00790310      -0.01168514       0.01567757
In      -0.00940565       4.14372484       7.10827839        1       0.00790310       0.01168514      -0.01567757
In       2.87985799       1.74832622      15.38032932        2      -0.00790310      -0.01168514      -0.01567757
In       5.75031034       1.19769931       1.16377255        3      -0.00790310       0.01168514       0.01567757
In       2.87985799       1.19769931       7.10827839        4      -0.00790310       0.01168514      -0.01567757
In       5.75031034       1.74832622       9.43582348        5      -0.00790310      -0.01168514       0.01567757
In       2.86104670       4.14372484       1.16377255        6       0.00790310       0.01168514       0.01567757
In      -0.00940565       4.69435176      15.38032932        7       0.00790310      -0.01168514      -0.01567757
In       2.84340689       4.38166074      13.52800461        8      -0.00353199      -0.01432729      -0.00940680
In       5.71385924       4.45641586       3.01609726        9      -0.00353199       0.01432729       0.00940680
In       2.89749780       1.43563520      11.28814819       10       0.00353199      -0.01432729       0.00940680
In       0.02704545       1.51039033       5.25595368       11       0.00353199       0.01432729      -0.00940680
In       2.89749780       1.51039033       3.01609726       12       0.00353199       0.01432729       0.00940680
In       0.02704545       1.43563520      13.52800461       13       0.00353199      -0.01432729      -0.00940680
In       2.84340689       4.45641586       5.25595368       14      -0.00353199       0.01432729      -0.00940680
In       5.71385924       4.38166074      11.28814819       15      -0.00353199      -0.01432729       0.00940680
O        4.92754254       5.15098393      13.20845689       16      -0.00403225      -0.00789815       0.00790604
O        2.05709020       3.68709267       3.33564498       17      -0.00403225       0.00789815      -0.00790604
O        0.81336215       2.20495840      11.60769592       18       0.00403225      -0.00789815      -0.00790604
O        3.68381449       0.74106713       4.93640595       19       0.00403225       0.00789815       0.00790604
O        0.81336215       0.74106713       3.33564498       20       0.00403225       0.00789815      -0.00790604
O        3.68381449       2.20495840      13.20845689       21       0.00403225      -0.00789815       0.00790604
O        4.92754254       3.68709267       4.93640595       22      -0.00403225       0.00789815       0.00790604
O        2.05709020       5.15098393      11.60769592       23      -0.00403225      -0.00789815      -0.00790604
O        4.04000937       3.09773976      10.32999750       24       0.00690591       0.00375024      -0.00733047
O        1.16955702       5.74033683       6.21410437       25       0.00690591      -0.00375024       0.00733047
O        1.70089532       0.15171423      14.48615531       26      -0.00690591       0.00375024       0.00733047
O        4.57134767       2.79431130       2.05794656       27      -0.00690591      -0.00375024      -0.00733047
O        1.70089532       2.79431130       6.21410437       28      -0.00690591      -0.00375024       0.00733047
O        4.57134767       0.15171423      10.32999750       29      -0.00690591       0.00375024      -0.00733047
O        4.04000937       5.74033683       2.05794656       30       0.00690591      -0.00375024      -0.00733047
O        1.16955702       3.09773976      14.48615531       31       0.00690591       0.00375024       0.00733047
O        3.71664985       3.88731576      15.68975669       32      -0.00841371      -0.00987678      -0.01166396
O        0.84619750       4.95076083       0.85434518       33      -0.00841371       0.00987678       0.01166396
O        2.02425484       0.94129023       9.12639611       34       0.00841371      -0.00987678       0.01166396
O        4.89470719       2.00473530       7.41770576       35       0.00841371       0.00987678      -0.01166396
O        2.02425484       2.00473530       0.85434518       36       0.00841371       0.00987678       0.01166396
O        4.89470719       0.94129023      15.68975669       37       0.00841371      -0.00987678      -0.01166396
O        3.71664985       4.95076083       7.41770576       38      -0.00841371       0.00987678      -0.01166396
O        0.84619750       3.88731576       9.12639611       39      -0.00841371      -0.00987678       0.01166396
40