40
Lattice="5.85863475994084 2.1468751436558195e-42 0.0 -2.84046372521009e-42 6.2586559176877925 0.0 0.0 0.0 17.036693726727027" Properties=species:S:1:pos:R:3:spacegroup_kinds:I:1:forces:R:3 spacegroup="P 1" unit_cell=conventional occupancy="_JSON {\"0\": {\"In\": 1}, \"1\": {\"In\": 1}, \"2\": {\"In\": 1}, \"3\": {\"In\": 1}, \"4\": {\"In\": 1}, \"5\": {\"In\": 1}, \"6\": {\"In\": 1}, \"7\": {\"In\": 1}, \"8\": {\"In\": 1}, \"9\": {\"In\": 1}, \"10\": {\"In\": 1}, \"11\": {\"In\": 1}, \"12\": {\"In\": 1}, \"13\": {\"In\": 1}, \"14\": {\"In\": 1}, \"15\": {\"In\": 1}, \"16\": {\"O\": 1}, \"17\": {\"O\": 1}, \"18\": {\"O\": 1}, \"19\": {\"O\": 1}, \"20\": {\"O\": 1}, \"21\": {\"O\": 1}, \"22\": {\"O\": 1}, \"23\": {\"O\": 1}, \"24\": {\"O\": 1}, \"25\": {\"O\": 1}, \"26\": {\"O\": 1}, \"27\": {\"O\": 1}, \"28\": {\"O\": 1}, \"29\": {\"O\": 1}, \"30\": {\"O\": 1}, \"31\": {\"O\": 1}, \"32\": {\"O\": 1}, \"33\": {\"O\": 1}, \"34\": {\"O\": 1}, \"35\": {\"O\": 1}, \"36\": {\"O\": 1}, \"37\": {\"O\": 1}, \"38\": {\"O\": 1}, \"39\": {\"O\": 1}}" n_minim_iter=11 energy=-45146.70865473173 stress="0.05243387281352559 1.382800049071078e-13 4.1248392041337516e-13 1.382800049071078e-13 0.052466818440442646 -4.8240768811533e-13 4.1248392041337516e-13 -4.8240768811533e-13 0.05242668061954707" free_energy=-45146.70865473173 pbc="T T T"
In       2.66923169       5.21277150       9.81928797        0      -0.00085675       0.00418868       0.00119119
In      -0.26008569       4.17521238       7.21740575        1      -0.00085675      -0.00418868      -0.00119119
In       3.18940307       2.08344354      15.73575262        2       0.00085675       0.00418868      -0.00119119
In       6.11872045       1.04588442       1.30094111        3       0.00085675      -0.00418868       0.00119119
In       3.18940307       1.04588442       7.21740575        4       0.00085675      -0.00418868      -0.00119119
In       6.11872045       2.08344354       9.81928797        5       0.00085675       0.00418868       0.00119119
In       2.66923169       4.17521238       1.30094111        6      -0.00085675      -0.00418868       0.00119119
In      -0.26008569       5.21277150      15.73575262        7      -0.00085675       0.00418868      -0.00119119
In       2.67818413       5.01955800      13.86766328        8       0.00658681       0.00631059      -0.00038572
In       5.60750151       4.36842588       3.16903045        9       0.00658681      -0.00631059       0.00038572
In       3.18045063       1.89023004      11.68737731       10      -0.00658681       0.00631059       0.00038572
In       0.25113325       1.23909792       5.34931641       11      -0.00658681      -0.00631059      -0.00038572
In       3.18045063       1.23909792       3.16903045       12      -0.00658681      -0.00631059       0.00038572
In       0.25113325       1.89023004      13.86766328       13      -0.00658681       0.00631059      -0.00038572
In       2.67818413       4.36842588       5.34931641       14       0.00658681      -0.00631059      -0.00038572
In       5.60750151       5.01955800      11.68737731       15       0.00658681       0.00631059       0.00038572
O        4.79111308       5.62596245      13.65368665       16      -0.00467586       0.00430633      -0.00181362
O        1.86179570       3.76202143       3.38300708       17      -0.00467586      -0.00430633       0.00181362
O        1.06752168       2.49663449      11.90135394       18       0.00467586       0.00430633       0.00181362
O        3.99683906       0.63269347       5.13533978       19       0.00467586      -0.00430633      -0.00181362
O        1.06752168       0.63269347       3.38300708       20       0.00467586      -0.00430633       0.00181362
O        3.99683906       2.49663449      13.65368665       21       0.00467586       0.00430633      -0.00181362
O        4.79111308       3.76202143       5.13533978       22      -0.00467586      -0.00430633      -0.00181362
O        1.86179570       5.62596245      11.90135394       23      -0.00467586       0.00430633       0.00181362
O        4.06144649       3.73274183      10.78887266       24      -0.00652628       0.00567718      -0.00282974
O        1.13212911       5.65524205       6.24782106       25      -0.00652628      -0.00567718       0.00282974
O        1.79718827       0.60341387      14.76616793       26       0.00652628       0.00567718       0.00282974
O        4.72650565       2.52591409       2.27052580       27       0.00652628      -0.00567718      -0.00282974
O        1.79718827       2.52591409       6.24782106       28       0.00652628      -0.00567718       0.00282974
O        4.72650565       0.60341387      10.78887266       29       0.00652628       0.00567718      -0.00282974
O        4.06144649       5.65524205       2.27052580       30      -0.00652628      -0.00567718      -0.00282974
O        1.13212911       3.73274183      14.76616793       31      -0.00652628       0.00567718       0.00282974
O        3.70824471       4.16485673      16.32813311       32       0.00126799       0.00080392      -0.00477747
O        0.77892733       5.22312715       0.70856062       33       0.00126799      -0.00080392       0.00477747
O        2.15039005       1.03552877       9.22690748       34      -0.00126799       0.00080392       0.00477747
O        5.07970743       2.09379919       7.80978624       35      -0.00126799      -0.00080392      -0.00477747
O        2.15039005       2.09379919       0.70856062       36      -0.00126799      -0.00080392       0.00477747
O        5.07970743       1.03552877      16.32813311       37      -0.00126799       0.00080392      -0.00477747
O        3.70824471       5.22312715       7.80978624       38       0.00126799      -0.00080392      -0.00477747
O        0.77892733       4.16485673       9.22690748       39       0.00126799       0.00080392       0.00477747
