40
Lattice="5.398794797074303 -3.928507430089183e-42 -1.3227680368957278e-83 3.653623547778491e-42 5.278852281022003 1.7623706295804317e-41 -1.9172848312428425e-85 5.204681484211143e-41 15.06951199788829" Properties=species:S:1:pos:R:3:spacegroup_kinds:I:1:forces:R:3 spacegroup="P 1" unit_cell=conventional occupancy="_JSON {\"0\": {\"In\": 1}, \"1\": {\"In\": 1}, \"2\": {\"In\": 1}, \"3\": {\"In\": 1}, \"4\": {\"In\": 1}, \"5\": {\"In\": 1}, \"6\": {\"In\": 1}, \"7\": {\"In\": 1}, \"8\": {\"In\": 1}, \"9\": {\"In\": 1}, \"10\": {\"In\": 1}, \"11\": {\"In\": 1}, \"12\": {\"In\": 1}, \"13\": {\"In\": 1}, \"14\": {\"In\": 1}, \"15\": {\"In\": 1}, \"16\": {\"O\": 1}, \"17\": {\"O\": 1}, \"18\": {\"O\": 1}, \"19\": {\"O\": 1}, \"20\": {\"O\": 1}, \"21\": {\"O\": 1}, \"22\": {\"O\": 1}, \"23\": {\"O\": 1}, \"24\": {\"O\": 1}, \"25\": {\"O\": 1}, \"26\": {\"O\": 1}, \"27\": {\"O\": 1}, \"28\": {\"O\": 1}, \"29\": {\"O\": 1}, \"30\": {\"O\": 1}, \"31\": {\"O\": 1}, \"32\": {\"O\": 1}, \"33\": {\"O\": 1}, \"34\": {\"O\": 1}, \"35\": {\"O\": 1}, \"36\": {\"O\": 1}, \"37\": {\"O\": 1}, \"38\": {\"O\": 1}, \"39\": {\"O\": 1}}" n_minim_iter=28 energy=-45146.652721640734 stress="-0.10804113749657418 -3.884494877798806e-13 -1.6507695652239635e-13 -3.884494877798806e-13 -0.1081617289700042 8.163402759159484e-14 -1.6507695652239635e-13 8.163402759159484e-14 -0.10800017299150902" free_energy=-45146.652721640734 pbc="T T T"
In       2.72826786       4.00009864       8.51779515        0      -0.00101227      -0.00163822       0.00374991
In       0.02887046       3.91817978       6.55171685        1      -0.00101227       0.00163822      -0.00374991
In       2.67052693       1.36067250      14.08647285        2       0.00101227      -0.00163822      -0.00374991
In       5.36992433       1.27875364       0.98303915        3       0.00101227       0.00163822       0.00374991
In       2.67052693       1.27875364       6.55171685        4       0.00101227       0.00163822      -0.00374991
In       5.36992433       1.36067250       8.51779515        5       0.00101227      -0.00163822       0.00374991
In       2.72826786       3.91817978       0.98303915        6      -0.00101227       0.00163822       0.00374991
In       0.02887046       4.00009864      14.08647285        7      -0.00101227      -0.00163822      -0.00374991
In       2.73092499       3.76810234      12.29123212        8       0.00595255      -0.00474176       0.00488279
In       5.43032239       4.15017608       2.77827988        9       0.00595255       0.00474176      -0.00488279
In       2.66786981       1.12867620      10.31303588       10      -0.00595255      -0.00474176      -0.00488279
In      -0.03152759       1.51074994       4.75647612       11      -0.00595255       0.00474176       0.00488279
In       2.66786981       1.51074994       2.77827988       12      -0.00595255       0.00474176      -0.00488279
In      -0.03152759       1.12867620      12.29123212       13      -0.00595255      -0.00474176       0.00488279
In       2.73092499       4.15017608       4.75647612       14       0.00595255       0.00474176       0.00488279
In       5.43032239       3.76810234      10.31303588       15       0.00595255      -0.00474176      -0.00488279
O        4.68448921       4.41598156      12.09391528       16      -0.00182575       0.00628752      -0.00058394
O        1.98509182       3.50229687       2.97559672       17      -0.00182575      -0.00628752       0.00058394
O        0.71430558       1.77655542      10.51035272       18       0.00182575       0.00628752       0.00058394
O        3.41370298       0.86287072       4.55915928       19       0.00182575      -0.00628752      -0.00058394
O        0.71430558       0.86287072       2.97559672       20       0.00182575      -0.00628752       0.00058394
O        3.41370298       1.77655542      12.09391528       21       0.00182575       0.00628752      -0.00058394
O        4.68448921       3.50229687       4.55915928       22      -0.00182575      -0.00628752      -0.00058394
O        1.98509182       4.41598156      10.51035272       23      -0.00182575       0.00628752       0.00058394
O        3.85463056       2.57571606       9.44370421       24       0.00307910      -0.00205709       0.00236296
O        1.15523316       5.34256236       5.62580779       25       0.00307910       0.00205709      -0.00236296
O        1.54416424      -0.06371008      13.16056378       26      -0.00307910      -0.00205709      -0.00236296
O        4.24356164       2.70313622       1.90894821       27      -0.00307910       0.00205709       0.00236296
O        1.54416424       2.70313622       5.62580779       28      -0.00307910       0.00205709      -0.00236296
O        4.24356164      -0.06371008       9.44370421       29      -0.00307910      -0.00205709       0.00236296
O        3.85463056       5.34256236       1.90894821       30       0.00307910       0.00205709       0.00236296
O        1.15523316       2.57571606      13.16056378       31       0.00307910      -0.00205709      -0.00236296
O        3.49458912       3.34322270      14.24077216       32       0.00922142       0.00006925       0.00069417
O        0.79519172       4.57505572       0.82873984       33       0.00922142      -0.00006925      -0.00069417
O        1.90420568       0.70379656       8.36349584       34      -0.00922142       0.00006925      -0.00069417
O        4.60360308       1.93562958       6.70601616       35      -0.00922142      -0.00006925       0.00069417
O        1.90420568       1.93562958       0.82873984       36      -0.00922142      -0.00006925      -0.00069417
O        4.60360308       0.70379656      14.24077216       37      -0.00922142       0.00006925       0.00069417
O        3.49458912       4.57505572       6.70601616       38       0.00922142      -0.00006925       0.00069417
O        0.79519172       3.34322270       8.36349584       39       0.00922142       0.00006925      -0.00069417
