40
Lattice="5.824705456428342 1.8105456335354126e-42 0.0 8.39394836359616e-44 5.988314546167499 0.0 0.0 0.0 16.79018646448962" Properties=species:S:1:pos:R:3:spacegroup_kinds:I:1:forces:R:3 spacegroup="P 1" unit_cell=conventional occupancy="_JSON {\"0\": {\"In\": 1}, \"1\": {\"In\": 1}, \"2\": {\"In\": 1}, \"3\": {\"In\": 1}, \"4\": {\"In\": 1}, \"5\": {\"In\": 1}, \"6\": {\"In\": 1}, \"7\": {\"In\": 1}, \"8\": {\"In\": 1}, \"9\": {\"In\": 1}, \"10\": {\"In\": 1}, \"11\": {\"In\": 1}, \"12\": {\"In\": 1}, \"13\": {\"In\": 1}, \"14\": {\"In\": 1}, \"15\": {\"In\": 1}, \"16\": {\"O\": 1}, \"17\": {\"O\": 1}, \"18\": {\"O\": 1}, \"19\": {\"O\": 1}, \"20\": {\"O\": 1}, \"21\": {\"O\": 1}, \"22\": {\"O\": 1}, \"23\": {\"O\": 1}, \"24\": {\"O\": 1}, \"25\": {\"O\": 1}, \"26\": {\"O\": 1}, \"27\": {\"O\": 1}, \"28\": {\"O\": 1}, \"29\": {\"O\": 1}, \"30\": {\"O\": 1}, \"31\": {\"O\": 1}, \"32\": {\"O\": 1}, \"33\": {\"O\": 1}, \"34\": {\"O\": 1}, \"35\": {\"O\": 1}, \"36\": {\"O\": 1}, \"37\": {\"O\": 1}, \"38\": {\"O\": 1}, \"39\": {\"O\": 1}}" n_minim_iter=8 energy=-45149.01336681861 stress="0.05024554064395425 -2.8432599083580723e-13 3.5777904488821983e-13 -2.8432599083580723e-13 0.050394358740567025 3.5945703926882544e-13 3.5777904488821983e-13 3.5945703926882544e-13 0.050230829552502035" free_energy=-45149.01336681861 pbc="T T T"
In       2.89244361       4.77592473       9.58534779        0      -0.00196816      -0.00332655      -0.00731995
In      -0.01990911       4.20654709       7.20483867        1      -0.00196816       0.00332655       0.00731995
In       2.93226184       1.78176746      15.59993191        2       0.00196816      -0.00332655       0.00731995
In       5.84461457       1.21238982       1.19025456        3       0.00196816       0.00332655      -0.00731995
In       2.93226184       1.21238982       7.20483867        4       0.00196816       0.00332655       0.00731995
In       5.84461457       1.78176746       9.58534779        5       0.00196816      -0.00332655      -0.00731995
In       2.89244361       4.20654709       1.19025456        6      -0.00196816       0.00332655      -0.00731995
In      -0.01990911       4.77592473      15.59993191        7      -0.00196816      -0.00332655       0.00731995
In       2.87047000       4.43722590      13.72165504        8      -0.00027558      -0.00113142       0.00045684
In       5.78282273       4.54524592       3.06853143        9      -0.00027558       0.00113142      -0.00045684
In       2.95423546       1.44306862      11.46362466       10       0.00027558      -0.00113142      -0.00045684
In       0.04188273       1.55108865       5.32656180       11       0.00027558       0.00113142       0.00045684
In       2.95423546       1.55108865       3.06853143       12       0.00027558       0.00113142      -0.00045684
In       0.04188273       1.44306862      13.72165504       13       0.00027558      -0.00113142       0.00045684
In       2.87047000       4.54524592       5.32656180       14      -0.00027558       0.00113142       0.00045684
In       5.78282273       4.43722590      11.46362466       15      -0.00027558      -0.00113142      -0.00045684
O        4.98829237       5.21248878      13.41071704       16      -0.00559636       0.00372604      -0.00409422
O        2.07593964       3.76998303       3.37946942       17      -0.00559636      -0.00372604       0.00409422
O        0.83641309       2.21833151      11.77456265       18       0.00559636       0.00372604       0.00409422
O        3.74876582       0.77582576       5.01562381       19       0.00559636      -0.00372604      -0.00409422
O        0.83641309       0.77582576       3.37946942       20       0.00559636      -0.00372604       0.00409422
O        3.74876582       2.21833151      13.41071704       21       0.00559636       0.00372604      -0.00409422
O        4.98829237       3.76998303       5.01562381       22      -0.00559636      -0.00372604      -0.00409422
O        2.07593964       5.21248878      11.77456265       23      -0.00559636       0.00372604       0.00409422
O        4.09435352       3.14643180      10.49154986       24       0.00248805      -0.00353113       0.00094510
O        1.18200079       5.83604002       6.29863660       25       0.00248805       0.00353113      -0.00094510
O        1.73035194       0.15227453      14.69372983       26      -0.00248805      -0.00353113      -0.00094510
O        4.64270467       2.84188275       2.09645663       27      -0.00248805       0.00353113       0.00094510
O        1.73035194       2.84188275       6.29863660       28      -0.00248805       0.00353113      -0.00094510
O        4.64270467       0.15227453      10.49154986       29      -0.00248805      -0.00353113       0.00094510
O        4.09435352       5.83604002       2.09645663       30       0.00248805       0.00353113       0.00094510
O        1.18200079       3.14643180      14.69372983       31       0.00248805      -0.00353113      -0.00094510
O        3.76768770       3.94737395      15.93002829       32      -0.00411772       0.00308119       0.00528948
O        0.85533497       5.03509787       0.86015817       33      -0.00411773      -0.00308119      -0.00528948
O        2.05701775       0.95321667       9.25525141       34       0.00411772       0.00308119      -0.00528948
O        4.96937048       2.04094060       7.53493506       35       0.00411773      -0.00308119       0.00528948
O        2.05701775       2.04094060       0.86015817       36       0.00411772      -0.00308119      -0.00528948
O        4.96937048       0.95321667      15.93002829       37       0.00411773       0.00308119       0.00528948
O        3.76768770       5.03509787       7.53493506       38      -0.00411772      -0.00308119       0.00528948
O        0.85533497       3.94737395       9.25525141       39      -0.00411773       0.00308119      -0.00528948
