40
Lattice="5.398794797074301 -3.736638714276697e-42 1.2974225446608013e-83 3.6536235477784905e-42 5.278852281022002 1.7623706295804317e-41 -7.10356076372813e-83 -5.031030218948754e-41 15.069511997888288" Properties=species:S:1:pos:R:3:spacegroup_kinds:I:1:forces:R:3 spacegroup="P 1" unit_cell=conventional occupancy="_JSON {\"0\": {\"In\": 1}, \"1\": {\"In\": 1}, \"2\": {\"In\": 1}, \"3\": {\"In\": 1}, \"4\": {\"In\": 1}, \"5\": {\"In\": 1}, \"6\": {\"In\": 1}, \"7\": {\"In\": 1}, \"8\": {\"In\": 1}, \"9\": {\"In\": 1}, \"10\": {\"In\": 1}, \"11\": {\"In\": 1}, \"12\": {\"In\": 1}, \"13\": {\"In\": 1}, \"14\": {\"In\": 1}, \"15\": {\"In\": 1}, \"16\": {\"O\": 1}, \"17\": {\"O\": 1}, \"18\": {\"O\": 1}, \"19\": {\"O\": 1}, \"20\": {\"O\": 1}, \"21\": {\"O\": 1}, \"22\": {\"O\": 1}, \"23\": {\"O\": 1}, \"24\": {\"O\": 1}, \"25\": {\"O\": 1}, \"26\": {\"O\": 1}, \"27\": {\"O\": 1}, \"28\": {\"O\": 1}, \"29\": {\"O\": 1}, \"30\": {\"O\": 1}, \"31\": {\"O\": 1}, \"32\": {\"O\": 1}, \"33\": {\"O\": 1}, \"34\": {\"O\": 1}, \"35\": {\"O\": 1}, \"36\": {\"O\": 1}, \"37\": {\"O\": 1}, \"38\": {\"O\": 1}, \"39\": {\"O\": 1}}" n_minim_iter=1 energy=-45144.800416857695 stress="-0.18458018621334074 2.6514692722486256e-14 -7.537924884006643e-14 2.6514692722486256e-14 -0.18342308110149835 8.068906370882094e-13 -7.537924884006643e-14 8.068906370882094e-13 -0.1792566610827004" free_energy=-45144.800416857695 pbc="T T T"
In       2.72826786       4.00009864       8.51779515        0      -0.02863927      -0.04861554      -0.01391614
In       0.02887046       3.91817978       6.55171685        1      -0.02863927       0.04861554       0.01391614
In       2.67052693       1.36067250      14.08647285        2       0.02863927      -0.04861554       0.01391614
In       5.36992433       1.27875364       0.98303915        3       0.02863927       0.04861554      -0.01391614
In       2.67052693       1.27875364       6.55171685        4       0.02863927       0.04861554       0.01391614
In       5.36992433       1.36067250       8.51779515        5       0.02863927      -0.04861554      -0.01391614
In       2.72826786       3.91817978       0.98303915        6      -0.02863927       0.04861554      -0.01391614
In       0.02887046       4.00009864      14.08647285        7      -0.02863927      -0.04861554       0.01391614
In       2.73092499       3.76810234      12.29123212        8       0.02741049       0.02026681       0.01270603
In       5.43032239       4.15017608       2.77827988        9       0.02741049      -0.02026681      -0.01270603
In       2.66786981       1.12867620      10.31303588       10      -0.02741049       0.02026681      -0.01270603
In      -0.03152759       1.51074994       4.75647612       11      -0.02741049      -0.02026681       0.01270603
In       2.66786981       1.51074994       2.77827988       12      -0.02741049      -0.02026681      -0.01270603
In      -0.03152759       1.12867620      12.29123212       13      -0.02741049       0.02026681       0.01270603
In       2.73092499       4.15017608       4.75647612       14       0.02741049      -0.02026681       0.01270603
In       5.43032239       3.76810234      10.31303588       15       0.02741049       0.02026681      -0.01270603
O        4.68448921       4.41598156      12.09391528       16      -0.03844936       0.01016376      -0.02552808
O        1.98509182       3.50229687       2.97559672       17      -0.03844936      -0.01016376       0.02552808
O        0.71430558       1.77655542      10.51035272       18       0.03844936       0.01016376       0.02552808
O        3.41370298       0.86287072       4.55915928       19       0.03844936      -0.01016376      -0.02552808
O        0.71430558       0.86287072       2.97559672       20       0.03844936      -0.01016376       0.02552808
O        3.41370298       1.77655542      12.09391528       21       0.03844936       0.01016376      -0.02552808
O        4.68448921       3.50229687       4.55915928       22      -0.03844936      -0.01016376      -0.02552808
O        1.98509182       4.41598156      10.51035272       23      -0.03844936       0.01016376       0.02552808
O        3.85463056       2.57571606       9.44370421       24      -0.07280636      -0.04522030       0.02561881
O        1.15523316       5.34256236       5.62580779       25      -0.07280636       0.04522030      -0.02561881
O        1.54416424      -0.06371008      13.16056378       26       0.07280636      -0.04522030      -0.02561881
O        4.24356164       2.70313622       1.90894821       27       0.07280636       0.04522030       0.02561881
O        1.54416424       2.70313622       5.62580779       28       0.07280636       0.04522030      -0.02561881
O        4.24356164      -0.06371008       9.44370421       29       0.07280636      -0.04522030       0.02561881
O        3.85463056       5.34256236       1.90894821       30      -0.07280636       0.04522030       0.02561881
O        1.15523316       2.57571606      13.16056378       31      -0.07280636      -0.04522030      -0.02561881
O        3.49458912       3.34322270      14.24077216       32       0.03439161       0.01986978      -0.01416467
O        0.79519172       4.57505572       0.82873984       33       0.03439161      -0.01986978       0.01416467
O        1.90420568       0.70379656       8.36349584       34      -0.03439161       0.01986978       0.01416467
O        4.60360308       1.93562958       6.70601616       35      -0.03439161      -0.01986978      -0.01416467
O        1.90420568       1.93562958       0.82873984       36      -0.03439161      -0.01986978       0.01416467
O        4.60360308       0.70379656      14.24077216       37      -0.03439161       0.01986978      -0.01416467
O        3.49458912       4.57505572       6.70601616       38       0.03439161      -0.01986978      -0.01416467
O        0.79519172       3.34322270       8.36349584       39       0.03439161       0.01986978       0.01416467
40
Lattice="5.404797942298869 -3.740235872838868e-42 7.723511873990368e-82 3.6560508111537624e-42 5.281577131347697 -1.0456239961810863e-39 -6.621631185019569e-83 -3.017835103474212e-39 15.045008222562108" Properties=species:S:1:pos:R:3:spacegroup_kinds:I:1:forces:R:3 spacegroup="P 1" unit_cell=conventional occupancy="_JSON {\"0\": {\"In\": 1}, \"1\": {\"In\": 1}, \"2\": {\"In\": 1}, \"3\": {\"In\": 1}, \"4\": {\"In\": 1}, \"5\": {\"In\": 1}, \"6\": {\"In\": 1}, \"7\": {\"In\": 1}, \"8\": {\"In\": 1}, \"9\": {\"In\": 1}, \"10\": {\"In\": 1}, \"11\": {\"In\": 1}, \"12\": {\"In\": 1}, \"13\": {\"In\": 1}, \"14\": {\"In\": 1}, \"15\": {\"In\": 1}, \"16\": {\"O\": 1}, \"17\": {\"O\": 1}, \"18\": {\"O\": 1}, \"19\": {\"O\": 1}, \"20\": {\"O\": 1}, \"21\": {\"O\": 1}, \"22\": {\"O\": 1}, \"23\": {\"O\": 1}, \"24\": {\"O\": 1}, \"25\": {\"O\": 1}, \"26\": {\"O\": 1}, \"27\": {\"O\": 1}, \"28\": {\"O\": 1}, \"29\": {\"O\": 1}, \"30\": {\"O\": 1}, \"31\": {\"O\": 1}, \"32\": {\"O\": 1}, \"33\": {\"O\": 1}, \"34\": {\"O\": 1}, \"35\": {\"O\": 1}, \"36\": {\"O\": 1}, \"37\": {\"O\": 1}, \"38\": {\"O\": 1}, \"39\": {\"O\": 1}}" n_minim_iter=2 energy=-45144.80226210853 stress="-0.1820975473437008 -1.7101004814304127e-13 6.637935537694406e-13 -1.7101004814304127e-13 -0.18226772020552406 -1.1664515644326304e-12 6.637935537694406e-13 -1.1664515644326304e-12 -0.18231840019779705" free_energy=-45144.80226210853 pbc="T T T"
In       2.73126719       4.00210515       8.50392815        0      -0.05756642      -0.06223198      -0.00301795
In       0.02886822       3.92026054       6.54108007        1      -0.05756642       0.06223198       0.00301795
In       2.67353075       1.36131659      14.06358419        2       0.05756642      -0.06223198       0.00301795
In       5.37592972       1.27947198       0.98142404        3       0.05756642       0.06223198      -0.00301795
In       2.67353075       1.27947198       6.54108007        4       0.05756642       0.06223198       0.00301795
In       5.37592972       1.36131659       8.50392815        5       0.05756642      -0.06223198      -0.00301795
In       2.73126719       3.92026054       0.98142404        6      -0.05756642       0.06223198      -0.00301795
In       0.02886822       4.00210515      14.06358419        7      -0.05756642      -0.06223198       0.00301795
In       2.73399449       3.77007166      12.27126116        8       0.04768847       0.01300995       0.02048510
In       5.43639346       4.15229404       2.77374706        9       0.04768847      -0.01300995      -0.02048510
In       2.67080345       1.12928309      10.29625117       10      -0.04768847       0.01300995      -0.02048510
In      -0.03159552       1.51150547       4.74875705       11      -0.04768847      -0.01300995       0.02048510
In       2.67080345       1.51150547       2.77374706       12      -0.04768847      -0.01300995      -0.02048510
In      -0.03159552       1.12928309      12.27126116       13      -0.04768847       0.01300995       0.02048510
In       2.73399449       4.15229404       4.74875705       14       0.04768847      -0.01300995       0.02048510
In       5.43639346       3.77007166      10.29625117       15       0.04768847       0.01300995      -0.02048510
O        4.68965198       4.41827319      12.07421944       16      -0.05943727       0.02117705      -0.01753964
O        1.98725301       3.50409251       2.97078878       17      -0.05943727      -0.02117705       0.01753964
O        0.71514596       1.77748462      10.49329289       18       0.05943727       0.02117705       0.01753964
O        3.41754493       0.86330394       4.55171533       19       0.05943727      -0.02117705      -0.01753964
O        0.71514596       0.86330394       2.97078878       20       0.05943727      -0.02117705       0.01753964
O        3.41754493       1.77748462      12.07421944       21       0.05943727       0.02117705      -0.01753964
O        4.68965198       3.50409251       4.55171533       22      -0.05943727      -0.02117705      -0.01753964
O        1.98725301       4.41827319      10.49329289       23      -0.05943727       0.02117705       0.01753964
O        3.85882937       2.57699140       9.42837892       24      -0.06789028      -0.04352359       0.02957524
O        1.15643040       5.34537429       5.61662930       25      -0.06789028       0.04352359      -0.02957524
O        1.54596857      -0.06379716      13.13913342       26       0.06789028      -0.04352359      -0.02957524
O        4.24836754       2.70458573       1.90587481       27       0.06789028       0.04352359       0.02957524
O        1.54596857       2.70458573       5.61662930       28       0.06789028       0.04352359      -0.02957524
O        4.24836754      -0.06379716       9.42837892       29       0.06789028      -0.04352359       0.02957524
O        3.85882937       5.34537429       1.90587481       30      -0.06789028       0.04352359       0.02957524
O        1.15643040       2.57699140      13.13913342       31      -0.06789028      -0.04352359      -0.02957524
O        3.49851614       3.34497223      14.21759901       32       0.05869382       0.01750850      -0.02797638
O        0.79611717       4.57739347       0.82740921       33       0.05869382      -0.01750850       0.02797638
O        1.90628180       0.70418366       8.34991332       34      -0.05869382       0.01750850       0.02797638
O        4.60868077       1.93660490       6.69509490       35      -0.05869382      -0.01750850      -0.02797638
O        1.90628180       1.93660490       0.82740921       36      -0.05869382      -0.01750850       0.02797638
O        4.60868077       0.70418366      14.21759901       37      -0.05869382       0.01750850      -0.02797638
O        3.49851614       4.57739347       6.69509490       38       0.05869382      -0.01750850      -0.02797638
O        0.79611717       3.34497223       8.34991332       39       0.05869382       0.01750850       0.02797638
40
Lattice="5.40429101625184 -3.7399790585691137e-42 7.863572843600427e-82 3.658097798106174e-42 5.284668146093824 -1.0646538089892515e-39 -6.581172069998974e-83 -3.0750307909851804e-39 15.037618768321115" Properties=species:S:1:pos:R:3:spacegroup_kinds:I:1:forces:R:3 spacegroup="P 1" unit_cell=conventional occupancy="_JSON {\"0\": {\"In\": 1}, \"1\": {\"In\": 1}, \"2\": {\"In\": 1}, \"3\": {\"In\": 1}, \"4\": {\"In\": 1}, \"5\": {\"In\": 1}, \"6\": {\"In\": 1}, \"7\": {\"In\": 1}, \"8\": {\"In\": 1}, \"9\": {\"In\": 1}, \"10\": {\"In\": 1}, \"11\": {\"In\": 1}, \"12\": {\"In\": 1}, \"13\": {\"In\": 1}, \"14\": {\"In\": 1}, \"15\": {\"In\": 1}, \"16\": {\"O\": 1}, \"17\": {\"O\": 1}, \"18\": {\"O\": 1}, \"19\": {\"O\": 1}, \"20\": {\"O\": 1}, \"21\": {\"O\": 1}, \"22\": {\"O\": 1}, \"23\": {\"O\": 1}, \"24\": {\"O\": 1}, \"25\": {\"O\": 1}, \"26\": {\"O\": 1}, \"27\": {\"O\": 1}, \"28\": {\"O\": 1}, \"29\": {\"O\": 1}, \"30\": {\"O\": 1}, \"31\": {\"O\": 1}, \"32\": {\"O\": 1}, \"33\": {\"O\": 1}, \"34\": {\"O\": 1}, \"35\": {\"O\": 1}, \"36\": {\"O\": 1}, \"37\": {\"O\": 1}, \"38\": {\"O\": 1}, \"39\": {\"O\": 1}}" n_minim_iter=3 energy=-45144.80438511424 stress="-0.18287772472316557 2.2499022759621604e-14 -2.145140441869157e-13 2.2499022759621604e-14 -0.18087904702877403 1.2672587365524188e-12 -2.145140441869157e-13 1.2672587365524188e-12 -0.18232997364545825" free_energy=-45144.80438511424 pbc="T T T"
In       2.73014728       4.00350031       8.49969672        0      -0.01755240      -0.02356369       0.00131998
In       0.02800177       3.92350191       6.53792205        1      -0.01755240       0.02356369      -0.00131998
In       2.67414374       1.36116624      14.05673143        2       0.01755240      -0.02356369      -0.00131998
In       5.37628924       1.28116783       0.98088733        3       0.01755240       0.02356369       0.00131998
In       2.67414374       1.28116783       6.53792205        4       0.01755240       0.02356369      -0.00131998
In       5.37628924       1.36116624       8.49969672        5       0.01755240      -0.02356369       0.00131998
In       2.73014728       3.92350191       0.98088733        6      -0.01755240       0.02356369       0.00131998
In       0.02800177       4.00350031      14.05673143        7      -0.01755240      -0.02356369      -0.00131998
In       2.73445647       3.77248394      12.26554159        8       0.02121678      -0.01871444       0.01015739
In       5.43660198       4.15451828       2.77207718        9       0.02121678       0.01871444      -0.01015739
In       2.66983455       1.13014986      10.29088656       10      -0.02121678      -0.01871444      -0.01015739
In      -0.03231096       1.51218421       4.74673221       11      -0.02121678       0.01871444       0.01015739
In       2.66983455       1.51218421       2.77207718       12      -0.02121678       0.01871444      -0.01015739
In      -0.03231096       1.13014986      12.26554159       13      -0.02121678      -0.01871444       0.01015739
In       2.73445647       4.15451828       4.74673221       14       0.02121678       0.01871444       0.01015739
In       5.43660198       3.77248394      10.29088656       15       0.02121678      -0.01871444      -0.01015739
O        4.68831340       4.42117626      12.06801441       16      -0.03052338       0.03467891      -0.02143333
O        1.98616789       3.50582596       2.96960436       17      -0.03052338      -0.03467891       0.02143333
O        0.71597762       1.77884219      10.48841375       18       0.03052338       0.03467891       0.02143333
O        3.41812313       0.86349189       4.54920502       19       0.03052338      -0.03467891      -0.02143333
O        0.71597762       0.86349189       2.96960436       20       0.03052338      -0.03467891       0.02143333
O        3.41812313       1.77884219      12.06801441       21       0.03052338       0.03467891      -0.02143333
O        4.68831340       3.50582596       4.54920502       22      -0.03052338      -0.03467891      -0.02143333
O        1.98616789       4.42117626      10.48841375       23      -0.03052338       0.03467891       0.02143333
O        3.85741836       2.57782848       9.42419777       24      -0.03499924      -0.03222300       0.02054516
O        1.15527286       5.34917374       5.61342100       25      -0.03499924       0.03222300      -0.02054516
O        1.54687265      -0.06450559      13.13223038       26       0.03499924      -0.03222300      -0.02054516
O        4.24901816       2.70683967       1.90538839       27       0.03499924       0.03222300       0.02054516
O        1.54687265       2.70683967       5.61342100       28       0.03499924       0.03222300      -0.02054516
O        4.24901816      -0.06450559       9.42419777       29       0.03499924      -0.03222300       0.02054516
O        3.85741836       5.34917374       1.90538839       30      -0.03499924       0.03222300       0.02054516
O        1.15527286       2.57782848      13.13223038       31      -0.03499924      -0.03222300      -0.02054516
O        3.49907272       3.34720113      14.21019842       32       0.01707917      -0.00785978      -0.00887163
O        0.79692721       4.57980109       0.82742035       33       0.01707917       0.00785978       0.00887163
O        1.90521830       0.70486706       8.34622973       34      -0.01707917      -0.00785978       0.00887163
O        4.60736381       1.93746702       6.69138904       35      -0.01707917       0.00785978      -0.00887163
O        1.90521830       1.93746702       0.82742035       36      -0.01707917       0.00785978       0.00887163
O        4.60736381       0.70486706      14.21019842       37      -0.01707917      -0.00785978      -0.00887163
O        3.49907272       4.57980109       6.69138904       38       0.01707917       0.00785978      -0.00887163
O        0.79692721       3.34720113       8.34622973       39       0.01707917      -0.00785978       0.00887163
40
Lattice="5.4101568146350925 -3.7453380297878626e-42 8.311089646079773e-82 3.6528067872603314e-42 5.278828996097524 -1.1297877769552806e-39 -6.568268780070871e-83 -3.258549449879701e-39 15.03793043767966" Properties=species:S:1:pos:R:3:spacegroup_kinds:I:1:forces:R:3 spacegroup="P 1" unit_cell=conventional occupancy="_JSON {\"0\": {\"In\": 1}, \"1\": {\"In\": 1}, \"2\": {\"In\": 1}, \"3\": {\"In\": 1}, \"4\": {\"In\": 1}, \"5\": {\"In\": 1}, \"6\": {\"In\": 1}, \"7\": {\"In\": 1}, \"8\": {\"In\": 1}, \"9\": {\"In\": 1}, \"10\": {\"In\": 1}, \"11\": {\"In\": 1}, \"12\": {\"In\": 1}, \"13\": {\"In\": 1}, \"14\": {\"In\": 1}, \"15\": {\"In\": 1}, \"16\": {\"O\": 1}, \"17\": {\"O\": 1}, \"18\": {\"O\": 1}, \"19\": {\"O\": 1}, \"20\": {\"O\": 1}, \"21\": {\"O\": 1}, \"22\": {\"O\": 1}, \"23\": {\"O\": 1}, \"24\": {\"O\": 1}, \"25\": {\"O\": 1}, \"26\": {\"O\": 1}, \"27\": {\"O\": 1}, \"28\": {\"O\": 1}, \"29\": {\"O\": 1}, \"30\": {\"O\": 1}, \"31\": {\"O\": 1}, \"32\": {\"O\": 1}, \"33\": {\"O\": 1}, \"34\": {\"O\": 1}, \"35\": {\"O\": 1}, \"36\": {\"O\": 1}, \"37\": {\"O\": 1}, \"38\": {\"O\": 1}, \"39\": {\"O\": 1}}" n_minim_iter=4 energy=-45144.805421885525 stress="-0.18146816776607616 -1.3944911574776642e-12 7.602546821518998e-13 -1.3944911574776642e-12 -0.18250148346816605 3.0610681254776814e-13 7.602546821518998e-13 3.0610681254776814e-13 -0.18189440431837078" free_energy=-45144.805421885525 pbc="T T T"
In       2.73253142       3.99842926       8.49984294        0      -0.00222808      -0.02428175      -0.00227509
In       0.02745301       3.91981423       6.53808750        1      -0.00222808       0.02428175       0.00227509
In       2.67762540       1.35901476      14.05705272        2       0.00222808      -0.02428175       0.00227509
In       5.38270381       1.28039974       0.98087772        3       0.00222808       0.02428175      -0.00227509
In       2.67762540       1.28039974       6.53808750        4       0.00222808       0.02428175       0.00227509
In       5.38270381       1.35901476       8.49984294        5       0.00222808      -0.02428175      -0.00227509
In       2.73253142       3.91981423       0.98087772        6      -0.00222808       0.02428175      -0.00227509
In       0.02745301       3.99842926      14.05705272        7      -0.00222808      -0.02428175       0.00227509
In       2.73792625       3.76838524      12.26601349        8       0.01106908      -0.00302085      -0.00628397
In       5.44300466       4.14985826       2.77191695        9       0.01106908       0.00302085       0.00628397
In       2.67223056       1.12897074      10.29088216       10      -0.01106908      -0.00302085       0.00628397
In      -0.03284785       1.51044376       4.74704827       11      -0.01106908       0.00302085      -0.00628397
In       2.67223056       1.51044376       2.77191695       12      -0.01106908       0.00302085       0.00628397
In      -0.03284785       1.12897074      12.26601349       13      -0.01106908      -0.00302085      -0.00628397
In       2.73792625       4.14985826       4.74704827       14       0.01106908       0.00302085      -0.00628397
In       5.44300466       3.76838524      10.29088216       15       0.01106908      -0.00302085       0.00628397
O        4.69276209       4.41658832      12.06803241       16      -0.02854550       0.01666829      -0.02098138
O        1.98768368       3.50165517       2.96989803       17      -0.02854550      -0.01666829       0.02098138
O        0.71739472       1.77717383      10.48886325       18       0.02854550       0.01666829       0.02098138
O        3.42247313       0.86224067       4.54906719       19       0.02854550      -0.01666829      -0.02098138
O        0.71739472       0.86224067       2.96989803       20       0.02854550      -0.01666829       0.02098138
O        3.42247313       1.77717383      12.06803241       21       0.02854550       0.01666829      -0.02098138
O        4.69276209       3.50165517       4.54906719       22      -0.02854550      -0.01666829      -0.02098138
O        1.98768368       4.41658832      10.48886325       23      -0.02854550       0.01666829       0.02098138
O        3.86085862       2.57447414       9.42472876       24      -0.00443757      -0.02811597       0.01485501
O        1.15578021       5.34376935       5.61320168       25      -0.00443757       0.02811597      -0.01485501
O        1.54929819      -0.06494035      13.13216690       26       0.00443757      -0.02811597      -0.01485501
O        4.25437660       2.70435485       1.90576354       27       0.00443757       0.02811597       0.01485501
O        1.54929819       2.70435485       5.61320168       28       0.00443757       0.02811597      -0.01485501
O        4.25437660      -0.06494035       9.42472876       29       0.00443757      -0.02811597       0.01485501
O        3.86085862       5.34376935       1.90576354       30      -0.00443757       0.02811597       0.01485501
O        1.15578021       2.57447414      13.13216690       31      -0.00443757      -0.02811597      -0.01485501
O        3.50346136       3.34364459      14.21021227       32       0.00101793      -0.00504621       0.00897966
O        0.79838295       4.57459890       0.82771817       33       0.00101793       0.00504621      -0.00897966
O        1.90669545       0.70423009       8.34668339       34      -0.00101793      -0.00504621      -0.00897966
O        4.61177386       1.93518440       6.69124705       35      -0.00101793       0.00504621       0.00897966
O        1.90669545       1.93518440       0.82771817       36      -0.00101793       0.00504621      -0.00897966
O        4.61177386       0.70423009      14.21021227       37      -0.00101793      -0.00504621       0.00897966
O        3.50346136       4.57459890       6.69124705       38       0.00101793       0.00504621       0.00897966
O        0.79838295       3.34364459       8.34668339       39       0.00101793      -0.00504621      -0.00897966
40
Lattice="5.409762145726567 -3.7451098279260376e-42 8.510854532460607e-82 3.6539202887809444e-42 5.280500866788283 -1.1575362739537074e-39 -6.556345330484187e-83 -3.339532583880083e-39 15.034265990370917" Properties=species:S:1:pos:R:3:spacegroup_kinds:I:1:forces:R:3 spacegroup="P 1" unit_cell=conventional occupancy="_JSON {\"0\": {\"In\": 1}, \"1\": {\"In\": 1}, \"2\": {\"In\": 1}, \"3\": {\"In\": 1}, \"4\": {\"In\": 1}, \"5\": {\"In\": 1}, \"6\": {\"In\": 1}, \"7\": {\"In\": 1}, \"8\": {\"In\": 1}, \"9\": {\"In\": 1}, \"10\": {\"In\": 1}, \"11\": {\"In\": 1}, \"12\": {\"In\": 1}, \"13\": {\"In\": 1}, \"14\": {\"In\": 1}, \"15\": {\"In\": 1}, \"16\": {\"O\": 1}, \"17\": {\"O\": 1}, \"18\": {\"O\": 1}, \"19\": {\"O\": 1}, \"20\": {\"O\": 1}, \"21\": {\"O\": 1}, \"22\": {\"O\": 1}, \"23\": {\"O\": 1}, \"24\": {\"O\": 1}, \"25\": {\"O\": 1}, \"26\": {\"O\": 1}, \"27\": {\"O\": 1}, \"28\": {\"O\": 1}, \"29\": {\"O\": 1}, \"30\": {\"O\": 1}, \"31\": {\"O\": 1}, \"32\": {\"O\": 1}, \"33\": {\"O\": 1}, \"34\": {\"O\": 1}, \"35\": {\"O\": 1}, \"36\": {\"O\": 1}, \"37\": {\"O\": 1}, \"38\": {\"O\": 1}, \"39\": {\"O\": 1}}" n_minim_iter=5 energy=-45144.80600629032 stress="-0.18184082198243165 -2.8599718321332705e-13 7.531860276221855e-13 -2.8599718321332705e-13 -0.18183680974953362 8.336607361402502e-13 7.531860276221855e-13 8.336607361402502e-13 -0.18184391253371707" free_energy=-45144.80600629032 pbc="T T T"
In       2.73204626       3.99902113       8.49773301        0       0.01148982      -0.00814809       0.00682879
In       0.02716519       3.92173017       6.53653298        1       0.01148982       0.00814809      -0.00682879
In       2.67771588       1.35877070      14.05366598        2      -0.01148982      -0.00814809      -0.00682879
In       5.38259695       1.28147973       0.98060001        3      -0.01148982       0.00814809       0.00682879
In       2.67771588       1.28147973       6.53653298        4      -0.01148982       0.00814809      -0.00682879
In       5.38259695       1.35877070       8.49773301        5      -0.01148982      -0.00814809       0.00682879
In       2.73204626       3.92173017       0.98060001        6       0.01148982       0.00814809       0.00682879
In       0.02716519       3.99902113      14.05366598        7       0.01148982      -0.00814809      -0.00682879
In       2.73814916       3.76944092      12.26305019        8      -0.00362688      -0.01928282      -0.00680796
In       5.44303023       4.15131038       2.77121580        9      -0.00362688       0.01928282       0.00680796
In       2.67161299       1.12919049      10.28834880       10       0.00362688      -0.01928282       0.00680796
In      -0.03326808       1.51105994       4.74591719       11       0.00362688       0.01928282      -0.00680796
In       2.67161299       1.51105994       2.77121580       12       0.00362688       0.01928282       0.00680796
In      -0.03326808       1.12919049      12.26305019       13       0.00362688      -0.01928282      -0.00680796
In       2.73814916       4.15131038       4.74591719       14      -0.00362688       0.01928282      -0.00680796
In       5.44303023       3.76944092      10.28834880       15      -0.00362688      -0.01928282       0.00680796
O        4.69164302       4.41852343      12.06458443       16      -0.01139955       0.02057158      -0.01574363
O        1.98676195       3.50222787       2.96968156       17      -0.01139955      -0.02057158       0.01574363
O        0.71811912       1.77827300      10.48681456       18       0.01139955       0.02057158       0.01574363
O        3.42300020       0.86197743       4.54745143       19       0.01139955      -0.02057158      -0.01574363
O        0.71811912       0.86197743       2.96968156       20       0.01139955      -0.02057158       0.01574363
O        3.42300020       1.77827300      12.06458443       21       0.01139955       0.02057158      -0.01574363
O        4.69164302       3.50222787       4.54745143       22      -0.01139955      -0.02057158      -0.01574363
O        1.98676195       4.41852343      10.48681456       23      -0.01139955       0.02057158       0.01574363
O        3.86008864       2.57453620       9.42286643       24       0.01059892      -0.01704196       0.00853800
O        1.15520757       5.34621510       5.61139957       25       0.01059892       0.01704196      -0.00853800
O        1.54967351      -0.06571423      13.12853256       26      -0.01059892      -0.01704196      -0.00853800
O        4.25455458       2.70596467       1.90573343       27      -0.01059892       0.01704196       0.00853800
O        1.54967351       2.70596467       5.61139957       28      -0.01059892       0.01704196      -0.00853800
O        4.25455458      -0.06571423       9.42286643       29      -0.01059892      -0.01704196       0.00853800
O        3.86008864       5.34621510       1.90573343       30       0.01059892       0.01704196       0.00853800
O        1.15520757       2.57453620      13.12853256       31       0.01059892      -0.01704196      -0.00853800
O        3.50347609       3.34462029      14.20675704       32      -0.01387825      -0.01706252       0.01236894
O        0.79859502       4.57613101       0.82750895       33      -0.01387825       0.01706252      -0.01236894
O        1.90628605       0.70436986       8.34464194       34       0.01387825      -0.01706252      -0.01236894
O        4.61116712       1.93588058       6.68962405       35       0.01387825       0.01706252       0.01236894
O        1.90628605       1.93588058       0.82750895       36       0.01387825       0.01706252      -0.01236894
O        4.61116712       0.70436986      14.20675704       37       0.01387825      -0.01706252       0.01236894
O        3.50347609       4.57613101       6.68962405       38      -0.01387825       0.01706252       0.01236894
O        0.79859502       3.34462029       8.34464194       39      -0.01387825      -0.01706252      -0.01236894
40