10
Lattice="5.091291205104542 -0.38968994824541503 -0.26907543335118844 2.467919968135124 4.470176218206426 -0.2690754333511842 2.467919968135126 1.3321910599597806 4.275528504221981" Properties=species:S:1:pos:R:3:spacegroup_kinds:I:1:forces:R:3 spacegroup="P 1" unit_cell=conventional occupancy="_JSON {\"0\": {\"In\": 1}, \"1\": {\"In\": 1}, \"2\": {\"In\": 1}, \"3\": {\"In\": 1}, \"4\": {\"O\": 1}, \"5\": {\"O\": 1}, \"6\": {\"O\": 1}, \"7\": {\"O\": 1}, \"8\": {\"O\": 1}, \"9\": {\"O\": 1}}" n_minim_iter=1 energy=-11289.244043892377 stress="0.23559302187032763 -0.010781886734670055 -0.007444741286144033 -0.010781886734670055 0.24974666183896904 -0.004018695056659842 -0.007444741286144033 -0.004018695056659842 0.25279190617647324" free_energy=-11289.244043892377 pbc="T T T"
In       8.84314033       4.77355532       3.29607287        0       0.42607975       0.22999921       0.15881122
In       6.19755637       3.34546067       2.30999358        1      -0.42607975      -0.22999921      -0.15881122
In       3.82957476       2.06721666       1.42738405        2       0.42607975       0.22999921       0.15881122
In       1.18399080       0.63912201       0.44130476        3      -0.42607975      -0.22999921      -0.15881122
O        5.05242838       1.73970453      -0.04218028        4       0.00000000      -0.04752736       0.06883175
O        5.80035165       4.29380863       0.66526897        5       0.03973311      -0.07360665      -0.00000000
O        6.77242509       1.50540389       2.09558398        6      -0.03973311       0.02607930       0.06883175
O        3.25470604       3.90727344       1.64179366        7       0.03973311      -0.02607930      -0.06883175
O        4.97470275       3.67297280       3.77955791        8      -0.00000000       0.04752736      -0.06883175
O        4.22677948       1.11886869       3.07210866        9      -0.03973311       0.07360665       0.00000000
10
Lattice="5.1007290470181985 -0.3786184017483142 -0.2614306860720025 2.4823545862402456 4.471991101669329 -0.2614306860719984 2.482354586240248 1.3399829127920695 4.274517073361033" Properties=species:S:1:pos:R:3:spacegroup_kinds:I:1:forces:R:3 spacegroup="P 1" unit_cell=conventional occupancy="_JSON {\"0\": {\"In\": 1}, \"1\": {\"In\": 1}, \"2\": {\"In\": 1}, \"3\": {\"In\": 1}, \"4\": {\"O\": 1}, \"5\": {\"O\": 1}, \"6\": {\"O\": 1}, \"7\": {\"O\": 1}, \"8\": {\"O\": 1}, \"9\": {\"O\": 1}}" n_minim_iter=2 energy=-11289.250839169148 stress="0.25047957254968667 0.0014383412416330407 0.0009931544187679593 0.0014383412416330407 0.24859142768555498 0.000536107913702441 0.0009931544187679593 0.000536107913702441 0.24818518148483315" free_energy=-11289.250839169148 pbc="T T T"
In       8.87773515       4.79222971       3.30896728        0       0.35824450       0.19338152       0.13352722
In       6.22042217       3.35780370       2.31851627        1      -0.35824450      -0.19338152      -0.13352722
In       3.84501604       2.07555191       1.43313943        2       0.35824450       0.19338152       0.13352722
In       1.18770306       0.64112590       0.44268842        3      -0.35824450      -0.19338152      -0.13352722
O        5.06672407       1.74921256      -0.03305437        4      -0.00000000       0.01468979      -0.02127457
O        5.82286560       4.30356712       0.67648324        5      -0.01228074       0.02275040      -0.00000000
O        6.79293713       1.52066215       2.10420416        6       0.01228074      -0.00806061      -0.02127457
O        3.27250108       3.91269346       1.64745154        7      -0.01228074       0.00806061       0.02127457
O        4.99871413       3.68414305       3.78471007        8       0.00000000      -0.01468979       0.02127457
O        4.24257260       1.12978849       3.07517246        9       0.01228074      -0.02275040       0.00000000
10
Lattice="5.0935723586585935 -0.3870096792991934 -0.2672247453068869 2.4714124051256463 4.470612551827005 -0.26722474530688267 2.4714124051256494 1.334076288571859 4.2752808222768" Properties=species:S:1:pos:R:3:spacegroup_kinds:I:1:forces:R:3 spacegroup="P 1" unit_cell=conventional occupancy="_JSON {\"0\": {\"In\": 1}, \"1\": {\"In\": 1}, \"2\": {\"In\": 1}, \"3\": {\"In\": 1}, \"4\": {\"O\": 1}, \"5\": {\"O\": 1}, \"6\": {\"O\": 1}, \"7\": {\"O\": 1}, \"8\": {\"O\": 1}, \"9\": {\"O\": 1}}" n_minim_iter=3 energy=-11289.284192496649 stress="0.2715817046457065 0.0013861200266612954 0.0009570963980613315 0.0013861200266612954 0.26976211181390014 0.0005166436814837621 0.0009570963980613315 0.0005166436814837621 0.2693706150089269" free_energy=-11289.284192496649 pbc="T T T"
In       8.88151091       4.79426788       3.31037460        0       0.08877294       0.04791991       0.03308803
In       6.17308483       3.33225086       2.30087239        1      -0.08877294      -0.04791991      -0.03308803
In       3.86331233       2.08542830       1.43995894        2       0.08877294       0.04791991       0.03308803
In       1.15488624       0.62341128       0.43045672        3      -0.08877294      -0.04791991      -0.03308803
O        5.05588547       1.74260354      -0.04083818        4      -0.00000000      -0.03026123       0.04382599
O        5.80529711       4.29709505       0.66798309        5       0.02529854      -0.04686623      -0.00000000
O        6.77788623       1.50876786       2.09680223        6      -0.02529854       0.01660500       0.04382599
O        3.25851093       3.90891130       1.64402910        7       0.02529854      -0.01660500      -0.04382599
O        4.98051169       3.67507562       3.78166951        8      -0.00000000       0.03026123      -0.04382599
O        4.23110005       1.12058411       3.07284824        9      -0.02529854       0.04686623       0.00000000
10
Lattice="4.8993501767268155 -0.6261394226947136 -0.4323404728770174 2.1649247932767786 4.439457553609554 -0.4323404728770137 2.16492479327678 1.1686332994290551 4.3046484021641" Properties=species:S:1:pos:R:3:spacegroup_kinds:I:1:forces:R:3 spacegroup="P 1" unit_cell=conventional occupancy="_JSON {\"0\": {\"In\": 1}, \"1\": {\"In\": 1}, \"2\": {\"In\": 1}, \"3\": {\"In\": 1}, \"4\": {\"O\": 1}, \"5\": {\"O\": 1}, \"6\": {\"O\": 1}, \"7\": {\"O\": 1}, \"8\": {\"O\": 1}, \"9\": {\"O\": 1}}" n_minim_iter=4 energy=-11323.403310714242 stress="0.2824817967357931 0.08389346428473922 0.057927258212469225 0.08389346428473922 0.17235284447455515 0.03126931850116114 0.057927258212469225 0.03126931850116114 0.14865791025609443" free_energy=-11323.403310714242 pbc="T T T"
In       8.64440140       4.66627542       3.22199760        0      14.60493475       7.88379030       5.44364642
In       5.19939823       2.80665173       1.93795358        1     -14.60493474      -7.88379030      -5.44364642
In       4.02980152       2.17529970       1.50201387        2      14.60493475       7.88379030       5.44364642
In       0.58479835       0.31567602       0.21796985        3     -14.60493475      -7.88379030      -5.44364642
O        4.75697502       1.51310709      -0.19716428        4      -0.00000000       0.78109131      -1.13121971
O        5.35397856       4.05147258       0.42765139        5      -0.65299623       1.20969318      -0.00000000
O        6.32489628       1.19809808       1.95515993        6       0.65299623      -0.42860187      -1.13121971
O        2.90430348       3.78385335       1.48480753        7      -0.65299623       0.42860187       1.13121971
O        4.47222473       3.46884434       3.63713173        8       0.00000000      -0.78109131       1.13121971
O        3.87522119       0.93047885       3.01231606        9       0.65299623      -1.20969318      -0.00000000
