10
Lattice="5.797661016870086 -0.020631086650968303 -0.014245475425040819 3.16405556334764 4.858194242753207 -0.014245475425040385 3.1640555633476404 1.7079672716830072 4.5480877336250005" Properties=species:S:1:pos:R:3:spacegroup_kinds:I:1:forces:R:3 spacegroup="P 1" unit_cell=conventional occupancy="_JSON {\"0\": {\"In\": 1}, \"1\": {\"In\": 1}, \"2\": {\"In\": 1}, \"3\": {\"In\": 1}, \"4\": {\"O\": 1}, \"5\": {\"O\": 1}, \"6\": {\"O\": 1}, \"7\": {\"O\": 1}, \"8\": {\"O\": 1}, \"9\": {\"O\": 1}}" n_minim_iter=3 energy=-11287.678051374643 stress="-0.0049613161389486645 5.7919880380755805e-06 3.999287417750096e-06 5.7919880380755805e-06 -0.004968919418036474 2.158828433391513e-06 3.999287417750096e-06 2.158828433391513e-06 -0.004970555311281622" free_energy=-11287.678051374643 pbc="T T T"
In      10.39832065       5.61304661       3.87572981        0       0.00506303       0.00273304       0.00188713
In       7.79033758       4.20524904       2.90366537        1      -0.00506303      -0.00273304      -0.00188713
In       4.33543457       2.34028140       1.61593142        2       0.00506303       0.00273304       0.00188713
In       1.72745151       0.93248383       0.64386698        3      -0.00506303      -0.00273304      -0.00188713
O        5.93027355       2.26858694       0.19224358        4       0.00000000       0.00429246      -0.00621658
O        6.97515151       5.05024876       1.11565372        5      -0.00358852       0.00664783       0.00000000
O        8.04945115       2.12748601       2.46628745        6       0.00358852      -0.00235537      -0.00621658
O        4.07632100       4.41804443       2.05330934        7      -0.00358852       0.00235537       0.00621658
O        6.19549860       4.27694350       4.32735320        8       0.00000000      -0.00429246       0.00621658
O        5.15062064       1.49528168       3.40394306        9       0.00358852      -0.00664783      -0.00000000
