10
Lattice="5.733729106301418 -0.03495731836212884 -0.024137537109790073 3.116997926238166 4.81260796308842 -0.0241375371097892 3.116997926238168 1.6825654092768085 4.508963480733118" Properties=species:S:1:pos:R:3:spacegroup_kinds:I:1:forces:R:3 spacegroup="P 1" unit_cell=conventional occupancy="_JSON {\"0\": {\"In\": 1}, \"1\": {\"In\": 1}, \"2\": {\"In\": 1}, \"3\": {\"In\": 1}, \"4\": {\"O\": 1}, \"5\": {\"O\": 1}, \"6\": {\"O\": 1}, \"7\": {\"O\": 1}, \"8\": {\"O\": 1}, \"9\": {\"O\": 1}}" n_minim_iter=3 energy=-11287.651564558299 stress="-0.011506388900713305 1.2226577516135865e-05 8.442281992526618e-06 1.2226577516135865e-05 -0.011522439032586426 4.5571700320635765e-06 8.442281992526618e-06 4.5571700320635765e-06 -0.011525892316762525" free_energy=-11287.651564558299 pbc="T T T"
In      10.26467157       5.54090241       3.82591525        0       0.00517583       0.00279393       0.00192917
In       7.68691588       4.14942168       2.86511736        1      -0.00517583      -0.00279393      -0.00192917
In       4.28080909       2.31079439       1.59557105        2       0.00517583       0.00279393       0.00192917
In       1.70305340       0.91931365       0.63477316        3      -0.00517583      -0.00279393      -0.00192917
O        5.85879580       2.23503965       0.17989224        4       0.00000000       0.00355989      -0.00515562
O        6.88437144       4.99113421       1.09103457        5      -0.00297608       0.00551327       0.00000000
O        7.95021808       2.08906748       2.43437398        6       0.00297608      -0.00195339      -0.00515562
O        4.01750688       4.37114858       2.02631443        7      -0.00297608       0.00195339       0.00515562
O        6.10892917       4.22517642       4.28079617        8      -0.00000000      -0.00355989       0.00515562
O        5.08335353       1.46908186       3.36965384        9       0.00297608      -0.00551327      -0.00000000
