10
Lattice="5.23848139263894 -0.28459263313626915 -0.1965072140928592 2.6365483189286434 4.535558756075633 -0.19650721409285554 2.636548318928645 1.4232171808565 4.310958265991422" Properties=species:S:1:pos:R:3:spacegroup_kinds:I:1:forces:R:3 spacegroup="P 1" unit_cell=conventional occupancy="_JSON {\"0\": {\"In\": 1}, \"1\": {\"In\": 1}, \"2\": {\"In\": 1}, \"3\": {\"In\": 1}, \"4\": {\"O\": 1}, \"5\": {\"O\": 1}, \"6\": {\"O\": 1}, \"7\": {\"O\": 1}, \"8\": {\"O\": 1}, \"9\": {\"O\": 1}}" n_minim_iter=9 energy=-11287.858088419607 stress="0.1328161561015479 0.000607047168083676 0.0004191575373594367 0.000607047168083676 0.13201927079672038 0.00022626257259258394 0.0004191575373594367 0.00022626257259258394 0.13184781593243297" free_energy=-11287.858088419607 pbc="T T T"
In       9.20343341       4.96804267       3.43036365        0      -0.00385515      -0.00208102      -0.00143692
In       6.56393364       3.54323229       2.44655211        1       0.00385515       0.00208102       0.00143692
In       3.94764440       2.13095102       1.47139174        2      -0.00385515      -0.00208102      -0.00143692
In       1.30814463       0.70614064       0.48758019        3       0.00385515       0.00208102       0.00143692
O        5.24713521       1.90038952      -0.02268177        4       0.00000000      -0.00306239       0.00443513
O        6.04362522       4.51064815       0.78297875        5       0.00256018      -0.00474280       0.00000000
O        7.08719352       1.64537885       2.13279736        6      -0.00256018       0.00168040       0.00443513
O        3.42438452       4.02880446       1.78514648        7       0.00256018      -0.00168040      -0.00443513
O        5.26444283       3.77379380       3.94062561        8      -0.00000000       0.00306239      -0.00443513
O        4.46795282       1.16353517       3.13496509        9      -0.00256018       0.00474280      -0.00000000
