10
Lattice="5.465769933517432 -0.09601874815935423 -0.0662995963512661 2.9189152146052457 4.622098499176238 -0.06629959635126118 2.9189152146052453 1.5756397305768663 4.345750753551251" Properties=species:S:1:pos:R:3:spacegroup_kinds:I:1:forces:R:3 spacegroup="P 1" unit_cell=conventional occupancy="_JSON {\"0\": {\"In\": 1}, \"1\": {\"In\": 1}, \"2\": {\"In\": 1}, \"3\": {\"In\": 1}, \"4\": {\"O\": 1}, \"5\": {\"O\": 1}, \"6\": {\"O\": 1}, \"7\": {\"O\": 1}, \"8\": {\"O\": 1}, \"9\": {\"O\": 1}}" n_minim_iter=6 energy=-11287.515542945008 stress="0.0028992859951711657 3.279661135811e-05 2.264560100453517e-05 3.279661135811e-05 0.0028562331018565155 1.2224168729279321e-05 2.264560100453517e-05 1.2224168729279321e-05 0.0028469699994690518" free_energy=-11287.515542945008 pbc="T T T"
In       9.74024787       5.25781683       3.63044864        0       0.00061608       0.00033256       0.00022963
In       7.21515269       3.89476241       2.68927871        1      -0.00061608      -0.00033256      -0.00022963
In       4.08844769       2.20695709       1.52387285        2       0.00061608       0.00033256       0.00022963
In       1.56335250       0.84390266       0.58270293        3      -0.00061608      -0.00033256      -0.00022963
O        5.55878506       2.10007931       0.11836911        4       0.00000000       0.00003101      -0.00004491
O        6.49769680       4.75279506       0.98698830        5      -0.00002592       0.00004802      -0.00000000
O        7.53878854       1.92357387       2.29124449        6       0.00002592      -0.00001702      -0.00004491
O        3.76481183       4.17814562       1.92190708        7      -0.00002592       0.00001702       0.00004491
O        5.74481531       4.00164018       4.09478245        8      -0.00000000      -0.00003101       0.00004491
O        4.80590357       1.34892444       3.22616327        9       0.00002592      -0.00004802      -0.00000000
