80
Lattice="11.759622037064155 0.011593050378064117 0.008004838380832697 6.462453358298706 9.824741291516837 0.008004838380831374 6.462453358298697 3.488452907911032 9.184568679690987" Properties=species:S:1:pos:R:3:spacegroup_kinds:I:1:forces:R:3 spacegroup="P 1" unit_cell=conventional occupancy="_JSON {\"0\": {\"In\": 1}, \"1\": {\"In\": 1}, \"2\": {\"In\": 1}, \"3\": {\"In\": 1}, \"4\": {\"O\": 1}, \"5\": {\"O\": 1}, \"6\": {\"O\": 1}, \"7\": {\"O\": 1}, \"8\": {\"O\": 1}, \"9\": {\"O\": 1}}" n_minim_iter=4 energy=-90301.44582208552 stress="-4.733208838003459e-05 -2.121994618575617e-05 -2.4501474377266836e-06 -2.121994618575617e-05 -3.326460535597318e-05 -3.6788608301602436e-05 -2.4501474377266836e-06 -3.6788608301602436e-05 -5.220955584196185e-05" free_energy=-11287.680788023401 pbc="T T T"
In      10.56893588       5.71084786       3.94326020        0       0.08893544      -0.01163590      -0.00848496
In      16.45933044       5.71665482       3.94726982        0      -0.00009113       0.00028518       0.00127980
In      13.81074610      10.62322894       3.94726982        0       0.00130541       0.00037005       0.00023739
In      19.69055712      10.62902546       3.95127224        0       0.00303763       0.00325411       0.00043264
In      13.81074610       7.45508474       8.53555174        0       0.00106914       0.00050985      -0.00071347
In      19.69055712       7.46088127       8.53955416        0       0.00018997       0.00187410       0.00478172
In      17.04197278      12.36745539       8.53955416        0       0.00248523       0.00192696      -0.00034532
In      22.92178380      12.37325191       8.54355658        0       0.00153346       0.00095264       0.00066071
In       7.93387715       4.28273216       2.95716638        1      -0.01769612      -0.01381358      -0.01004113
In      13.81368817       4.28852869       2.96116880        1      -0.00694397       0.00106927       0.00260496
In      11.16510383       9.19510281       2.96116880        1       0.00007926      -0.00353527      -0.00111782
In      17.04491485       9.20089933       2.96517122        1      -0.00257840      -0.00051204      -0.00071623
In      11.16510383       6.02695861       7.54945072        1       0.00007188      -0.00215792      -0.00109258
In      17.04491485       6.03275514       7.55345314        1      -0.00257810      -0.00114570      -0.00068411
In      14.39633051      10.93932926       7.55345314        1      -0.00189344      -0.00159454      -0.00078775
In      20.27614153      10.94512578       7.55745556        1      -0.00273860      -0.00033299      -0.00062604
In       4.40838723       2.37966147       1.64312281        2       0.00119759       0.00129452       0.00142566
In      10.28819825       2.38545800       1.64712523        2       0.00383531      -0.00044734       0.00046598
In       7.63961391       7.29203212       1.64712523        2      -0.00022522       0.00437580      -0.00493161
In      13.51942493       7.29782864       1.65112765        2      -0.00030143      -0.00114148       0.00363722
In       7.63961391       4.12388792       6.23540715        2      -0.00089995      -0.00068522       0.00432439
In      13.51942493       4.12968445       6.23940957        2      -0.00097737       0.00271420      -0.00385842
In      10.87084059       9.03625857       6.23940957        2       0.00383776       0.00167188       0.00007091
In      16.75065161       9.04205509       6.24341199        2       0.00119356       0.00130209       0.00143807
In       1.76274496       0.95153535       0.65702179        3      -0.00156237      -0.00018392      -0.00013564
In       7.64255598       0.95733188       0.66102421        3      -0.00282450      -0.00168680      -0.00098877
In       4.99397164       5.86390600       0.66102421        3      -0.00279354      -0.00154684      -0.00089118
In      10.87378266       5.86970252       0.66502663        3       0.00185991       0.00103325       0.00086028
In       4.99397164       2.69576180       5.24930613        3      -0.00351554      -0.00089661      -0.00097450
In      10.87378266       2.70155833       5.25330855        3       0.00510577       0.00002323      -0.00120374
In       8.22519832       7.60813245       5.25330855        3      -0.00825676       0.00776178       0.00636854
In      14.10500934       7.61392897       5.25731097        3      -0.00223502      -0.00184757      -0.00127732
O        6.02547161       2.31350156       0.21794170        4       0.00020570       0.00077532      -0.00022968
O       11.90528263       2.31929809       0.22194412        4      -0.00048580       0.00036729      -0.00075684
O        9.25669829       7.22587221       0.22194412        4      -0.00033792       0.00011723      -0.00015222
O       15.13650931       7.23166873       0.22594654        4       0.00022335       0.00046357      -0.00068756
O        9.25669829       4.05772801       4.81022604        4      -0.00804170      -0.00348908       0.00137895
O       15.13650931       4.06352454       4.81422846        4       0.00256124      -0.00027034      -0.00027237
O       12.48792497       8.97009866       4.81422846        4      -0.00057252       0.00031716      -0.00013915
O       18.36773599       8.97589518       4.81823088        4       0.00047466      -0.00079367      -0.00120894
O        7.10185765       5.12361515       1.15407472        5       0.00034880       0.00187282       0.00124730
O       12.98166867       5.12941168       1.15807714        5      -0.00021644       0.00086240       0.00024873
O       10.33308433      10.03598580       1.15807714        5      -0.00125701       0.00060199       0.00014517
O       16.21289535      10.04178232       1.16207956        5      -0.00004878       0.00066085      -0.00002566
O       10.33308433       6.86784160       5.74635906        5      -0.00429929       0.00500414       0.00554432
O       16.21289535       6.87363813       5.75036148        5       0.00054080       0.00068290      -0.00010675
O       13.56431101      11.78021225       5.75036148        5       0.00065939       0.00169016      -0.00035233
O       19.44412203      11.78600877       5.75436390        5      -0.00029377      -0.00104440       0.00081348
O        8.18031225       2.18668163       2.51408387        6       0.00101537       0.00041410      -0.00029675
O       14.06012327       2.19247816       2.51808629        6       0.00021889      -0.00102393      -0.00080380
O       11.41153893       7.09905228       2.51808629        6      -0.00895384      -0.01091794       0.01110259
O       17.29134995       7.10484880       2.52208871        6       0.00271209      -0.00063668      -0.00012211
O       11.41153893       3.93090808       7.10636821        6      -0.00050567       0.00061820      -0.00080979
O       17.29134995       3.93670461       7.11037063        6       0.00076787      -0.00021143      -0.00039548
O       14.64276561       8.84327873       7.11037063        6       0.00040457       0.00001914      -0.00034763
O       20.52257663       8.84907525       7.11437305        6       0.00062687      -0.00063830      -0.00119758
O        4.16195214       4.47571201       2.08620531        7       0.00091693       0.00020224       0.00045698
O       10.04176316       4.48150854       2.09020773        7      -0.00650724      -0.00052380      -0.00113254
O        7.39317882       9.38808266       2.09020773        7      -0.00053113      -0.00097765       0.00139508
O       13.27298984       9.39387918       2.09421015        7       0.00055683       0.00134819       0.00009802
O        7.39317882       6.21993846       6.67848965        7       0.00092323       0.00000618      -0.00081263
O       13.27298984       6.22573499       6.68249207        7      -0.00053208       0.00014543       0.00049964
O       10.62440550      11.13230911       6.68249207        7      -0.00035953       0.00019361       0.00066186
O       16.50421652      11.13810563       6.68649449        7      -0.00126959       0.00045849       0.00038873
O        6.31679278       4.34889208       4.38234748        8       0.00177934       0.00022692       0.00098854
O       12.19660380       4.35468861       4.38634990        8      -0.02833291       0.02225653      -0.00565198
O        9.54801946       9.26126273       4.38634990        8      -0.00030201      -0.00268979       0.00043410
O       15.42783048       9.26705925       4.39035232        8       0.00043819       0.00014373       0.00058493
O        9.54801946       6.09311853       8.97463182        8      -0.00003720      -0.00083287      -0.00010234
O       15.42783048       6.09891506       8.97863424        8       0.00029072      -0.00003468       0.00134673
O       12.77924614      11.00548918       8.97863424        8       0.00027103      -0.00030506       0.00103062
O       18.65905716      11.01128570       8.98263666        8       0.00018781      -0.00033586      -0.00034413
O        5.24040674       1.53877848       3.44621447        9       0.00073572      -0.00008329      -0.00000572
O       11.12021776       1.54457501       3.45021689        9       0.00006209      -0.00142107      -0.00025466
O        8.47163342       6.45114913       3.45021689        9      -0.01406875       0.00221958      -0.00076589
O       14.35144444       6.45694565       3.45421931        9       0.00091852       0.00030206      -0.00043924
O        8.47163342       3.28300493       8.03849881        9       0.00039505      -0.00053880      -0.00077933
O       14.35144444       3.28880146       8.04250123        9       0.00060390      -0.00087633       0.00059793
O       11.70286010       8.19537558       8.04250123        9       0.00016269      -0.00064047       0.00002505
O       17.58267112       8.20117210       8.04650365        9       0.00032563      -0.00094000      -0.00051333
