80
Lattice="11.759622037064155 0.011593050378064117 0.008004838380832697 6.462453358298706 9.824741291516837 0.008004838380831374 6.462453358298697 3.488452907911032 9.184568679690987" Properties=species:S:1:pos:R:3:spacegroup_kinds:I:1:forces:R:3 spacegroup="P 1" unit_cell=conventional occupancy="_JSON {\"0\": {\"In\": 1}, \"1\": {\"In\": 1}, \"2\": {\"In\": 1}, \"3\": {\"In\": 1}, \"4\": {\"O\": 1}, \"5\": {\"O\": 1}, \"6\": {\"O\": 1}, \"7\": {\"O\": 1}, \"8\": {\"O\": 1}, \"9\": {\"O\": 1}}" n_minim_iter=4 energy=-90301.44571750403 stress="-3.0723297585765516e-05 3.7762672408445935e-05 -3.051489513266382e-05 3.7762672408445935e-05 -6.062184214639702e-05 1.01080675549329e-05 -3.051489513266382e-05 1.01080675549329e-05 -3.0200955662363198e-05" free_energy=-11287.680788023401 pbc="T T T"
In      10.57951942       5.71085829       3.94326740        0       0.00181807       0.00077377       0.00015878
In      16.45933044       5.71665482       3.94726982        0       0.00250308       0.00143336       0.00169655
In      13.81074610      10.62322894       3.94726982        0       0.00236593       0.00157876      -0.00032315
In      19.69055712      10.62902546       3.95127224        0       0.00180272       0.00058969       0.00114676
In      13.81074610       7.45508474       8.53555174        0       0.01002108       0.00473300      -0.00105840
In      19.69055712       7.46088127       8.53955416        0      -0.00052628       0.00287138       0.00002864
In      17.04197278      12.36745539       8.53955416        0       0.00259432       0.00045624       0.00083381
In      22.92178380      12.37325191       8.54355658        0       0.00153339       0.00199758       0.00115775
In       7.93387715       4.28273216       2.95716638        1      -0.00139370      -0.00122009      -0.00132568
In      13.81368817       4.28852869       2.96116880        1      -0.00249428      -0.00040588      -0.00004380
In      11.16510383       9.19510281       2.96116880        1      -0.00168760      -0.00192921       0.00007692
In      17.04491485       9.20089933       2.96517122        1      -0.00223845      -0.00090669      -0.00135953
In      11.16510383       6.02695861       7.54945072        1       0.00574628      -0.00150134       0.00300514
In      17.04491485       6.03275514       7.55345314        1      -0.00445581      -0.00112533       0.00110440
In      14.39633051      10.93932926       7.55345314        1      -0.00222335      -0.00175921      -0.00083125
In      20.27614153      10.94512578       7.55745556        1      -0.00153071      -0.00009157      -0.00077366
In       4.40838723       2.37966147       1.64312281        2       0.03033564      -0.00109579      -0.02247669
In      10.28819825       2.38545800       1.64712523        2       0.00023587       0.00118629      -0.00022178
In       7.63961391       7.29203212       1.64712523        2       0.00172536       0.00013005       0.00057169
In      13.51942493       7.29782864       1.65112765        2       0.00206346       0.00194480       0.00091374
In       7.63961391       4.12388792       6.23540715        2       0.00158925       0.00108963       0.00053112
In      13.51942493       4.12968445       6.23940957        2       0.00231765       0.00059799       0.00029124
In      10.87084059       9.03625857       6.23940957        2       0.00182877       0.00145360       0.00052843
In      16.75065161       9.04205509       6.24341199        2       0.00175221       0.00097900       0.00079351
In       1.76274496       0.95153535       0.65702179        3      -0.00300562      -0.00172193      -0.00042734
In       7.64255598       0.95733188       0.66102421        3       0.02826789      -0.02555345       0.00603494
In       4.99397164       5.86390600       0.66102421        3      -0.00172866      -0.00168818      -0.00104288
In      10.87378266       5.86970252       0.66502663        3      -0.00245692      -0.00129322      -0.00067006
In       4.99397164       2.69576180       5.24930613        3      -0.00198812      -0.00064090      -0.00001599
In      10.87378266       2.70155833       5.25330855        3      -0.00231842      -0.00161193      -0.00159626
In       8.22519832       7.60813245       5.25330855        3      -0.00228817      -0.00109059      -0.00088001
In      14.10500934       7.61392897       5.25731097        3      -0.00220120      -0.00116128      -0.00036054
O        6.03605515       2.31351199       0.21794890        4      -0.11118379       0.02236991       0.01324130
O       11.90528263       2.31929809       0.22194412        4       0.00373609       0.00036777      -0.00063389
O        9.25669829       7.22587221       0.22194412        4       0.00078376       0.00184613      -0.00067238
O       15.13650931       7.23166873       0.22594654        4       0.00027128      -0.00064216      -0.00055919
O        9.25669829       4.05772801       4.81022604        4       0.00078497       0.00084020       0.00076860
O       15.13650931       4.06352454       4.81422846        4       0.00027070       0.00007086      -0.00159386
O       12.48792497       8.97009866       4.81422846        4      -0.00005469       0.00036340      -0.00063032
O       18.36773599       8.97589518       4.81823088        4       0.00028941       0.00029601      -0.00067507
O        7.10185765       5.12361515       1.15407472        5      -0.00022723       0.00412953       0.00112795
O       12.98166867       5.12941168       1.15807714        5       0.00043753       0.00041213       0.00016268
O       10.33308433      10.03598580       1.15807714        5       0.00337256       0.00489789      -0.00167513
O       16.21289535      10.04178232       1.16207956        5      -0.00246624       0.00186403      -0.00015716
O       10.33308433       6.86784160       5.74635906        5      -0.00085245       0.00125629      -0.00102463
O       16.21289535       6.87363813       5.75036148        5      -0.00015023       0.00072919      -0.00022818
O       13.56431101      11.78021225       5.75036148        5      -0.00019566       0.00062685       0.00053080
O       19.44412203      11.78600877       5.75436390        5      -0.00052565       0.00059962       0.00008500
O        8.18031225       2.18668163       2.51408387        6       0.00405244      -0.00029552       0.00398528
O       14.06012327       2.19247816       2.51808629        6      -0.00174313       0.00006642       0.00057851
O       11.41153893       7.09905228       2.51808629        6       0.00049055       0.00026397      -0.00078817
O       17.29134995       7.10484880       2.52208871        6       0.00016370      -0.00015569      -0.00065897
O       11.41153893       3.93090808       7.10636821        6       0.00046215       0.00208877       0.00225239
O       17.29134995       3.93670461       7.11037063        6       0.00111644      -0.00014361      -0.00085818
O       14.64276561       8.84327873       7.11037063        6      -0.00018489      -0.00099595       0.00039147
O       20.52257663       8.84907525       7.11437305        6       0.00053808      -0.00040252      -0.00042409
O        4.16195214       4.47571201       2.08620531        7       0.00126332      -0.00257723      -0.00177701
O       10.04176316       4.48150854       2.09020773        7       0.00038115       0.00055020       0.00079053
O        7.39317882       9.38808266       2.09020773        7       0.00021696       0.00003071       0.00043808
O       13.27298984       9.39387918       2.09421015        7      -0.00078856      -0.00123034       0.00173324
O        7.39317882       6.21993846       6.67848965        7       0.00071096       0.00015052       0.00132709
O       13.27298984       6.22573499       6.68249207        7      -0.00073744       0.00130774      -0.00638939
O       10.62440550      11.13230911       6.68249207        7      -0.00058843      -0.00022787       0.00039864
O       16.50421652      11.13810563       6.68649449        7      -0.00034095       0.00083879       0.00067423
O        6.31679278       4.34889208       4.38234748        8      -0.00010492       0.00004625       0.00088754
O       12.19660380       4.35468861       4.38634990        8      -0.00012122      -0.00059788       0.00048623
O        9.54801946       9.26126273       4.38634990        8       0.00047665       0.00011238      -0.00033656
O       15.42783048       9.26705925       4.39035232        8       0.00046828      -0.00108454       0.00140791
O        9.54801946       6.09311853       8.97463182        8       0.01402797      -0.00212824       0.00292996
O       15.42783048       6.09891506       8.97863424        8       0.01454176       0.00120763      -0.00183774
O       12.77924614      11.00548918       8.97863424        8      -0.00011908      -0.00058503       0.00045912
O       18.65905716      11.01128570       8.98263666        8      -0.00009801       0.00003956       0.00092103
O        5.24040674       1.53877848       3.44621447        9      -0.00009482      -0.00008556      -0.00178247
O       11.12021776       1.54457501       3.45021689        9       0.00088744      -0.00084875      -0.00012738
O        8.47163342       6.45114913       3.45021689        9       0.00034423      -0.00034560       0.00054226
O       14.35144444       6.45694565       3.45421931        9       0.00009070      -0.00097701      -0.00035114
O        8.47163342       3.28300493       8.03849881        9       0.00106815      -0.00033859       0.00023446
O       14.35144444       3.28880146       8.04250123        9       0.00196555      -0.00389729      -0.00178580
O       11.70286010       8.19537558       8.04250123        9       0.00001218      -0.00684634       0.00347984
O       17.58267112       8.20117210       8.04650365        9       0.00138874       0.00001445      -0.00033384
