80
Lattice="11.758812762970885 0.0 0.0 6.452317444010323 9.830426094342354 0.0 6.452317444010323 3.4829815090918417 9.192720870539437" Properties=species:S:1:pos:R:3:initial_magmoms:R:1:forces:R:3 uid=supercell-002.xyz_R3c type=Bulk energy=-90301.42717099385 stress="0.001805164920290082 -0.0008146672134957202 -0.0005408079628734887 -0.0008146672134957202 0.002853415439605586 -0.00033049028567059245 -0.0005408079628734887 -0.00033049028567059245 0.003056872204317821" virial="-2.043471211743105e-06 8.182525317212349e-07 5.58174377499385e-07 8.182525317212349e-07 -3.1097052393502893e-06 3.4389071554915676e-07 5.58174377499385e-07 3.4389071554915676e-07 -3.3248529483245103e-06" pbc="T T T"
In      10.56035509       5.70622635       3.94006911      10.00000000       0.10284067      -0.00432382      -0.00346775
In      16.45034502       5.70622635       3.94006911      10.00000000      -0.00384705      -0.00156296       0.00032714
In      13.79709736      10.62143940       3.94006911      10.00000000      -0.00171437      -0.00165421      -0.00121336
In      19.67650374      10.62143940       3.94006911      10.00000000       0.00110467      -0.00024069      -0.00011900
In      13.79709736       7.44771711       8.53642955      10.00000000      -0.00244924      -0.00123349      -0.00217660
In      19.67650374       7.44771711       8.53642955      10.00000000      -0.00211053       0.00023339       0.00192040
In      17.02325608      12.36293015       8.53642955      10.00000000       0.00005955       0.00049516      -0.00146847
In      22.90266246      12.36293015       8.53642955      10.00000000      -0.00094656      -0.00050868      -0.00035208
In       7.92664710       4.27882935       2.95447155      10.00000000      -0.02065462      -0.01470379      -0.01048525
In      13.80605348       4.27882935       2.95447155      10.00000000      -0.00462970       0.00263534       0.00318202
In      11.15280582       9.19404240       2.95447155      10.00000000       0.00206748      -0.00172750       0.00048346
In      17.03221221       9.19404240       2.95447155      10.00000000       0.00052010       0.00092946       0.00028104
In      11.15280582       6.02032010       7.55083198      10.00000000       0.00205910      -0.00041459      -0.00036192
In      17.03221221       6.02032010       7.55083198      10.00000000       0.00051256       0.00023253       0.00010347
In      14.37896455      10.93553315       7.55083198      10.00000000       0.00061301       0.00017153       0.00049766
In      20.25837093      10.93553315       7.55083198      10.00000000       0.00029058       0.00066392       0.00003811
In       4.40507673       2.37787445       1.64188889      10.00000000      -0.00075739      -0.00007350       0.00067611
In      10.28448311       2.37787445       1.64188889      10.00000000       0.00049119      -0.00163923      -0.00050589
In       7.63123545       7.29308750       1.64188889      10.00000000      -0.00366649       0.00242886      -0.00700131
In      13.51064183       7.29308750       1.64188889      10.00000000      -0.00369316      -0.00258022       0.00276978
In       7.63123545       4.11936520       6.23824933      10.00000000      -0.00464856      -0.00197476       0.00308261
In      13.51064183       4.11936520       6.23824933      10.00000000      -0.00465663       0.00171734      -0.00607363
In      10.85739417       9.03457825       6.23824933      10.00000000       0.00047965      -0.00032359      -0.00117811
In      16.73680055       9.03457825       6.23824933      10.00000000      -0.00076465      -0.00006087       0.00068823
In       1.76078518       0.95047746       0.65629133      10.00000000       0.00058464       0.00108220       0.00074014
In       7.64019156       0.95047746       0.65629133      10.00000000       0.00004773       0.00024061       0.00030981
In       4.98694390       5.86569050       0.65629133      10.00000000       0.00088412      -0.00017390       0.00024087
In      10.86635028       5.86569050       0.65629133      10.00000000       0.00282746       0.00246532       0.00286147
In       4.98694390       2.69196821       5.25265176      10.00000000      -0.00011568       0.00082239       0.00005982
In      10.86635028       2.69196821       5.25265176      10.00000000       0.00706083       0.00266322      -0.00136588
In       8.21310263       7.60718126       5.25265176      10.00000000      -0.00499725       0.00868760       0.00794496
In      14.09250901       7.60718126       5.25265176      10.00000000       0.00020373      -0.00008899      -0.00006250
O        6.02263415       2.30932705       0.21474656       4.00000000      -0.00004051       0.01226547      -0.01745645
O       11.90204053       2.30932705       0.21474656       4.00000000      -0.00012013       0.01197459      -0.01773494
O        9.24879287       7.22454010       0.21474656       4.00000000       0.00007325       0.01182314      -0.01669367
O       15.12819925       7.22454010       0.21474656       4.00000000       0.00015149       0.01193000      -0.01788076
O        9.24879287       4.05081780       4.81110699       4.00000000      -0.00801115       0.00575515      -0.01594454
O       15.12819925       4.05081780       4.81110699       4.00000000       0.00435440       0.01114197      -0.01722968
O       12.47495159       8.96603085       4.81110699       4.00000000      -0.00042850       0.01228479      -0.01716813
O       18.35435798       8.96603085       4.81110699       4.00000000       0.00164995       0.01058560      -0.01786293
O        7.09636398       5.12094207       1.14909010       4.00000000      -0.00877757       0.01963069       0.00186018
O       12.97577036       5.12094207       1.14909010       4.00000000      -0.00955301       0.01838724       0.00002044
O       10.32252270      10.03615511       1.14909010       4.00000000      -0.01083931       0.01925341      -0.00004183
O       16.20192908      10.03615511       1.14909010       4.00000000      -0.00987315       0.01883584      -0.00025550
O       10.32252270       6.86243282       5.74545054       4.00000000      -0.01377302       0.02228417       0.00423409
O       16.20192908       6.86243282       5.74545054       4.00000000      -0.00984216       0.01890258      -0.00011034
O       13.54868142      11.77764587       5.74545054       4.00000000      -0.00902492       0.01961720      -0.00018607
O       19.42808780      11.77764587       5.74545054       4.00000000      -0.01024458       0.01666753       0.00119179
O        8.17506304       2.18091283       2.51292678       4.00000000       0.01054457      -0.00558290      -0.01693478
O       14.05446942       2.18091283       2.51292678       4.00000000       0.01032067      -0.00786279      -0.01816059
O       11.40122176       7.09612588       2.51292678       4.00000000      -0.00000746      -0.01975399      -0.00522009
O       17.28062814       7.09612588       2.51292678       4.00000000       0.01243385      -0.00703347      -0.01696018
O       11.40122176       3.92240358       7.10928721       4.00000000       0.00890891      -0.00605644      -0.01758876
O       17.28062814       3.92240358       7.10928721       4.00000000       0.01048192      -0.00707302      -0.01716937
O       14.62738048       8.83761663       7.10928721       4.00000000       0.01015461      -0.00641644      -0.01764613
O       20.50678687       8.83761663       7.10928721       4.00000000       0.01037962      -0.00719755      -0.01842620
O        4.15666079       4.47579097       2.08343366       4.00000000      -0.00950482       0.00702212       0.01727916
O       10.03606717       4.47579097       2.08343366       4.00000000      -0.01654902       0.00570918       0.01611531
O        7.38281951       9.39100402       2.08343366       4.00000000      -0.01017542       0.00528950       0.01839169
O       13.26222589       9.39100402       2.08343366       4.00000000      -0.00873646       0.00887183       0.01689930
O        7.38281951       6.21728172       6.67979410       4.00000000      -0.00871861       0.00669468       0.01673280
O       13.26222589       6.21728172       6.67979410       4.00000000      -0.01062805       0.00684482       0.01759550
O       10.60897823      11.13249477       6.67979410       4.00000000      -0.01035076       0.00695008       0.01771774
O       16.48838462      11.13249477       6.67979410       4.00000000      -0.01087759       0.00697351       0.01766753
O        6.30908968       4.34737676       4.38161388       4.00000000       0.00167159      -0.01141796       0.01723749
O       12.18849606       4.34737676       4.38161388       4.00000000      -0.03297341       0.01157976       0.01156832
O        9.53524840       9.26258981       4.38161388       4.00000000      -0.00107591      -0.01463363       0.01759879
O       15.41465478       9.26258981       4.38161388       4.00000000       0.00023684      -0.01186873       0.01736012
O        9.53524840       6.08886751       8.97797431       4.00000000       0.00012208      -0.01242750       0.01757671
O       15.41465478       6.08886751       8.97797431       4.00000000       0.00027219      -0.01197737       0.01771655
O       12.76140712      11.00408056       8.97797431       4.00000000      -0.00000316      -0.01177007       0.01819143
O       18.64081350      11.00408056       8.97797431       4.00000000       0.00037494      -0.01200156       0.01584089
O        5.23535984       1.53576173       3.44727032       4.00000000       0.01039972      -0.01843195      -0.00009570
O       11.11476623       1.53576173       3.44727032       4.00000000       0.01008274      -0.01891685      -0.00023076
O        8.46151857       6.45097478       3.44727032       4.00000000      -0.00735490      -0.01500760      -0.00143766
O       14.34092495       6.45097478       3.44727032       4.00000000       0.01069266      -0.01819869      -0.00032081
O        8.46151857       3.27725249       8.04363076       4.00000000       0.01017748      -0.01882620      -0.00063282
O       14.34092495       3.27725249       8.04363076       4.00000000       0.01029077      -0.01927594       0.00087105
O       11.68767729       8.19246553       8.04363076       4.00000000       0.01019305      -0.01866100       0.00028303
O       17.56708367       8.19246553       8.04363076       4.00000000       0.01052108      -0.01906728      -0.00093656
