80
Lattice="11.758812762970885 0.0 0.0 6.452317444010323 9.830426094342354 0.0 6.452317444010323 3.4829815090918417 9.192720870539437" Properties=species:S:1:pos:R:3:initial_magmoms:R:1:forces:R:3 uid=supercell-001.xyz_R3c type=Bulk energy=-90301.42714960784 stress="0.0018595776598694617 -0.0007224531182040276 -0.000524115535426069 -0.0007224531182040276 0.0028335118734108956 -0.00024147153858183074 -0.000524115535426069 -0.00024147153858183074 0.003068902672728734" virial="-2.108274738542569e-06 7.534490049217705e-07 5.296608257076208e-07 7.534490049217705e-07 -3.1079771453023037e-06 2.4106911969400687e-07 5.296608257076208e-07 2.4106911969400687e-07 -3.3412698417803747e-06" pbc="T T T"
In      10.58152218       5.70622635       3.94006911      10.00000000      -0.10615498       0.00503815       0.00294039
In      16.45034502       5.70622635       3.94006911      10.00000000       0.00237037       0.00077442      -0.00085781
In      13.79709736      10.62143940       3.94006911      10.00000000       0.00024843       0.00085830       0.00066736
In      19.67650374      10.62143940       3.94006911      10.00000000      -0.00255741      -0.00055080      -0.00042564
In      13.79709736       7.44771711       8.53642955      10.00000000       0.00100073       0.00043951       0.00163295
In      19.67650374       7.44771711       8.53642955      10.00000000       0.00065885      -0.00101253      -0.00245406
In      17.02325608      12.36293015       8.53642955      10.00000000      -0.00151111      -0.00127441       0.00091620
In      22.90266246      12.36293015       8.53642955      10.00000000      -0.00051547      -0.00027906      -0.00019385
In       7.92664710       4.27882935       2.95447155      10.00000000       0.02159245       0.01506900       0.01073414
In      13.80605348       4.27882935       2.95447155      10.00000000       0.00600492      -0.00187238      -0.00256348
In      11.15280582       9.19404240       2.95447155      10.00000000      -0.00060514       0.00250145       0.00004207
In      17.03221221       9.19404240       2.95447155      10.00000000       0.00094175      -0.00013049       0.00026413
In      11.15280582       6.02032010       7.55083198      10.00000000      -0.00061356       0.00120424       0.00091304
In      17.03221221       6.02032010       7.55083198      10.00000000       0.00093406       0.00055617       0.00045094
In      14.37896455      10.93553315       7.55083198      10.00000000       0.00084904       0.00061706       0.00004055
In      20.25837093      10.93553315       7.55083198      10.00000000       0.00116303       0.00012007       0.00050073
In       4.40507673       2.37787445       1.64188889      10.00000000      -0.00068668      -0.00072775      -0.00122786
In      10.28448311       2.37787445       1.64188889      10.00000000      -0.00195216       0.00088274      -0.00002830
In       7.63123545       7.29308750       1.64188889      10.00000000       0.00225328      -0.00322184       0.00651923
In      13.51064183       7.29308750       1.64188889      10.00000000       0.00222761       0.00180887      -0.00333050
In       7.63123545       4.11936520       6.23824933      10.00000000       0.00322230       0.00113404      -0.00360144
In      13.51064183       4.11936520       6.23824933      10.00000000       0.00321606      -0.00253068       0.00554784
In      10.85739417       9.03457825       6.23824933      10.00000000      -0.00196383      -0.00048424       0.00061759
In      16.73680055       9.03457825       6.23824933      10.00000000      -0.00069381      -0.00071538      -0.00121598
In       1.76078518       0.95047746       0.65629133      10.00000000       0.00087531      -0.00029117      -0.00020815
In       7.64019156       0.95047746       0.65629133      10.00000000       0.00140823       0.00053134       0.00024331
In       4.98694390       5.86569050       0.65629133      10.00000000       0.00058712       0.00095478       0.00027657
In      10.86635028       5.86569050       0.65629133      10.00000000      -0.00138362      -0.00166528      -0.00230411
In       4.98694390       2.69196821       5.25265176      10.00000000       0.00154674      -0.00002970       0.00048162
In      10.86635028       2.69196821       5.25265176      10.00000000      -0.00565675      -0.00179934       0.00187842
In       8.21310263       7.60718126       5.25265176      10.00000000       0.00636995      -0.00782864      -0.00746894
In      14.09250901       7.60718126       5.25265176      10.00000000       0.00140696       0.00097255       0.00067079
O        6.02263415       2.30932705       0.21474656       4.00000000       0.00004705       0.01206279      -0.01778317
O       11.90204053       2.30932705       0.21474656       4.00000000       0.00012002       0.01235057      -0.01749400
O        9.24879287       7.22454010       0.21474656       4.00000000      -0.00006874       0.01249339      -0.01850420
O       15.12819925       7.22454010       0.21474656       4.00000000      -0.00014339       0.01239684      -0.01736140
O        9.24879287       4.05081780       4.81110699       4.00000000       0.00778201       0.01803152      -0.01885410
O       15.12819925       4.05081780       4.81110699       4.00000000      -0.00414506       0.01311912      -0.01796602
O       12.47495159       8.96603085       4.81110699       4.00000000       0.00046902       0.01209365      -0.01806312
O       18.35435798       8.96603085       4.81110699       4.00000000      -0.00162644       0.01371396      -0.01737220
O        7.09636398       5.12094207       1.14909010       4.00000000      -0.01141742       0.01807292      -0.00174278
O       12.97577036       5.12094207       1.14909010       4.00000000      -0.01076401       0.01928537      -0.00005046
O       10.32252270      10.03615511       1.14909010       4.00000000      -0.00950177       0.01840849       0.00004824
O       16.20192908      10.03615511       1.14909010       4.00000000      -0.01046217       0.01883671       0.00025587
O       10.32252270       6.86243282       5.74545054       4.00000000      -0.00633500       0.01527088      -0.00441588
O       16.20192908       6.86243282       5.74545054       4.00000000      -0.01048681       0.01878411       0.00011902
O       13.54868142      11.77764587       5.74545054       4.00000000      -0.01130187       0.01806396       0.00017874
O       19.42808780      11.77764587       5.74545054       4.00000000      -0.01008757       0.02100393      -0.00119591
O        8.17506304       2.18091283       2.51292678       4.00000000       0.00979957      -0.00776008      -0.01829894
O       14.05446942       2.18091283       2.51292678       4.00000000       0.01003057      -0.00550522      -0.01708302
O       11.40122176       7.09612588       2.51292678       4.00000000       0.02049871       0.00692285      -0.03042828
O       17.28062814       7.09612588       2.51292678       4.00000000       0.00793875      -0.00632528      -0.01825882
O       11.40122176       3.92240358       7.10928721       4.00000000       0.01142788      -0.00729804      -0.01763320
O       17.28062814       3.92240358       7.10928721       4.00000000       0.00985699      -0.00627568      -0.01805558
O       14.62738048       8.83761663       7.10928721       4.00000000       0.01018350      -0.00693083      -0.01758793
O       20.50678687       8.83761663       7.10928721       4.00000000       0.00994768      -0.00615037      -0.01680468
O        4.15666079       4.47579097       2.08343366       4.00000000      -0.01085754       0.00634380       0.01795149
O       10.03606717       4.47579097       2.08343366       4.00000000      -0.00366623       0.00756855       0.01897480
O        7.38281951       9.39100402       2.08343366       4.00000000      -0.01015898       0.00804401       0.01685199
O       13.26222589       9.39100402       2.08343366       4.00000000      -0.01153639       0.00453882       0.01830928
O        7.38281951       6.21728172       6.67979410       4.00000000      -0.01158158       0.00665919       0.01845507
O       13.26222589       6.21728172       6.67979410       4.00000000      -0.00964823       0.00654924       0.01775731
O       10.60897823      11.13249477       6.67979410       4.00000000      -0.00998180       0.00640052       0.01751766
O       16.48838462      11.13249477       6.67979410       4.00000000      -0.00946745       0.00638450       0.01755784
O        6.30908968       4.34737676       4.38161388       4.00000000      -0.00139863      -0.01282947       0.01797442
O       12.18849606       4.34737676       4.38161388       4.00000000       0.03537723      -0.03798504       0.02433383
O        9.53524840       9.26258981       4.38161388       4.00000000       0.00106659      -0.00971666       0.01762964
O       15.41465478       9.26258981       4.38161388       4.00000000      -0.00023216      -0.01245288       0.01787525
O        9.53524840       6.08886751       8.97797431       4.00000000      -0.00011726      -0.01190087       0.01764909
O       15.41465478       6.08886751       8.97797431       4.00000000      -0.00027595      -0.01234891       0.01751360
O       12.76140712      11.00408056       8.97797431       4.00000000       0.00000649      -0.01255885       0.01704369
O       18.64081350      11.00408056       8.97797431       4.00000000      -0.00037366      -0.01232159       0.01937361
O        5.23535984       1.53576173       3.44727032       4.00000000       0.00993749      -0.01924245       0.00009801
O       11.11476623       1.53576173       3.44727032       4.00000000       0.01023800      -0.01874307       0.00022942
O        8.46151857       6.45097478       3.44727032       4.00000000       0.02619640      -0.02175834       0.00108735
O       14.34092495       6.45097478       3.44727032       4.00000000       0.00993944      -0.01947977       0.00028466
O        8.46151857       3.27725249       8.04363076       4.00000000       0.01015930      -0.01884737       0.00062821
O       14.34092495       3.27725249       8.04363076       4.00000000       0.01004778      -0.01840371      -0.00086164
O       11.68767729       8.19246553       8.04363076       4.00000000       0.01015776      -0.01900257      -0.00026205
O       17.56708367       8.19246553       8.04363076       4.00000000       0.00982522      -0.01861167       0.00092151
