80
Lattice="11.758812762970885 0.0 0.0 6.452317444010323 9.830426094342354 0.0 6.452317444010323 3.4829815090918417 9.192720870539437" Properties=species:S:1:pos:R:3:initial_magmoms:R:1:forces:R:3 uid=supercell-003.xyz_R3c type=Bulk energy=-90301.42744925043 stress="0.0018595603159862217 -0.0007729696135837066 -0.0005431609724613828 -0.0007729696135837066 0.002835696781358589 -0.00027583776600018247 -0.0005431609724613828 -0.00027583776600018247 0.0030901549182040826" virial="-2.085809515918755e-06 7.931951680254419e-07 5.538541423794208e-07 7.931951680254419e-07 -3.0906962048224462e-06 2.9118384708559254e-07 5.538541423794208e-07 2.9118384708559254e-07 -3.3473181709483243e-06" pbc="T T T"
In      10.57093864       5.70622635       3.94006911      10.00000000      -0.00079329      -0.00063898      -0.00040887
In      16.45034502       5.70622635       3.94006911      10.00000000      -0.00050563      -0.00055145      -0.00060853
In      13.79709736      10.62143940       3.94006911      10.00000000      -0.00048350      -0.00045154      -0.00057196
In      19.67650374      10.62143940       3.94006911      10.00000000      -0.00061300      -0.00061659      -0.00034716
In      13.79709736       7.44771711       8.53642955      10.00000000       0.00920474       0.01405347      -0.00621545
In      19.67650374       7.44771711       8.53642955      10.00000000      -0.00223733       0.00058194      -0.00067972
In      17.02325608      12.36293015       8.53642955      10.00000000      -0.00062339      -0.00103009       0.00018402
In      22.90266246      12.36293015       8.53642955      10.00000000      -0.00031716      -0.00107760       0.00002751
In       7.92664710       4.27882935       2.95447155      10.00000000       0.00061485       0.00107017      -0.00082701
In      13.80605348       4.27882935       2.95447155      10.00000000       0.00049701       0.00138857       0.00005492
In      11.15280582       9.19404240       2.95447155      10.00000000       0.00007873      -0.00088180       0.00134234
In      17.03221221       9.19404240       2.95447155      10.00000000       0.00092246       0.00048771       0.00048526
In      11.15280582       6.02032010       7.55083198      10.00000000       0.00581877       0.00483303       0.00329659
In      17.03221221       6.02032010       7.55083198      10.00000000      -0.00157965       0.00025069       0.00174890
In      14.37896455      10.93553315       7.55083198      10.00000000       0.00059935      -0.00032731       0.00005143
In      20.25837093      10.93553315       7.55083198      10.00000000       0.00094323       0.00025591       0.00015188
In       4.40507673       2.37787445       1.64188889      10.00000000       0.01548058       0.00121225      -0.01328557
In      10.28448311       2.37787445       1.64188889      10.00000000      -0.00157956      -0.00028211      -0.00153608
In       7.63123545       7.29308750       1.64188889      10.00000000      -0.00102130      -0.00289553      -0.00075229
In      13.51064183       7.29308750       1.64188889      10.00000000      -0.00068627      -0.00060011      -0.00020491
In       7.63123545       4.11936520       6.23824933      10.00000000      -0.00073960      -0.00036890      -0.00056499
In      13.51064183       4.11936520       6.23824933      10.00000000       0.00060463       0.00022496      -0.00140621
In      10.85739417       9.03457825       6.23824933      10.00000000       0.00040123      -0.00138880       0.00167705
In      16.73680055       9.03457825       6.23824933      10.00000000      -0.00129151      -0.00039934      -0.00008563
In       1.76078518       0.95047746       0.65629133      10.00000000      -0.00063160      -0.00021693       0.00021790
In       7.64019156       0.95047746       0.65629133      10.00000000      -0.00134829       0.00630336      -0.00092612
In       4.98694390       5.86569050       0.65629133      10.00000000       0.00338520      -0.00207019      -0.00002003
In      10.86635028       5.86569050       0.65629133      10.00000000       0.00035049       0.00025519       0.00052340
In       4.98694390       2.69196821       5.25265176      10.00000000       0.00088739       0.00108974       0.00078129
In      10.86635028       2.69196821       5.25265176      10.00000000       0.00042485      -0.00077183      -0.00116631
In       8.21310263       7.60718126       5.25265176      10.00000000       0.00040075       0.00025814       0.00003826
In      14.09250901       7.60718126       5.25265176      10.00000000       0.00039839       0.00072397       0.00122255
O        6.02844157       2.31817494       0.21474656       4.00000000      -0.05186756      -0.03808599       0.00423395
O       11.90204053       2.30932705       0.21474656       4.00000000       0.00057502       0.01181281      -0.01789587
O        9.24879287       7.22454010       0.21474656       4.00000000       0.00048997       0.01339169      -0.01776492
O       15.12819925       7.22454010       0.21474656       4.00000000      -0.00018971       0.01307740      -0.01715437
O        9.24879287       4.05081780       4.81110699       4.00000000       0.00019827       0.01220846      -0.01711463
O       15.12819925       4.05081780       4.81110699       4.00000000       0.00015916       0.01225206      -0.01708689
O       12.47495159       8.96603085       4.81110699       4.00000000       0.00010032       0.01262317      -0.01824331
O       18.35435798       8.96603085       4.81110699       4.00000000      -0.00031330       0.01221333      -0.01745223
O        7.09636398       5.12094207       1.14909010       4.00000000      -0.00899730       0.02615816       0.00400647
O       12.97577036       5.12094207       1.14909010       4.00000000      -0.01035712       0.01852395      -0.00014911
O       10.32252270      10.03615511       1.14909010       4.00000000      -0.00385189       0.02249084      -0.00104146
O       16.20192908      10.03615511       1.14909010       4.00000000      -0.01002413       0.01830394       0.00016027
O       10.32252270       6.86243282       5.74545054       4.00000000      -0.01062603       0.01869089      -0.00045156
O       16.20192908       6.86243282       5.74545054       4.00000000      -0.00977061       0.01883766      -0.00042515
O       13.54868142      11.77764587       5.74545054       4.00000000      -0.01026617       0.01846413       0.00016803
O       19.42808780      11.77764587       5.74545054       4.00000000      -0.01100259       0.01965737       0.00110915
O        8.17506304       2.18091283       2.51292678       4.00000000       0.01121543      -0.00732054      -0.01666119
O       14.05446942       2.18091283       2.51292678       4.00000000       0.00978164      -0.00705400      -0.01778357
O       11.40122176       7.09612588       2.51292678       4.00000000       0.01008137      -0.00557535      -0.01820567
O       17.28062814       7.09612588       2.51292678       4.00000000       0.00910802      -0.00514752      -0.01693761
O       11.40122176       3.92240358       7.10928721       4.00000000       0.01120648      -0.00231420      -0.01185342
O       17.28062814       3.92240358       7.10928721       4.00000000       0.01008046      -0.00680853      -0.01762150
O       14.62738048       8.83761663       7.10928721       4.00000000       0.00973574      -0.00786134      -0.01664101
O       20.50678687       8.83761663       7.10928721       4.00000000       0.00911144      -0.00642325      -0.01804288
O        4.15666079       4.47579097       2.08343366       4.00000000      -0.01074933       0.00574238       0.01771078
O       10.03606717       4.47579097       2.08343366       4.00000000      -0.00891418       0.00670281       0.01793948
O        7.38281951       9.39100402       2.08343366       4.00000000      -0.00909255       0.00701707       0.01708185
O       13.26222589       9.39100402       2.08343366       4.00000000      -0.01076046       0.00934302       0.01524680
O        7.38281951       6.21728172       6.67979410       4.00000000      -0.00975642       0.00654741       0.01798240
O       13.26222589       6.21728172       6.67979410       4.00000000      -0.01025104       0.00591593       0.01141092
O       10.60897823      11.13249477       6.67979410       4.00000000      -0.01079305       0.00723054       0.01720816
O       16.48838462      11.13249477       6.67979410       4.00000000      -0.00975587       0.00782534       0.01772667
O        6.30908968       4.34737676       4.38161388       4.00000000       0.00002407      -0.01232497       0.01797998
O       12.18849606       4.34737676       4.38161388       4.00000000      -0.00035339      -0.01248394       0.01802704
O        9.53524840       9.26258981       4.38161388       4.00000000       0.00016123      -0.01193927       0.01686519
O       15.41465478       9.26258981       4.38161388       4.00000000      -0.00045219      -0.01247968       0.01751267
O        9.53524840       6.08886751       8.97797431       4.00000000       0.01021042      -0.01330680       0.01924746
O       15.41465478       6.08886751       8.97797431       4.00000000       0.01341984      -0.01263699       0.01689135
O       12.76140712      11.00408056       8.97797431       4.00000000      -0.00028980      -0.01008639       0.01705987
O       18.64081350      11.00408056       8.97797431       4.00000000      -0.00005069      -0.01174800       0.01781939
O        5.23535984       1.53576173       3.44727032       4.00000000       0.00967037      -0.01840019      -0.00302207
O       11.11476623       1.53576173       3.44727032       4.00000000       0.01043584      -0.01889030       0.00022408
O        8.46151857       6.45097478       3.44727032       4.00000000       0.01064645      -0.01828912       0.00103033
O       14.34092495       6.45097478       3.44727032       4.00000000       0.00967217      -0.01876836       0.00006077
O        8.46151857       3.27725249       8.04363076       4.00000000       0.01121740      -0.01890361       0.00075363
O       14.34092495       3.27725249       8.04363076       4.00000000       0.00876132      -0.01779214       0.00089872
O       11.68767729       8.19246553       8.04363076       4.00000000       0.00503033      -0.01039960      -0.00666003
O       17.56708367       8.19246553       8.04363076       4.00000000       0.01083102      -0.01841027      -0.00034346
