80
Lattice="11.757482574446419 0.010462428501882209 0.0072241598627979945 6.460334182896735 9.823573087024766 0.007224159862798427 6.460334182896731 3.48730897027875 9.183752856562304" Properties=species:S:1:pos:R:3:spacegroup_kinds:I:1:forces:R:3 spacegroup="P 1" unit_cell=conventional occupancy="_JSON {\"0\": {\"In\": 1}, \"1\": {\"In\": 1}, \"2\": {\"In\": 1}, \"3\": {\"In\": 1}, \"4\": {\"O\": 1}, \"5\": {\"O\": 1}, \"6\": {\"O\": 1}, \"7\": {\"O\": 1}, \"8\": {\"O\": 1}, \"9\": {\"O\": 1}}" n_minim_iter=4 energy=-90301.4777195947 stress="-1.7935173002567953e-05 4.4702102009522086e-05 1.4156251169657982e-05 4.4702102009522086e-05 -6.263684922978594e-05 4.490607484066227e-05 1.4156251169657982e-05 4.490607484066227e-05 -4.858615524780007e-05" free_energy=-11287.684771021655 pbc="T T T"
In      10.58740677       5.70941229       3.94226895        0      -0.08828566       0.01531378       0.01009416
In      16.45556452       5.71463408       3.94587453        0       0.00469887       0.00225269       0.00058739
In      13.80699032      10.62118941       3.94587453        0       0.00363221       0.00204013       0.00158835
In      19.68573161      10.62642063       3.94948661        0       0.00262050      -0.00110099       0.00138577
In      13.80699032       7.45305736       8.53413888        0       0.00386070       0.00205600       0.00221078
In      19.68573161       7.45828857       8.53775096        0       0.00497986       0.00053136      -0.00303309
In      17.03715741      12.36484390       8.53775096        0       0.00259431       0.00092309       0.00188775
In      22.91589870      12.37007511       8.54136304        0       0.00306425       0.00163686       0.00113083
In       7.93178998       4.28160550       2.95638843        1       0.01201984       0.01134333       0.00827955
In      13.81053127       4.28683671       2.96000051        1       0.00302640      -0.00415682      -0.00423050
In      11.16195707       9.19339204       2.96000051        1      -0.00493217       0.00108239      -0.00098090
In      17.04069836       9.19862326       2.96361259        1      -0.00243799      -0.00176837      -0.00114163
In      11.16195707       6.02525999       7.54826486        1      -0.00493475      -0.00053039      -0.00000320
In      17.04069836       6.03049120       7.55187694        1      -0.00244094      -0.00162855      -0.00120256
In      14.39212416      10.93704653       7.55187694        1      -0.00290399      -0.00132076      -0.00098550
In      20.27086545      10.94227774       7.55548902        1      -0.00227749      -0.00218201      -0.00119974
In       4.40728550       2.37906675       1.64271216        2       0.00343397       0.00144854       0.00055440
In      10.28602679       2.38429796       1.64632424        2       0.00070821       0.00331242       0.00190460
In       7.63745259       7.29085329       1.64632424        2       0.00587482      -0.00249851       0.00677475
In      13.51619388       7.29608451       1.64993632        2       0.00576702       0.00347493      -0.00173200
In       7.63745259       4.12272124       6.23458859        2       0.00606834       0.00337376      -0.00347094
In      13.51619388       4.12795245       6.23820067        2       0.00595957      -0.00015997       0.00570798
In      10.86761968       9.03450778       6.23820067        2       0.00071707       0.00086885       0.00121810
In      16.74636097       9.03973899       6.24181275        2       0.00343178       0.00145492       0.00056166
In       1.76225225       0.95126938       0.65683814        3      -0.00308540      -0.00230109      -0.00159422
In       7.64099354       0.95650059       0.66045022        3      -0.00210013      -0.00115107      -0.00081204
In       4.99241934       5.86305592       0.66045022        3      -0.00225345      -0.00106566      -0.00108866
In      10.87116063       5.86828714       0.66406230        3      -0.00720125      -0.00344056      -0.00227216
In       4.99241934       2.69492387       5.24871457        3      -0.00168331      -0.00176659      -0.00085188
In      10.87116063       2.70015508       5.25232665        3      -0.00980094      -0.00182450      -0.00117371
In       8.22258643       7.60671041       5.25232665        3       0.00413941      -0.01086556      -0.00777864
In      14.10132772       7.61194162       5.25593873        3      -0.00089920       0.00009783       0.00006688
O        6.02413952       2.31288234       0.21731357        4      -0.00017816       0.00026302      -0.00097670
O       11.90288081       2.31811355       0.22092565        4       0.00044128       0.00041340      -0.00063791
O        9.25430661       7.22466888       0.22092565        4       0.00040754       0.00070860      -0.00104790
O       15.13304790       7.22990010       0.22453773        4      -0.00024689       0.00061054      -0.00065156
O        9.25430661       4.05653683       4.80919000        4       0.00849604       0.00448037      -0.00251965
O       15.13304790       4.06176804       4.81280208        4      -0.00288782       0.00146930      -0.00104032
O       12.48447370       8.96832337       4.81280208        4       0.00014714      -0.00035258      -0.00126765
O       18.36321499       8.97355458       4.81641416        4      -0.00069176       0.00164951      -0.00032006
O        7.09991736       5.12275534       1.15338723        5      -0.00064082      -0.00006127      -0.00063021
O       12.97865865       5.12798655       1.15699931        5      -0.00089069       0.00056878       0.00028872
O       10.33008445      10.03454188       1.15699931        5       0.00039412       0.00075460      -0.00017588
O       16.20882574      10.03977310       1.16061139        5      -0.00062232       0.00080195       0.00001809
O       10.33008445       6.86640983       5.74526366        5       0.00428645      -0.00316867      -0.00502987
O       16.20882574       6.87164104       5.74887574        5      -0.00103244       0.00065857       0.00017733
O       13.56025154      11.77819637       5.74887574        5      -0.00151223      -0.00029572       0.00051645
O       19.43899283      11.78342758       5.75248782        5      -0.00038775       0.00178966      -0.00063826
O        8.17852876       2.18563119       2.51325178        6       0.00004183      -0.00056566      -0.00115493
O       14.05727005       2.19086240       2.51686386        6       0.00049533       0.00024329      -0.00027436
O       11.40869585       7.09741773       2.51686386        6       0.00932500       0.01156654      -0.01213206
O       17.28743714       7.10264895       2.52047594        6      -0.00200989       0.00035792      -0.00138552
O       11.40869585       3.92928568       7.10512821        6       0.00120992      -0.00089372      -0.00054886
O       17.28743714       3.93451689       7.10874029        6       0.00010446      -0.00013098      -0.00089262
O       14.63886294       8.84107222       7.10874029        6       0.00036477      -0.00038071      -0.00091876
O       20.51760423       8.84630343       7.11235237        6       0.00026222       0.00006797      -0.00015164
O        4.16054672       4.47504107       2.08584881        7      -0.00136427       0.00030984       0.00094170
O       10.03928801       4.48027228       2.08946089        7       0.00607970       0.00094954       0.00167946
O        7.39071381       9.38682761       2.08946089        7      -0.00042524       0.00149152      -0.00021487
O       13.26945510       9.39205883       2.09307297        7      -0.00135785      -0.00113432       0.00146115
O        7.39071381       6.21869556       6.67772524        7      -0.00160339       0.00054732       0.00212196
O       13.26945510       6.22392677       6.68133732        7      -0.00113883       0.00026146      -0.00035680
O       10.62088090      11.13048210       6.68133732        7      -0.00044428       0.00020440       0.00066569
O       16.49962219      11.13571331       6.68494940        7       0.00032394      -0.00042584       0.00109215
O        6.31493596       4.34778992       4.38178702        8      -0.00086744      -0.00110739       0.00053306
O       12.19367725       4.35302113       4.38539910        8       0.03021706      -0.02398350       0.00692915
O        9.54510305       9.25957646       4.38539910        8       0.00053639       0.00137843       0.00094333
O       15.42384434       9.26480768       4.38901118        8      -0.00032098      -0.00086058       0.00077757
O        9.54510305       6.09144441       8.97366345        8       0.00000601      -0.00018019       0.00121676
O       15.42384434       6.09667562       8.97727553        8      -0.00022142      -0.00089972       0.00007418
O       12.77527014      11.00323095       8.97727553        8      -0.00013541      -0.00063819       0.00027761
O       18.65401143      11.00846216       8.98088761        8      -0.00016406      -0.00056218       0.00139417
O        5.23915812       1.53791692       3.44571336        9       0.00015210      -0.00116579       0.00000300
O       11.11789941       1.54314813       3.44932544        9       0.00079439       0.00015042       0.00019416
O        8.46932521       6.44970346       3.44932544        9       0.01402839      -0.00352664       0.00046559
O       14.34806650       6.45493468       3.45293752        9      -0.00172534      -0.00179120       0.00074584
O        8.46932521       3.28157141       8.03758979        9       0.00025463      -0.00093509       0.00078465
O       14.34806650       3.28680262       8.04120187        9       0.00024903      -0.00063737      -0.00053533
O       11.69949230       8.19335795       8.04120187        9       0.00054313      -0.00091293      -0.00042530
O       17.57823359       8.19858916       8.04481395        9       0.00034792      -0.00053618       0.00022367
