10
Lattice="5.879384556739139 0.005286982436250326 0.003650587079700879 3.230566689965464 4.912293718813198 0.0036505870797004037 3.230566689965464 1.743870189691763 4.592337059513602" Properties=species:S:1:pos:R:3:spacegroup_kinds:I:1:forces:R:3 spacegroup="P 1" unit_cell=conventional occupancy="_JSON {\"0\": {\"In\": 1}, \"1\": {\"In\": 1}, \"2\": {\"In\": 1}, \"3\": {\"In\": 1}, \"4\": {\"O\": 1}, \"5\": {\"O\": 1}, \"6\": {\"O\": 1}, \"7\": {\"O\": 1}, \"8\": {\"O\": 1}, \"9\": {\"O\": 1}}" n_minim_iter=5 energy=-11287.67927811939 stress="-0.00012057580917512754 -7.762421540609849e-05 -5.359842973778299e-05 -7.762421540609849e-05 -1.8676649484524094e-05 -2.8932603141831147e-05 -5.359842973778299e-05 -2.8932603141831147e-05 3.2475932732878096e-06" free_energy=-11287.67927811939 pbc="T T T"
In      10.57788812       5.70997770       3.94265937        0      -0.00100328      -0.00054157      -0.00037395
In       7.93288880       4.28219865       2.95679799        1       0.00100328       0.00054157       0.00037395
In       4.40762915       2.37925226       1.64284025        2      -0.00100328      -0.00054157      -0.00037395
In       1.76262983       0.95147320       0.65697887        3       0.00100328       0.00054157       0.00037395
O        6.02482177       2.31293779       0.21770923        4      -0.00000000       0.00426028      -0.00616997
O        7.10093910       5.12297269       1.15356015        5      -0.00356161       0.00659798       0.00000000
O        8.17927112       2.18605327       2.51387776        6       0.00356161      -0.00233771      -0.00616997
O        4.16124683       4.47539763       2.08576048        7      -0.00356161       0.00233771       0.00616997
O        6.31569618       4.34851311       4.38192901        8       0.00000000      -0.00426028       0.00616997
O        5.23957884       1.53847821       3.44607809        9       0.00356161      -0.00659798      -0.00000000
