10
Lattice="5.140695295198498 -0.2747511722261824 -0.18971182362636296 2.5911184614312974 4.448408866498838 -0.18971182362637679 2.5911184614312868 1.3986939990699685 4.227054188975456" Properties=species:S:1:pos:R:3:spacegroup_kinds:I:1:forces:R:3 spacegroup="P 1" unit_cell=conventional occupancy="_JSON {\"0\": {\"In\": 1}, \"1\": {\"In\": 1}, \"2\": {\"In\": 1}, \"3\": {\"In\": 1}, \"4\": {\"O\": 1}, \"5\": {\"O\": 1}, \"6\": {\"O\": 1}, \"7\": {\"O\": 1}, \"8\": {\"O\": 1}, \"9\": {\"O\": 1}}" n_minim_iter=6 energy=-11283.050260461567 stress="-0.3704880349388197 -6.641194988280995e-06 -4.585652276975654e-06 -6.641194988280995e-06 -0.3704793168832562 -2.475349662094316e-06 -4.585652276975654e-06 -2.475349662094316e-06 -0.3704774411388068" free_energy=-11283.050260461567 pbc="T T T"
In       9.00035480       4.85842019       3.35467087        0       0.00390646       0.00210872       0.00145604
In       6.48404351       3.50010735       2.41677494        1      -0.00390646      -0.00210872      -0.00145604
In       3.83888869       2.07224435       1.43085560        2       0.00390646       0.00210872       0.00145604
In       1.32257740       0.71393150       0.49295967        3      -0.00390646      -0.00210872      -0.00145604
O        5.15108070       1.91243978      -0.08405735        4      -0.00000000      -0.00116657       0.00168949
O        5.89761251       4.49700491       0.77219581        5       0.00097526      -0.00180669       0.00000000
O        6.99566735       1.59469864       2.02946975        6      -0.00097526       0.00064012       0.00168949
O        3.32726486       3.97765305       1.81816079        7       0.00097526      -0.00064012      -0.00168949
O        5.17185151       3.65991191       3.93168788        8       0.00000000       0.00116657      -0.00168949
O        4.42531970       1.07534678       3.07543473        9      -0.00097526       0.00180669      -0.00000000
