10
Lattice="5.475701297340327 -0.09286733786797426 -0.0641235918285851 2.926999365608911 4.628671921173738 -0.06412359182859467 2.926999365608899 1.5800035810394095 4.3511267819719865" Properties=species:S:1:pos:R:3:spacegroup_kinds:I:1:forces:R:3 spacegroup="P 1" unit_cell=conventional occupancy="_JSON {\"0\": {\"In\": 1}, \"1\": {\"In\": 1}, \"2\": {\"In\": 1}, \"3\": {\"In\": 1}, \"4\": {\"O\": 1}, \"5\": {\"O\": 1}, \"6\": {\"O\": 1}, \"7\": {\"O\": 1}, \"8\": {\"O\": 1}, \"9\": {\"O\": 1}}" n_minim_iter=5 energy=-11285.834742171732 stress="-0.2104848927644185 -0.00015156277585224456 -0.00010465196672706938 -0.00015156277585224456 -0.21028593269260107 -5.6491464952278344e-05 -0.00010465196672706938 -5.6491464952278344e-05 -0.21024312518638408" free_energy=-11285.834742171732 pbc="T T T"
In       9.78044773       5.27951684       3.64543219        0       0.00134599       0.00072657       0.00050168
In       7.21410232       3.89419542       2.68888721        1      -0.00134599      -0.00072657      -0.00050168
In       4.11559772       2.22161276       1.53399239        2       0.00134599       0.00072657       0.00050168
In       1.54925231       0.83629133       0.57744741        3      -0.00134599      -0.00072657      -0.00050168
O        5.57027566       2.13551186       0.07795677        4      -0.00000000       0.00029377      -0.00042546
O        6.48786954       4.80815961       0.99159631        5      -0.00024559       0.00045497       0.00000000
O        7.57968115       1.91420838       2.25352016        6       0.00024559      -0.00016120      -0.00042546
O        3.75001889       4.20159980       1.96935944        7      -0.00024559       0.00016120       0.00042546
O        5.75942438       3.98029632       4.14492283        8      -0.00000000      -0.00029377       0.00042546
O        4.84183050       1.30764857       3.23128329        9       0.00024559      -0.00045497       0.00000000
