10
Lattice="6.237650625102053 0.08495482366253192 0.05866011195617279 3.4937578207496363 5.1680904532380545 0.058660111956170734 3.493757820749634 1.8859416004419007 4.812049898048408" Properties=species:S:1:pos:R:3:spacegroup_kinds:I:1:forces:R:3 spacegroup="P 1" unit_cell=conventional occupancy="_JSON {\"0\": {\"In\": 1}, \"1\": {\"In\": 1}, \"2\": {\"In\": 1}, \"3\": {\"In\": 1}, \"4\": {\"O\": 1}, \"5\": {\"O\": 1}, \"6\": {\"O\": 1}, \"7\": {\"O\": 1}, \"8\": {\"O\": 1}, \"9\": {\"O\": 1}}" n_minim_iter=1 energy=-11286.62596478276 stress="0.09349667372759737 -7.431737971747221e-05 -5.131510620717464e-05 -7.431737971747221e-05 0.09359423192456261 -2.770005796809731e-05 -5.131510620717464e-05 -2.770005796809731e-05 0.093615222182257" free_energy=-11286.62596478276 pbc="T T T"
In      11.26551991       6.08116354       4.19895797        0      -0.06690805      -0.03611718      -0.02493840
In       8.57222950       4.62731679       3.19509722        1       0.06690805       0.03611718       0.02493840
In       4.65293678       2.51167010       1.73427291        2      -0.06690805      -0.03611718      -0.02493840
In       1.95964636       1.05782335       0.73041216        3       0.06690805       0.03611718       0.02493840
O        6.42511688       2.48409105       0.31036154        4      -0.00000000       0.02554329      -0.03699321
O        7.62285178       5.42857350       1.29100264        5      -0.02135432       0.03955945       0.00000000
O        8.72113981       2.40975771       2.71638649        6       0.02135432      -0.01401616      -0.03699321
O        4.50402647       4.72922918       2.21298363        7      -0.02135432       0.01401616       0.03699321
O        6.80004939       4.65489584       4.61900858        8      -0.00000000      -0.02554329       0.03699321
O        5.60231449       1.71041339       3.63836748        9       0.02135432      -0.03955945       0.00000000
10
Lattice="6.242646796701137 0.08999538509322828 0.06214054879424019 3.5007132637377283 5.169501411431458 0.06214054879423813 3.500713263737727 1.8896961707223145 4.8121361860356515" Properties=species:S:1:pos:R:3:spacegroup_kinds:I:1:forces:R:3 spacegroup="P 1" unit_cell=conventional occupancy="_JSON {\"0\": {\"In\": 1}, \"1\": {\"In\": 1}, \"2\": {\"In\": 1}, \"3\": {\"In\": 1}, \"4\": {\"O\": 1}, \"5\": {\"O\": 1}, \"6\": {\"O\": 1}, \"7\": {\"O\": 1}, \"8\": {\"O\": 1}, \"9\": {\"O\": 1}}" n_minim_iter=2 energy=-11286.627665946642 stress="0.09326785981081874 0.0006090420745418129 0.0004205349941220793 0.0006090420745418129 0.09246835574779577 0.00022700612939981777 0.0004205349941220793 0.00022700612939981777 0.09229633743867781" free_energy=-11286.627665946642 pbc="T T T"
In      11.27683943       6.08727385       4.20317705        0      -0.03112470      -0.01680121      -0.01160100
In       8.58927057       4.63651562       3.20144888        1       0.03112470       0.01680121       0.01160100
In       4.65480277       2.51267736       1.73496841        2      -0.03112470      -0.01680121      -0.01160100
In       1.96723391       1.06191913       0.73324024        3       0.03112470       0.01680121       0.01160100
O        6.43234173       2.49051703       0.31190235        4       0.00000000       0.00431916      -0.00625525
O        7.63242225       5.43644803       1.29624487        5      -0.00361084       0.00668918      -0.00000000
O        8.73297448       2.41596373       2.71797044        6       0.00361084      -0.00237002      -0.00625525
O        4.51109885       4.73322925       2.21844685        7      -0.00361084       0.00237002       0.00625525
O        6.81173160       4.65867595       4.62451494        8       0.00000000      -0.00431916       0.00625525
O        5.61165108       1.71274495       3.64017242        9       0.00361084      -0.00668918       0.00000000
10
Lattice="6.235133414280601 0.08241284381093907 0.05690491058847784 3.490251464352183 5.167380892317789 0.05690491058847578 3.490251464352181 1.8840488580896249 4.812008245573907" Properties=species:S:1:pos:R:3:spacegroup_kinds:I:1:forces:R:3 spacegroup="P 1" unit_cell=conventional occupancy="_JSON {\"0\": {\"In\": 1}, \"1\": {\"In\": 1}, \"2\": {\"In\": 1}, \"3\": {\"In\": 1}, \"4\": {\"O\": 1}, \"5\": {\"O\": 1}, \"6\": {\"O\": 1}, \"7\": {\"O\": 1}, \"8\": {\"O\": 1}, \"9\": {\"O\": 1}}" n_minim_iter=3 energy=-11286.628198982593 stress="0.09190748220312127 -0.00015659322450502932 -0.0001081254209975951 -0.00015659322450502932 0.09211304586473179 -5.836644684193364e-05 -0.0001081254209975951 -5.836644684193364e-05 0.09215727417508655" free_energy=-11286.628198982593 pbc="T T T"
In      11.24897833       6.07223434       4.19279248        0      -0.00165351      -0.00089257      -0.00061631
In       8.57447620       4.62852957       3.19593462        1       0.00165351       0.00089257       0.00061631
In       4.64116016       2.50531304       1.72988345        2      -0.00165351      -0.00089257      -0.00061631
In       1.96665803       1.06160827       0.73302559        3       0.00165351       0.00089257       0.00061631
O        6.42147580       2.48484825       0.30379602        4      -0.00000000      -0.00529490       0.00766836
O        7.61468678       5.43079453       1.28835943        5       0.00442656      -0.00820032      -0.00000000
O        8.71851629       2.40443567       2.70980015        6      -0.00442656       0.00290543       0.00766836
O        4.49712007       4.72940693       2.21601793        7       0.00442656      -0.00290543      -0.00766836
O        6.79416056       4.64899435       4.62202205        8      -0.00000000       0.00529490      -0.00766836
O        5.60094958       1.70304807       3.63745864        9      -0.00442656       0.00820032      -0.00000000
