10
Lattice="5.702822400046097 -0.02146697532283979 -0.014822644807075312 3.111316735371398 4.77936735663779 -0.014822644807083582 3.111316735371392 1.679498684350416 4.474578886304189" Properties=species:S:1:pos:R:3:spacegroup_kinds:I:1:forces:R:3 spacegroup="P 1" unit_cell=conventional occupancy="_JSON {\"0\": {\"In\": 1}, \"1\": {\"In\": 1}, \"2\": {\"In\": 1}, \"3\": {\"In\": 1}, \"4\": {\"O\": 1}, \"5\": {\"O\": 1}, \"6\": {\"O\": 1}, \"7\": {\"O\": 1}, \"8\": {\"O\": 1}, \"9\": {\"O\": 1}}" n_minim_iter=1 energy=-11287.269807826911 stress="-0.08830881750155706 0.0009790810630650282 0.0006760417160615643 0.0009790810630650282 -0.08959408057368907 0.0003649294715071387 0.0006760417160615643 0.0003649294715071387 -0.08987061297808707" free_energy=-11287.269807826911 pbc="T T T"
In      10.23852739       5.52678970       3.81617062        0       0.01423598       0.00768463       0.00530613
In       7.64965643       4.12930891       2.85122978        1      -0.01423598      -0.00768463      -0.00530613
In       4.27579945       2.30809017       1.59370383        2       0.01423598       0.00768463       0.00530613
In       1.68692849       0.91060938       0.62876298        3      -0.01423598      -0.00768463      -0.00530613
O        5.83277517       2.23981498       0.17520261        4       0.00000000       0.05701515      -0.08257250
O        6.85238823       4.98133839       1.09641076        5      -0.04766495       0.08830061       0.00000000
O        7.92447885       2.08652589       2.41249205        6       0.04766495      -0.03128546      -0.08257250
O        4.00097703       4.35087318       2.03244155        7      -0.04766495       0.03128546       0.08257250
O        6.09268071       4.19758410       4.26973099        8       0.00000000      -0.05701515       0.08257250
O        5.07306765       1.45606069       3.34852284        9       0.04766495      -0.08830061       0.00000000
10
Lattice="5.693422408528011 -0.031237430858431923 -0.021569007060233326 3.0979906051357124 4.776870179260306 -0.02156900706024162 3.097990605135707 1.6723051968009577 4.474633980598246" Properties=species:S:1:pos:R:3:spacegroup_kinds:I:1:forces:R:3 spacegroup="P 1" unit_cell=conventional occupancy="_JSON {\"0\": {\"In\": 1}, \"1\": {\"In\": 1}, \"2\": {\"In\": 1}, \"3\": {\"In\": 1}, \"4\": {\"O\": 1}, \"5\": {\"O\": 1}, \"6\": {\"O\": 1}, \"7\": {\"O\": 1}, \"8\": {\"O\": 1}, \"9\": {\"O\": 1}}" n_minim_iter=2 energy=-11287.270543205326 stress="-0.08966693399434054 -0.0010270206792987475 -0.000709143347461688 -0.0010270206792987475 -0.0883187394432308 -0.00038279783762195356 -0.000709143347461688 -0.00038279783762195356 -0.08802866693690195" free_energy=-11287.270543205326 pbc="T T T"
In      10.20777770       5.51019092       3.80470940        0       0.06572464       0.03547837       0.02449731
In       7.62632773       4.11671601       2.84253455        1      -0.06572463      -0.03547837      -0.02449731
In       4.26307589       2.30122195       1.58896142        2       0.06572464       0.03547837       0.02449731
In       1.68162592       0.90774703       0.62678657        3      -0.06572463      -0.03547837      -0.02449731
O        5.81906211       2.23185163       0.16588176        4      -0.00000000       0.03663354      -0.05305472
O        6.83051804       4.97310710       1.08630499        5      -0.03062582       0.05673516       0.00000000
O        7.90559679       2.07219799       2.40319875        6       0.03062582      -0.02010162      -0.05305472
O        3.98380684       4.34573996       2.02829722        7      -0.03062582       0.02010162       0.05305472
O        6.07034151       4.18608633       4.26561421        8       0.00000000      -0.03663354       0.05305472
O        5.05888559       1.44483086       3.34519098        9       0.03062582      -0.05673516      -0.00000000
10
Lattice="5.701285429879058 -0.023062656819954522 -0.0159244404583612 3.1091393685773787 4.778958027211905 -0.015924440458369483 3.1091393685773716 1.678323334819354 4.474586483403566" Properties=species:S:1:pos:R:3:spacegroup_kinds:I:1:forces:R:3 spacegroup="P 1" unit_cell=conventional occupancy="_JSON {\"0\": {\"In\": 1}, \"1\": {\"In\": 1}, \"2\": {\"In\": 1}, \"3\": {\"In\": 1}, \"4\": {\"O\": 1}, \"5\": {\"O\": 1}, \"6\": {\"O\": 1}, \"7\": {\"O\": 1}, \"8\": {\"O\": 1}, \"9\": {\"O\": 1}}" n_minim_iter=3 energy=-11287.2726867313 stress="-0.08688311358982126 0.0008741151551570181 0.0006035642315531997 0.0008741151551570181 -0.08803058541045801 0.0003258058947858679 0.0006035642315531997 0.0003258058947858679 -0.08827747116337772" free_energy=-11287.2726867313 pbc="T T T"
In      10.23684196       5.52587990       3.81554242        0       0.03127771       0.01688381       0.01165803
In       7.64250430       4.12544817       2.84856399        1      -0.03127771      -0.01688381      -0.01165803
In       4.27705988       2.30877055       1.59417362        2       0.03127771       0.01688381       0.01165803
In       1.68272221       0.90833881       0.62719519        3      -0.03127771      -0.01688381      -0.01165803
O        5.83053376       2.24252178       0.16787560        4      -0.00000000       0.00244710      -0.00354403
O        6.84546354       4.98619989       1.09475996        5      -0.00204579       0.00378988       0.00000000
O        7.92474335       2.08198593       2.40516884        6       0.00204579      -0.00134278      -0.00354403
O        3.99482083       4.35223279       2.03756877        7      -0.00204579       0.00134278       0.00354403
O        6.08903041       4.19169693       4.27486201        8      -0.00000000      -0.00244710       0.00354403
O        5.07410064       1.44801883       3.34797764        9       0.00204579      -0.00378988       0.00000000
10
Lattice="5.697376888306341 -0.027123776994135908 -0.018728586871886166 3.1035995497184583 4.777918892328862 -0.018728586871894454 3.1035995497184508 1.6753329229531109 4.474608284409788" Properties=species:S:1:pos:R:3:spacegroup_kinds:I:1:forces:R:3 spacegroup="P 1" unit_cell=conventional occupancy="_JSON {\"0\": {\"In\": 1}, \"1\": {\"In\": 1}, \"2\": {\"In\": 1}, \"3\": {\"In\": 1}, \"4\": {\"O\": 1}, \"5\": {\"O\": 1}, \"6\": {\"O\": 1}, \"7\": {\"O\": 1}, \"8\": {\"O\": 1}, \"9\": {\"O\": 1}}" n_minim_iter=4 energy=-11287.27314491204 stress="-0.08701932170924037 0.00027089197993364453 0.0001870471054778172 0.00027089197993364453 -0.08737492807487246 0.00010096862317456211 0.0001870471054778172 0.00010096862317456211 -0.0874514390126661" free_energy=-11287.27314491204 pbc="T T T"
In      10.22528917       5.51964367       3.81123639        0       0.03904369       0.02107591       0.01455262
In       7.63157482       4.11954840       2.84449028        1      -0.03904369      -0.02107591      -0.01455262
In       4.27300118       2.30657965       1.59266083        2       0.03904369       0.02107591       0.01455262
In       1.67928683       0.90648438       0.62591473        3      -0.03904369      -0.02107591      -0.01455262
O        5.82483245       2.23968791       0.16331097        4       0.00000000      -0.00793092       0.01148599
O        6.83597293       4.98351553       1.09055919        5       0.00663029      -0.01228278      -0.00000000
O        7.91729151       2.07576841       2.40061511        6      -0.00663029       0.00435187       0.01148599
O        3.98728449       4.35035964       2.03653600        7       0.00663029      -0.00435187      -0.01148599
O        6.07974355       4.18644014       4.27384015        8      -0.00000000       0.00793092      -0.01148599
O        5.06860307       1.44261252       3.34659192        9      -0.00663029       0.01228278       0.00000000
10
Lattice="5.693299267048877 -0.03136560677577743 -0.021657510730035988 3.0978158790100543 4.776837565295776 -0.021657510730044266 3.0978158790100467 1.6722108790817658 4.474634839724077" Properties=species:S:1:pos:R:3:spacegroup_kinds:I:1:forces:R:3 spacegroup="P 1" unit_cell=conventional occupancy="_JSON {\"0\": {\"In\": 1}, \"1\": {\"In\": 1}, \"2\": {\"In\": 1}, \"3\": {\"In\": 1}, \"4\": {\"O\": 1}, \"5\": {\"O\": 1}, \"6\": {\"O\": 1}, \"7\": {\"O\": 1}, \"8\": {\"O\": 1}, \"9\": {\"O\": 1}}" n_minim_iter=5 energy=-11287.273474503703 stress="-0.08700905974132676 -0.00016508600098030465 -0.00011398956408435972 -0.00016508600098030465 -0.08679234740858262 -6.153193004761011e-05 -0.00011398956408435972 -6.153193004761011e-05 -0.08674572039207305" free_energy=-11287.273474503703 pbc="T T T"
In      10.21391693       5.51350490       3.80699765        0       0.03169899       0.01711122       0.01181505
In       7.61947961       4.11301937       2.83998208        1      -0.03169899      -0.01711122      -0.01181505
In       4.26945142       2.30466348       1.59133775        2       0.03169899       0.01711122       0.01181505
In       1.67501410       0.90417795       0.62432217        3      -0.03169899      -0.01711122      -0.01181505
O        5.81888239       2.23650076       0.15887516        4      -0.00000000      -0.01140034       0.01651060
O        6.82625736       4.98036117       1.08617245        5       0.00953074      -0.01765596       0.00000000
O        7.90932331       2.06940172       2.39619258        6      -0.00953074       0.00625562       0.01651060
O        3.97960773       4.34828112       2.03512724        7       0.00953074      -0.00625562      -0.01651060
O        6.07004864       4.18118209       4.27244466        8       0.00000000       0.01140034      -0.01651060
O        5.06267367       1.43732168       3.34514738        9      -0.00953074       0.01765596      -0.00000000
10
Lattice="5.6912441800468345 -0.033505407946542255 -0.023135013370022814 3.0948993234300524 4.776293657964389 -0.0231350133700311 3.0948993234300453 1.6706365130894645 4.474649704399974" Properties=species:S:1:pos:R:3:spacegroup_kinds:I:1:forces:R:3 spacegroup="P 1" unit_cell=conventional occupancy="_JSON {\"0\": {\"In\": 1}, \"1\": {\"In\": 1}, \"2\": {\"In\": 1}, \"3\": {\"In\": 1}, \"4\": {\"O\": 1}, \"5\": {\"O\": 1}, \"6\": {\"O\": 1}, \"7\": {\"O\": 1}, \"8\": {\"O\": 1}, \"9\": {\"O\": 1}}" n_minim_iter=6 energy=-11287.273631050004 stress="-0.08685371854388935 -0.00021116406681026672 -0.00014580582061896806 -0.00021116406681026672 -0.08657651843529154 -7.870644626340251e-05 -0.00014580582061896806 -7.870644626340251e-05 -0.0865168770944351" free_energy=-11287.273631050004 pbc="T T T"
In      10.20880036       5.51074296       3.80509057        0       0.01463027       0.00789747       0.00545309
In       7.61276389       4.10939420       2.83747895        1      -0.01463027      -0.00789747      -0.00545309
In       4.26827895       2.30403058       1.59090073        2       0.01463027       0.00789747       0.00545309
In       1.67224247       0.90268182       0.62328911        3      -0.01463027      -0.00789747      -0.00545309
O        5.81588280       2.23471465       0.15689693        4      -0.00000000      -0.00700248       0.01014137
O        6.82150830       4.97849424       1.08395991        5       0.00585411      -0.01084489       0.00000000
O        7.90515663       2.06628900       2.39422178        6      -0.00585411       0.00384241       0.01014137
O        3.97588621       4.34713578       2.03415790        7       0.00585411      -0.00384241      -0.01014137
O        6.06516003       4.17871012       4.27148275        8      -0.00000000       0.00700248      -0.01014137
O        5.05953454       1.43493054       3.34441977        9      -0.00585411       0.01084489       0.00000000
10
Lattice="5.691068734589185 -0.03368814640462571 -0.02326119170749373 3.0946502824126725 4.776247257271117 -0.023261191707502002 3.0946502824126663 1.6705020799550032 4.474651019520469" Properties=species:S:1:pos:R:3:spacegroup_kinds:I:1:forces:R:3 spacegroup="P 1" unit_cell=conventional occupancy="_JSON {\"0\": {\"In\": 1}, \"1\": {\"In\": 1}, \"2\": {\"In\": 1}, \"3\": {\"In\": 1}, \"4\": {\"O\": 1}, \"5\": {\"O\": 1}, \"6\": {\"O\": 1}, \"7\": {\"O\": 1}, \"8\": {\"O\": 1}, \"9\": {\"O\": 1}}" n_minim_iter=7 energy=-11287.273670996921 stress="-0.0867073749700268 -6.549600191193422e-05 -4.522406868074198e-05 -6.549600191193422e-05 -0.08662139680537273 -2.441209631459651e-05 -4.522406868074198e-05 -2.441209631459651e-05 -0.0866028980647353" free_energy=-11287.273670996921 pbc="T T T"
In      10.20887637       5.51078399       3.80511890        0       0.00224653       0.00121268       0.00083734
In       7.61167759       4.10880781       2.83707405        1      -0.00224653      -0.00121268      -0.00083734
In       4.26869172       2.30425339       1.59105459        2       0.00224653       0.00121268       0.00083734
In       1.67149294       0.90227721       0.62300974        3      -0.00224653      -0.00121268      -0.00083734
O        5.81562670       2.23441306       0.15694390        4       0.00000000      -0.00151323       0.00219154
O        6.82122744       4.97810396       1.08377097        5       0.00126506      -0.00234357      -0.00000000
O        7.90467624       2.06610500       2.39426941        6      -0.00126506       0.00083034       0.00219154
O        3.97569307       4.34695621       2.03385923        7       0.00126506      -0.00083034      -0.00219154
O        6.06474261       4.17864814       4.27118474        8      -0.00000000       0.00151323      -0.00219154
O        5.05914187       1.43495724       3.34435767        9      -0.00126506       0.00234357       0.00000000
