10
Lattice="6.099493006713418 0.08357408130329406 0.05770672875927446 3.4167934098764947 5.053347638965296 0.0577067287592683 3.4167934098764916 1.844395966294877 4.705088303772361" Properties=species:S:1:pos:R:3:spacegroup_kinds:I:1:forces:R:3 spacegroup="P 1" unit_cell=conventional occupancy="_JSON {\"0\": {\"In\": 1}, \"1\": {\"In\": 1}, \"2\": {\"In\": 1}, \"3\": {\"In\": 1}, \"4\": {\"O\": 1}, \"5\": {\"O\": 1}, \"6\": {\"O\": 1}, \"7\": {\"O\": 1}, \"8\": {\"O\": 1}, \"9\": {\"O\": 1}}" n_minim_iter=6 energy=-11287.376933234656 stress="0.055767395628712184 0.00017952773778242504 0.00012396138007303686 0.00017952773778242504 0.05553172528393344 6.691474769946727e-05 0.00012396138007303686 6.691474769946727e-05 0.055481019332756246" free_energy=-11287.376933234656 pbc="T T T"
In      11.03281212       5.95554713       4.11222160        0      -0.00031593      -0.00017054      -0.00011775
In       8.36680763       4.51642941       3.11853104        1       0.00031593       0.00017054       0.00011775
In       4.56627221       2.46488829       1.70197072        2      -0.00031593      -0.00017054      -0.00011775
In       1.90026772       1.02577057       0.70828016        3       0.00031593       0.00017054       0.00011775
O        6.28301647       2.42830230       0.30537797        4       0.00000000      -0.00289269       0.00418936
O        7.45537862       5.30680879       1.26283217        5       0.00241830      -0.00447997       0.00000000
O        8.52744772       2.35748178       2.65792212        6      -0.00241830       0.00158728       0.00418936
O        4.40563211       4.62383592       2.16257965        7       0.00241830      -0.00158728      -0.00418936
O        6.65006337       4.55301540       4.51512380        8       0.00000000       0.00289269      -0.00418936
O        5.47770122       1.67450891       3.55766959        9      -0.00241830       0.00447997      -0.00000000
