10
Lattice="6.2799920315382 0.08300576235364886 0.05731431251054395 3.515362050472693 5.204557572634164 0.057314312510543114 3.515362050472691 1.8976036324631855 4.846628200238256" Properties=species:S:1:pos:R:3:spacegroup_kinds:I:1:forces:R:3 spacegroup="P 1" unit_cell=conventional occupancy="_JSON {\"0\": {\"In\": 1}, \"1\": {\"In\": 1}, \"2\": {\"In\": 1}, \"3\": {\"In\": 1}, \"4\": {\"O\": 1}, \"5\": {\"O\": 1}, \"6\": {\"O\": 1}, \"7\": {\"O\": 1}, \"8\": {\"O\": 1}, \"9\": {\"O\": 1}}" n_minim_iter=1 energy=-11286.305105539688 stress="0.1025110279314727 -0.00024269834289666415 -0.00016757979520424179 -0.00024269834289666415 0.10282962383683948 -9.046010740272625e-05 -0.00016757979520424179 -9.046010740272625e-05 0.10289817174233841" free_energy=-11286.305105539688 pbc="T T T"
In      11.32990901       6.11592098       4.22295749        0      -0.05322132      -0.02872904      -0.01983700
In       8.63616520       4.66182949       3.21892775        1       0.05322132       0.02872904       0.01983700
In       4.67455095       2.52333749       1.74232908        2      -0.05322132      -0.02872904      -0.01983700
In       1.98080713       1.06924600       0.73829934        3       0.05322132       0.02872904       0.01983700
O        6.46767505       2.50272547       0.30598168        4      -0.00000000       0.04243627      -0.06145855
O        7.66947058       5.46986634       1.29762852        5      -0.03547693       0.06572197       0.00000000
O        8.78124158       2.42173436       2.72929578        6       0.03547693      -0.02328571      -0.06145855
O        4.52947456       4.76343261       2.23196105        7      -0.03547693       0.02328571       0.06145855
O        6.84304109       4.68244151       4.65527515        8       0.00000000      -0.04243627       0.06145855
O        5.64124556       1.71530064       3.66362831        9       0.03547693      -0.06572197       0.00000000
10
Lattice="6.289773859350419 0.0928749025455699 0.06412881513218305 3.528980203489189 5.207319816630443 0.06412881513218222 3.5289802034891884 1.9049547548399177 4.84679683498444" Properties=species:S:1:pos:R:3:spacegroup_kinds:I:1:forces:R:3 spacegroup="P 1" unit_cell=conventional occupancy="_JSON {\"0\": {\"In\": 1}, \"1\": {\"In\": 1}, \"2\": {\"In\": 1}, \"3\": {\"In\": 1}, \"4\": {\"O\": 1}, \"5\": {\"O\": 1}, \"6\": {\"O\": 1}, \"7\": {\"O\": 1}, \"8\": {\"O\": 1}, \"9\": {\"O\": 1}}" n_minim_iter=2 energy=-11286.306272291158 stress="0.10301735508717402 0.0010126911426718355 0.0006992490036414954 0.0010126911426718355 0.10168797126149025 0.0003774568396449138 0.0006992490036414954 0.0003774568396449138 0.1014019460009883" free_energy=-11286.306272291158 pbc="T T T"
In      11.35919739       6.13173094       4.23387405        0      -0.03401393      -0.01836083      -0.01267790
In       8.66240402       4.67599329       3.22870766        1       0.03401393       0.01836083       0.01267790
In       4.68533026       2.52915620       1.74634681        2      -0.03401393      -0.01836083      -0.01267790
In       1.98853689       1.07341855       0.74118042        3       0.03401393       0.01836083       0.01267790
O        6.48182050       2.51349653       0.31162056        4      -0.00000000       0.02149179      -0.03112559
O        7.68972214       5.48247992       1.30789243        5      -0.01796724       0.03328480       0.00000000
O        8.80289907       2.43487873       2.73501898        6       0.01796724      -0.01179301      -0.03112559
O        4.54483521       4.77027076       2.24003549        7      -0.01796724       0.01179301       0.03112559
O        6.86591378       4.69165296       4.66343391        8      -0.00000000      -0.02149179       0.03112559
O        5.65801214       1.72266957       3.66716204        9       0.01796724      -0.03328480      -0.00000000
10
Lattice="6.283515909196834 0.08656387422886413 0.05977113876189137 3.5202702783929327 5.205551138209539 0.05977113876189054 3.520270278392931 1.9002531095288986 4.846686843738644" Properties=species:S:1:pos:R:3:spacegroup_kinds:I:1:forces:R:3 spacegroup="P 1" unit_cell=conventional occupancy="_JSON {\"0\": {\"In\": 1}, \"1\": {\"In\": 1}, \"2\": {\"In\": 1}, \"3\": {\"In\": 1}, \"4\": {\"O\": 1}, \"5\": {\"O\": 1}, \"6\": {\"O\": 1}, \"7\": {\"O\": 1}, \"8\": {\"O\": 1}, \"9\": {\"O\": 1}}" n_minim_iter=3 energy=-11286.307619987667 stress="0.10181468857386905 0.0004645792360106534 0.00032078543422818734 0.0004645792360106534 0.10120482432569697 0.00017316099909714966 0.00032078543422818734 0.00017316099909714966 0.10107360821130763" free_energy=-11286.307619987667 pbc="T T T"
In      11.33683729       6.11966089       4.22553985        0      -0.01680801      -0.00907302      -0.00626479
In       8.64924742       4.66889131       3.22380384        1       0.01680801       0.00907302       0.00626479
In       4.67480906       2.52347682       1.74242529        2      -0.01680801      -0.00907302      -0.00626479
In       1.98721918       1.07270725       0.74068928        3       0.01680801       0.00907302       0.00626479
O        6.47277208       2.50941525       0.30394847        4       0.00000000       0.00941775      -0.01363931
O        7.67442138       5.47875967       1.30132842        5      -0.00787329       0.01458548      -0.00000000
O        8.79139306       2.42493168       2.72729189        6       0.00787329      -0.00516773      -0.01363931
O        4.53266342       4.76743645       2.23893724        7      -0.00787329       0.00516773       0.01363931
O        6.85128440       4.68295288       4.66228066        8       0.00000000      -0.00941775       0.01363931
O        5.64963510       1.71360847       3.66490070        9       0.00787329      -0.01458548      -0.00000000
10
Lattice="6.278220978705715 0.081216316856391 0.056078725539925524 3.5128942497362683 5.2040588714727445 0.056078725539924684 3.5128942497362674 1.8962715057648838 4.846599626298477" Properties=species:S:1:pos:R:3:spacegroup_kinds:I:1:forces:R:3 spacegroup="P 1" unit_cell=conventional occupancy="_JSON {\"0\": {\"In\": 1}, \"1\": {\"In\": 1}, \"2\": {\"In\": 1}, \"3\": {\"In\": 1}, \"4\": {\"O\": 1}, \"5\": {\"O\": 1}, \"6\": {\"O\": 1}, \"7\": {\"O\": 1}, \"8\": {\"O\": 1}, \"9\": {\"O\": 1}}" n_minim_iter=4 energy=-11286.307968541278 stress="0.10075297136360377 -1.3883481559846597e-05 -9.586349140415395e-06 -1.3883481559846597e-05 0.10077119654100583 -5.174741636810628e-06 -9.586349140415395e-06 -5.174741636810628e-06 0.10077511780234859" free_energy=-11286.307968541278 pbc="T T T"
In      11.31787220       6.10942347       4.21847105        0      -0.00113495      -0.00061265      -0.00042302
In       8.63814203       4.66289658       3.21966457        1       0.00113495       0.00061265       0.00042302
In       4.66586746       2.51865012       1.73909252        2      -0.00113495      -0.00061265      -0.00042302
In       1.98613729       1.07212324       0.74028603        3       0.00113495       0.00061265       0.00042302
O        6.46511286       2.50595657       0.29745295        4       0.00000000      -0.00118488       0.00171600
O        7.66146864       5.47560864       1.29576800        5       0.00099056      -0.00183504      -0.00000000
O        8.78165133       2.41650796       2.72075276        6      -0.00099056       0.00065017       0.00171600
O        4.52235816       4.76503875       2.23800432        7       0.00099056      -0.00065017      -0.00171600
O        6.83889662       4.67559014       4.66130413        8       0.00000000       0.00118488      -0.00171600
O        5.64254084       1.70593807       3.66298908        9      -0.00099056       0.00183504      -0.00000000
