10
Lattice="5.187230270063686 -0.22272440822149206 -0.1537880741597594 2.6601478528262548 4.458764115513003 -0.15378807415977272 2.6601478528262406 1.435956284426942 4.2240096778718526" Properties=species:S:1:pos:R:3:spacegroup_kinds:I:1:forces:R:3 spacegroup="P 1" unit_cell=conventional occupancy="_JSON {\"0\": {\"In\": 1}, \"1\": {\"In\": 1}, \"2\": {\"In\": 1}, \"3\": {\"In\": 1}, \"4\": {\"O\": 1}, \"5\": {\"O\": 1}, \"6\": {\"O\": 1}, \"7\": {\"O\": 1}, \"8\": {\"O\": 1}, \"9\": {\"O\": 1}}" n_minim_iter=1 energy=-11283.026676869877 stress="-0.38138879799827297 0.005202899106136947 0.003592528721616996 0.005202899106136947 -0.3882187677955554 0.0019392584472738034 0.003592528721616996 0.0019392584472738034 -0.38968827859842653" free_energy=-11283.026676869877 pbc="T T T"
In       9.14204976       4.93490758       3.40748434        0       0.10530623       0.05684464       0.03925042
In       6.61923919       3.57308640       2.46716595        1      -0.10530623      -0.05684464      -0.03925042
In       3.88828677       2.09890959       1.44926757        2       0.10530623       0.05684464       0.03925042
In       1.36547620       0.73708841       0.50894919        3      -0.10530623      -0.05684464      -0.03925042
O        5.22049662       1.96067769      -0.04500392        4       0.00000000      -0.04213777       0.06102625
O        6.00378910       4.54894628       0.82532031        5       0.03522738      -0.06525968       0.00000000
O        7.09735200       1.66572841       2.06700092        6      -0.03522738       0.02312191       0.06102625
O        3.41017396       4.00626758       1.84943260        7       0.03522738      -0.02312191      -0.06102625
O        5.28702934       3.71131830       3.96143744        8       0.00000000       0.04213777      -0.06102625
O        4.50373687       1.12304971       3.09111322        9      -0.03522738       0.06525968       0.00000000
10
Lattice="5.16623707656115 -0.2460781305968312 -0.16991349129407646 2.62910460060015 4.454028398730329 -0.1699134912940898 2.6291046006001357 1.4191990379920247 4.2252945059229425" Properties=species:S:1:pos:R:3:spacegroup_kinds:I:1:forces:R:3 spacegroup="P 1" unit_cell=conventional occupancy="_JSON {\"0\": {\"In\": 1}, \"1\": {\"In\": 1}, \"2\": {\"In\": 1}, \"3\": {\"In\": 1}, \"4\": {\"O\": 1}, \"5\": {\"O\": 1}, \"6\": {\"O\": 1}, \"7\": {\"O\": 1}, \"8\": {\"O\": 1}, \"9\": {\"O\": 1}}" n_minim_iter=2 energy=-11283.032451390276 stress="-0.3824671163803045 -0.0007709055450688785 -0.0005322994463278311 -0.0007709055450688785 -0.3814551302783992 -0.00028733693650600633 -0.0005322994463278311 -0.00028733693650600633 -0.38123739512621796" free_energy=-11283.032451390276 pbc="T T T"
In       9.07064532       4.89636324       3.38087001        0       0.27482957       0.14835388       0.10243627
In       6.56602408       3.54436072       2.44733127        1      -0.27482957      -0.14835388      -0.10243627
In       3.85842218       2.08278859       1.43813625        2       0.27482957       0.14835388       0.10243627
In       1.35380094       0.73078607       0.50459751        3      -0.27482957      -0.14835388      -0.10243627
O        5.18923010       1.94003435      -0.06405974        4       0.00000000      -0.12884322       0.18659789
O        5.95512396       4.52716707       0.80145339        5       0.10771358      -0.19954231      -0.00000000
O        7.05244085       1.63322926       2.04858751        6      -0.10771358       0.07069909       0.18659789
O        3.37200542       3.99392004       1.83688001        7       0.10771358      -0.07069909      -0.18659789
O        5.23521616       3.68711495       3.94952726        8       0.00000000       0.12884322      -0.18659789
O        4.46932231       1.09998224       3.08401413        9      -0.10771358       0.19954231      -0.00000000
10
Lattice="5.130054689221428 -0.2867826893121635 -0.19801941710769105 2.5752213202108947 4.446115223115922 -0.19801941710770454 2.5752213202108813 1.390112671601419 4.2278527678986295" Properties=species:S:1:pos:R:3:spacegroup_kinds:I:1:forces:R:3 spacegroup="P 1" unit_cell=conventional occupancy="_JSON {\"0\": {\"In\": 1}, \"1\": {\"In\": 1}, \"2\": {\"In\": 1}, \"3\": {\"In\": 1}, \"4\": {\"O\": 1}, \"5\": {\"O\": 1}, \"6\": {\"O\": 1}, \"7\": {\"O\": 1}, \"8\": {\"O\": 1}, \"9\": {\"O\": 1}}" n_minim_iter=3 energy=-11283.04608833039 stress="-0.3712240118531014 -0.004468020831189122 -0.0030851055992293184 -0.004468020831189122 -0.3653587343015646 -0.001665349829365032 -0.0030851055992293184 -0.001665349829365032 -0.36409678308062227" free_energy=-11283.04608833039 pbc="T T T"
In       8.95753259       4.83530463       3.33870990        0       0.12401404       0.06694317       0.04622332
In       6.46321339       3.48886318       2.40901100        1      -0.12401404      -0.06694317      -0.04622332
In       3.81728393       2.06058203       1.42280293        2       0.12401404       0.06694317       0.04622332
In       1.32296472       0.71414058       0.49310403        3      -0.12401404      -0.06694317      -0.04622332
O        5.13515167       1.89904316      -0.08976952        4      -0.00000000      -0.01528961       0.02214326
O        5.87511787       4.48155374       0.75993406        5       0.01278219      -0.02367935       0.00000000
O        6.97040679       1.57957332       2.02415686        6      -0.01278219       0.00838974       0.02214326
O        3.31009052       3.96987189       1.80765707        7       0.01278219      -0.00838974      -0.02214326
O        5.14534565       3.65040205       3.92158345        8       0.00000000       0.01528961      -0.02214326
O        4.40537945       1.06789146       3.07187987        9      -0.01278219       0.02367935      -0.00000000
10
Lattice="5.143426197222267 -0.27167158808328434 -0.18758541404992235 2.595191514727523 4.449002079110575 -0.1875854140499359 2.5951915147275098 1.4008926462133242 4.226855519328769" Properties=species:S:1:pos:R:3:spacegroup_kinds:I:1:forces:R:3 spacegroup="P 1" unit_cell=conventional occupancy="_JSON {\"0\": {\"In\": 1}, \"1\": {\"In\": 1}, \"2\": {\"In\": 1}, \"3\": {\"In\": 1}, \"4\": {\"O\": 1}, \"5\": {\"O\": 1}, \"6\": {\"O\": 1}, \"7\": {\"O\": 1}, \"8\": {\"O\": 1}, \"9\": {\"O\": 1}}" n_minim_iter=4 energy=-11283.048776105968 stress="-0.3705075972991507 0.0006030889346913249 0.00041642443495999216 0.0006030889346913249 -0.3712992865331078 0.00022478723646646227 0.00041642443495999216 0.00022478723646646227 -0.3714696234336156" free_energy=-11283.048776105968 pbc="T T T"
In       9.00380670       4.86028354       3.35595749        0       0.04353415       0.02349987       0.01622633
In       6.49690713       3.50705117       2.42156955        1      -0.04353415      -0.02349987      -0.01622633
In       3.83690209       2.07117197       1.43011514        2       0.04353415       0.02349987       0.01622633
In       1.33000252       0.71793960       0.49572720        3      -0.04353415      -0.02349987      -0.01622633
O        5.15516540       1.91271239      -0.07801955        4      -0.00000000       0.02719155      -0.03938031
O        5.90602025       4.49607334       0.77533576        5      -0.02273227       0.04211215       0.00000000
O        6.99950206       1.60030640       2.03540821        6       0.02273227      -0.01492060      -0.03938031
O        3.33430715       3.97791674       1.81627648        7      -0.02273227       0.01492060       0.03938031
O        5.17864382       3.66551075       3.92970424        8      -0.00000000      -0.02719155       0.03938031
O        4.42778896       1.08214980       3.07634893        9       0.02273227      -0.04211215      -0.00000000
10
Lattice="5.136744953920021 -0.27921186800540626 -0.19279187138034465 2.5852216589627464 4.447554042716932 -0.1927918713803583 2.5852216589627357 1.395510886314133 4.227346098291097" Properties=species:S:1:pos:R:3:spacegroup_kinds:I:1:forces:R:3 spacegroup="P 1" unit_cell=conventional occupancy="_JSON {\"0\": {\"In\": 1}, \"1\": {\"In\": 1}, \"2\": {\"In\": 1}, \"3\": {\"In\": 1}, \"4\": {\"O\": 1}, \"5\": {\"O\": 1}, \"6\": {\"O\": 1}, \"7\": {\"O\": 1}, \"8\": {\"O\": 1}, \"9\": {\"O\": 1}}" n_minim_iter=5 energy=-11283.049566627109 stress="-0.36953174374611 -0.0007619152233886788 -0.0005260917554521876 -0.0007619152233886788 -0.3685315594529962 -0.0002839860052256404 -0.0005260917554521876 -0.0002839860052256404 -0.36831636353453506" free_energy=-11283.049566627109 pbc="T T T"
In       8.98473301       4.84998750       3.34884822        0       0.01470053       0.00793539       0.00547928
In       6.47604939       3.49579209       2.41379531        1      -0.01470053      -0.00793539      -0.00547928
In       3.83113887       2.06806097       1.42796704        2       0.01470053       0.00793539       0.00547928
In       1.32245525       0.71386556       0.49291414        3      -0.01470053      -0.00793539      -0.00547928
O        5.14516954       1.90650291      -0.08477347        4      -0.00000000       0.02365125      -0.03425305
O        5.89007540       4.48977262       0.76764872        5      -0.01977256       0.03662921      -0.00000000
O        6.98548534       1.58962008       2.02889958        6       0.01977256      -0.01297796      -0.03425305
O        3.32170292       3.97423298       1.81286277        7      -0.01977256       0.01297796       0.03425305
O        5.16201872       3.65735015       3.92653582        8       0.00000000      -0.02365125       0.03425305
O        4.41711286       1.07408044       3.07411364        9       0.01977256      -0.03662921       0.00000000
10
Lattice="5.140695295198498 -0.2747511722261824 -0.18971182362636296 2.5911184614312974 4.448408866498838 -0.18971182362637679 2.5911184614312868 1.3986939990699685 4.227054188975456" Properties=species:S:1:pos:R:3:spacegroup_kinds:I:1:forces:R:3 spacegroup="P 1" unit_cell=conventional occupancy="_JSON {\"0\": {\"In\": 1}, \"1\": {\"In\": 1}, \"2\": {\"In\": 1}, \"3\": {\"In\": 1}, \"4\": {\"O\": 1}, \"5\": {\"O\": 1}, \"6\": {\"O\": 1}, \"7\": {\"O\": 1}, \"8\": {\"O\": 1}, \"9\": {\"O\": 1}}" n_minim_iter=6 energy=-11283.050260461567 stress="-0.3704880349388197 -6.641194988280995e-06 -4.585652276975654e-06 -6.641194988280995e-06 -0.3704793168832562 -2.475349662094316e-06 -4.585652276975654e-06 -2.475349662094316e-06 -0.3704774411388068" free_energy=-11283.050260461567 pbc="T T T"
In       9.00035480       4.85842019       3.35467087        0       0.00390646       0.00210872       0.00145604
In       6.48404351       3.50010735       2.41677494        1      -0.00390646      -0.00210872      -0.00145604
In       3.83888869       2.07224435       1.43085560        2       0.00390646       0.00210872       0.00145604
In       1.32257740       0.71393150       0.49295967        3      -0.00390646      -0.00210872      -0.00145604
O        5.15108070       1.91243978      -0.08405735        4      -0.00000000      -0.00116657       0.00168949
O        5.89761251       4.49700491       0.77219581        5       0.00097526      -0.00180669       0.00000000
O        6.99566735       1.59469864       2.02946975        6      -0.00097526       0.00064012       0.00168949
O        3.32726486       3.97765305       1.81816079        7       0.00097526      -0.00064012      -0.00168949
O        5.17185151       3.65991191       3.93168788        8       0.00000000       0.00116657      -0.00168949
O        4.42531970       1.07534678       3.07543473        9      -0.00097526       0.00180669      -0.00000000
