10
Lattice="6.017984641358445 0.0485970720068272 0.03355559533601779 3.342827035036214 5.0043988882646655 0.03355559533601788 3.3428270350362097 1.8044686815481423 4.667871783602771" Properties=species:S:1:pos:R:3:spacegroup_kinds:I:1:forces:R:3 spacegroup="P 1" unit_cell=conventional occupancy="_JSON {\"0\": {\"In\": 1}, \"1\": {\"In\": 1}, \"2\": {\"In\": 1}, \"3\": {\"In\": 1}, \"4\": {\"O\": 1}, \"5\": {\"O\": 1}, \"6\": {\"O\": 1}, \"7\": {\"O\": 1}, \"8\": {\"O\": 1}, \"9\": {\"O\": 1}}" n_minim_iter=6 energy=-11287.53705808501 stress="0.04093164799084496 -2.9924607300559972e-05 -2.066252135109917e-05 -2.9924607300559972e-05 0.04097093073663619 -1.1153694780451228e-05 -2.066252135109917e-05 -1.1153694780451228e-05 0.04097938266592606" free_energy=-11287.53705808501 pbc="T T T"
In      10.85750024       5.86091322       4.04687822        0       0.00072304       0.00039030       0.00026950
In       8.19795783       4.42528376       3.05559625        1      -0.00072304      -0.00039030      -0.00026950
In       4.50568089       2.43218090       1.67938673        2       0.00072304       0.00039030       0.00026950
In       1.84613848       0.99655143       0.68810476        3      -0.00072304      -0.00039030      -0.00026950
O        6.18490200       2.38076375       0.27060013        4      -0.00000000       0.00298814      -0.00432759
O        7.31951752       5.23529697       1.21730134        5      -0.00249810       0.00462780      -0.00000000
O        8.39311353       2.28856527       2.60453602        6       0.00249810      -0.00163966      -0.00432759
O        4.31052519       4.56889939       2.13044696        7      -0.00249810       0.00163966       0.00432759
O        6.51873672       4.47670090       4.46438285        8       0.00000000      -0.00298814       0.00432759
O        5.38412121       1.62216768       3.51768164        9       0.00249810      -0.00462780       0.00000000
