10
Lattice="5.62429335068811 -0.04907854325406874 -0.03388804446660641 3.0451427220066036 4.728867750383028 -0.03388804446661637 3.0451427220065943 1.6437777411494696 4.434110208133311" Properties=species:S:1:pos:R:3:spacegroup_kinds:I:1:forces:R:3 spacegroup="P 1" unit_cell=conventional occupancy="_JSON {\"0\": {\"In\": 1}, \"1\": {\"In\": 1}, \"2\": {\"In\": 1}, \"3\": {\"In\": 1}, \"4\": {\"O\": 1}, \"5\": {\"O\": 1}, \"6\": {\"O\": 1}, \"7\": {\"O\": 1}, \"8\": {\"O\": 1}, \"9\": {\"O\": 1}}" n_minim_iter=5 energy=-11286.92794751607 stress="-0.12286458099375921 2.7666279335340034e-05 1.910317742711478e-05 2.7666279335340034e-05 -0.12290089917923491 1.031195596765502e-05 1.910317742711478e-05 1.031195596765502e-05 -0.12290871326383038" free_energy=-11286.92794751607 pbc="T T T"
In      10.07920351       5.44078616       3.75678639        0      -0.00002236      -0.00001207      -0.00000833
In       7.49266470       4.04456427       2.79271479        1       0.00002236       0.00001207       0.00000833
In       4.22191411       2.27900269       1.57361933        2      -0.00002236      -0.00001207      -0.00000833
In       1.63537530       0.88278080       0.60954773        3       0.00002236       0.00001207       0.00000833
O        5.74079138       2.20604778       0.13371477        4       0.00000000       0.00046842      -0.00067840
O        6.72021422       4.92698367       1.05769549        5      -0.00039161       0.00072546      -0.00000000
O        7.80651126       2.02173933       2.35076987        6       0.00039161      -0.00025704      -0.00067840
O        3.90806754       4.30182763       2.01556425        7      -0.00039161       0.00025704       0.00067840
O        5.97378743       4.11751917       4.23261936        8      -0.00000000      -0.00046842       0.00067840
O        4.99436459       1.39658329       3.30863864        9       0.00039161      -0.00072546       0.00000000
