10
Lattice="6.35781624356724 0.0740332263185165 0.05111890246010885 3.5505648108884977 5.274542428424185 0.051118902460108404 3.5505648108884964 1.9166061946683441 4.914268171965646" Properties=species:S:1:pos:R:3:spacegroup_kinds:I:1:forces:R:3 spacegroup="P 1" unit_cell=conventional occupancy="_JSON {\"0\": {\"In\": 1}, \"1\": {\"In\": 1}, \"2\": {\"In\": 1}, \"3\": {\"In\": 1}, \"4\": {\"O\": 1}, \"5\": {\"O\": 1}, \"6\": {\"O\": 1}, \"7\": {\"O\": 1}, \"8\": {\"O\": 1}, \"9\": {\"O\": 1}}" n_minim_iter=1 energy=-11285.5945436948 stress="0.11504853240314336 -0.0005721432203000739 -0.0003950568540301941 -0.0005721432203000739 0.11579959845984593 -0.00021325294831489244 -0.0003950568540301941 -0.00021325294831489244 0.1159611950286898" free_energy=-11285.5945436948 pbc="T T T"
In      11.44349557       6.17723537       4.26529422        0      -0.02364892      -0.01276576      -0.00881458
In       8.74492323       4.72053742       3.25946475        1       0.02364892       0.01276576       0.00881458
In       4.71402264       2.54464444       1.75704123        2      -0.02364892      -0.01276576      -0.00881458
In       2.01545030       1.08794650       0.75121177        3       0.02364892       0.01276576       0.00881458
O        6.54364459       2.54057330       0.28435618        4       0.00000000       0.05829499      -0.08442604
O        7.74437319       5.55495976       1.30524540        5      -0.04873491       0.09028273      -0.00000000
O        8.89348081       2.43449993       2.74149026        6       0.04873491      -0.03198774      -0.08442604
O        4.56546507       4.83068193       2.27501572        7      -0.04873491       0.03198774       0.08442604
O        6.91530128       4.72460856       4.73214981        8       0.00000000      -0.05829499       0.08442604
O        5.71457268       1.71022210       3.71126058        9       0.04873491      -0.09028273      -0.00000000
10
Lattice="6.366149264038219 0.0824631432342895 0.05693964163349301 3.562184773832242 5.2768831955126885 0.05693964163349256 3.5621847738322394 1.9228786876788928 4.914394767857367" Properties=species:S:1:pos:R:3:spacegroup_kinds:I:1:forces:R:3 spacegroup="P 1" unit_cell=conventional occupancy="_JSON {\"0\": {\"In\": 1}, \"1\": {\"In\": 1}, \"2\": {\"In\": 1}, \"3\": {\"In\": 1}, \"4\": {\"O\": 1}, \"5\": {\"O\": 1}, \"6\": {\"O\": 1}, \"7\": {\"O\": 1}, \"8\": {\"O\": 1}, \"9\": {\"O\": 1}}" n_minim_iter=2 energy=-11285.595496073092 stress="0.11557175511042969 0.00039279828039891294 0.0002712216929892354 0.00039279828039891294 0.11505611943503384 0.00014640633376423513 0.0002712216929892354 0.00014640633376423513 0.11494517718854141" free_energy=-11285.595496073092 pbc="T T T"
In      11.47000190       6.19154356       4.27517383        0      -0.02047159      -0.01105063      -0.00763030
In       8.76577633       4.73179399       3.26723726        1       0.02047159       0.01105063       0.00763030
In       4.72474249       2.55043105       1.76103680        2      -0.02047159      -0.01105063      -0.00763030
In       2.02051692       1.09068147       0.75310023        3       0.02047159       0.01105063       0.00763030
O        6.55570434       2.54907617       0.29016930        4      -0.00000000       0.04756720      -0.06888946
O        7.76222025       5.56464789       1.31400816        5      -0.03976642       0.07366837      -0.00000000
O        8.91137320       2.44609705       2.74736668        6       0.03976642      -0.02610116      -0.06888946
O        4.57914562       4.83612798       2.28090738        7      -0.03976642       0.02610116       0.06888946
O        6.93481448       4.73314887       4.73810476        8      -0.00000000      -0.04756720       0.06888946
O        5.72829857       1.71757715       3.71426590        9       0.03976642      -0.07366837      -0.00000000
10
Lattice="6.366916198358488 0.08323811991737018 0.05747475214320952 3.5632534918188514 5.277099109792031 0.05747475214320908 3.563253491818848 1.9234555850522912 4.914407082653303" Properties=species:S:1:pos:R:3:spacegroup_kinds:I:1:forces:R:3 spacegroup="P 1" unit_cell=conventional occupancy="_JSON {\"0\": {\"In\": 1}, \"1\": {\"In\": 1}, \"2\": {\"In\": 1}, \"3\": {\"In\": 1}, \"4\": {\"O\": 1}, \"5\": {\"O\": 1}, \"6\": {\"O\": 1}, \"7\": {\"O\": 1}, \"8\": {\"O\": 1}, \"9\": {\"O\": 1}}" n_minim_iter=3 energy=-11285.597950177535 stress="0.11410861341833677 0.0008533470786223738 0.000589224166393005 0.0008533470786223738 0.1129884043472424 0.00031806508205370354 0.000589224166393005 0.00031806508205370354 0.11274738434571303" free_energy=-11285.597950177535 pbc="T T T"
In      11.47021428       6.19165821       4.27525299        0       0.00124700       0.00067314       0.00046479
In       8.76992050       4.73403103       3.26878190        1      -0.00124700      -0.00067314      -0.00046479
In       4.72350269       2.54976180       1.76057469        2       0.00124700       0.00067314       0.00046479
In       2.02320891       1.09213462       0.75410361        3      -0.00124700      -0.00067314      -0.00046479
O        6.55681390       2.55513866       0.28305627        4       0.00000000      -0.00013177       0.00019084
O        7.75944751       5.57371727       1.31481390        5       0.00011016      -0.00020408      -0.00000000
O        8.91743378       2.44426601       2.74025981        6      -0.00011016       0.00007231       0.00019084
O        4.57598941       4.83952682       2.28909678        7       0.00011016      -0.00007231      -0.00019084
O        6.93660929       4.72865417       4.74630032        8       0.00000000       0.00013177      -0.00019084
O        5.73397568       1.71007556       3.71454269        9      -0.00011016       0.00020408      -0.00000000
