10
Lattice="6.322435259234475 0.08178828159435848 0.05647365915425742 3.5376337567323626 5.240708380881838 0.0564736591542577 3.5376337567323612 1.9096259704450778 4.880731734138347" Properties=species:S:1:pos:R:3:spacegroup_kinds:I:1:forces:R:3 spacegroup="P 1" unit_cell=conventional occupancy="_JSON {\"0\": {\"In\": 1}, \"1\": {\"In\": 1}, \"2\": {\"In\": 1}, \"3\": {\"In\": 1}, \"4\": {\"O\": 1}, \"5\": {\"O\": 1}, \"6\": {\"O\": 1}, \"7\": {\"O\": 1}, \"8\": {\"O\": 1}, \"9\": {\"O\": 1}}" n_minim_iter=1 energy=-11285.958878364632 stress="0.10974382522175215 -4.348803489223823e-05 -3.0027876747174744e-05 -4.348803489223823e-05 0.10980091300251939 -1.6209143665442654e-05 -3.0027876747174744e-05 -1.6209143665442654e-05 0.10981319579664076" free_energy=-11285.958878364632 pbc="T T T"
In      11.39757815       6.15244900       4.24817958        0      -0.04776380      -0.02578305      -0.01780284
In       8.69897602       4.69573497       3.24233901        1       0.04776380       0.02578305       0.01780284
In       4.69872677       2.53638768       1.75134005        2      -0.04776380      -0.02578305      -0.01780284
In       2.00012463       1.07967365       0.74549948        3       0.04776380       0.02578305       0.01780284
O        6.51064333       2.52360473       0.29954776        4       0.00000000       0.05538518      -0.08021189
O        7.71542443       5.51417053       1.30489342        5      -0.04630229       0.08577624      -0.00000000
O        8.84349599       2.43352618       2.73991362        6       0.04630229      -0.03039106      -0.08021189
O        4.55420680       4.79859647       2.25376543        7      -0.04630229       0.03039106       0.08021189
O        6.88705946       4.70851792       4.69413130        8       0.00000000      -0.05538518       0.08021189
O        5.68227836       1.71795211       3.68878563        9       0.04630229      -0.08577624       0.00000000
10
Lattice="6.325523080714085 0.08490766397027055 0.058627548851350665 3.5419359310524237 5.241578141778225 0.058627548851350936 3.5419359310524223 1.9119482978469278 4.880781936556052" Properties=species:S:1:pos:R:3:spacegroup_kinds:I:1:forces:R:3 spacegroup="P 1" unit_cell=conventional occupancy="_JSON {\"0\": {\"In\": 1}, \"1\": {\"In\": 1}, \"2\": {\"In\": 1}, \"3\": {\"In\": 1}, \"4\": {\"O\": 1}, \"5\": {\"O\": 1}, \"6\": {\"O\": 1}, \"7\": {\"O\": 1}, \"8\": {\"O\": 1}, \"9\": {\"O\": 1}}" n_minim_iter=2 energy=-11285.962201468628 stress="0.10883119599034079 0.0006433540272325725 0.0004442269155348216 0.0006433540272325725 0.10798664980799566 0.00023979510406042649 0.0004442269155348216 0.00023979510406042649 0.10780494040467603" free_energy=-11285.962201468628 pbc="T T T"
In      11.40411014       6.15597498       4.25061422        0      -0.01919212      -0.01035997      -0.00715341
In       8.70998229       4.70167619       3.24644134        1       0.01919212       0.01035997       0.00715341
In       4.69941267       2.53675793       1.75159570        2      -0.01919212      -0.01035997      -0.00715341
In       2.00528482       1.08245913       0.74742282        3       0.01919212       0.01035997       0.00715341
O        6.51511028       2.53040244       0.29641336        4      -0.00000000       0.01982254      -0.02870810
O        7.71898256       5.52341153       1.30813681        5      -0.01657174       0.03069960      -0.00000000
O        8.85317393       2.43581649       2.73680432        6       0.01657174      -0.01087706      -0.02870810
O        4.55622102       4.80261762       2.26123271        7      -0.01657174       0.01087706       0.02870810
O        6.89428467       4.70803167       4.70162368        8      -0.00000000      -0.01982254       0.02870810
O        5.69041239       1.71502258       3.68990023        9       0.01657174      -0.03069960       0.00000000
10
Lattice="6.314268190266168 0.07352613351144763 0.05076876200248161 3.5262451105841803 5.238414291653294 0.05076876200248189 3.5262451105841786 1.9034783429775948 4.880607744534285" Properties=species:S:1:pos:R:3:spacegroup_kinds:I:1:forces:R:3 spacegroup="P 1" unit_cell=conventional occupancy="_JSON {\"0\": {\"In\": 1}, \"1\": {\"In\": 1}, \"2\": {\"In\": 1}, \"3\": {\"In\": 1}, \"4\": {\"O\": 1}, \"5\": {\"O\": 1}, \"6\": {\"O\": 1}, \"7\": {\"O\": 1}, \"8\": {\"O\": 1}, \"9\": {\"O\": 1}}" n_minim_iter=3 energy=-11285.963017369864 stress="0.10655607159003981 -0.00037021789361633414 -0.0002556302532314626 -0.00037021789361633414 0.10704206545227023 -0.00013799002488238966 -0.0002556302532314626 -0.00013799002488238966 0.107146630077199" free_energy=-11285.963017369864 pbc="T T T"
In      11.36511301       6.13492421       4.23607895        0       0.00386483       0.00208625       0.00144052
In       8.68502462       4.68820396       3.23713895        1      -0.00386483      -0.00208625      -0.00144052
In       4.68173380       2.52721482       1.74500632        2       0.00386483       0.00208625       0.00144052
In       2.00164541       1.08049457       0.74606632        3      -0.00386483      -0.00208625      -0.00144052
O        6.49882370       2.52317157       0.28240847        4      -0.00000000      -0.00277908       0.00402482
O        7.69132787       5.51691090       1.29630508        5       0.00232333      -0.00430403       0.00000000
O        8.83256464       2.41782475       2.72271234        6      -0.00232333       0.00152494       0.00402482
O        4.53419378       4.79759403       2.25943293        7       0.00232333      -0.00152494      -0.00402482
O        6.86793472       4.69224721       4.69973680        8       0.00000000       0.00277908      -0.00402482
O        5.67543055       1.69850788       3.68584019        9      -0.00232333       0.00430403       0.00000000
