10
Lattice="6.401658304112029 0.07542709562523556 0.05208134962978935 3.5757871889650836 5.31042976307889 0.05208134962978932 3.575787188965079 1.9302213146958938 4.947486474146953" Properties=species:S:1:pos:R:3:spacegroup_kinds:I:1:forces:R:3 spacegroup="P 1" unit_cell=conventional occupancy="_JSON {\"0\": {\"In\": 1}, \"1\": {\"In\": 1}, \"2\": {\"In\": 1}, \"3\": {\"In\": 1}, \"4\": {\"O\": 1}, \"5\": {\"O\": 1}, \"6\": {\"O\": 1}, \"7\": {\"O\": 1}, \"8\": {\"O\": 1}, \"9\": {\"O\": 1}}" n_minim_iter=3 energy=-11285.212932790871 stress="0.11916729188423142 -0.00019051073156554742 -0.00013154498314128747 -0.00019051073156554742 0.11941737986724883 -7.100840080452661e-05 -0.00013154498314128747 -7.100840080452661e-05 0.11947118786388167" free_energy=-11285.212932790871 pbc="T T T"
In      11.51876938       6.21786841       4.29335076        0       0.00212077       0.00114480       0.00079047
In       8.81107965       4.75624887       3.28412300        1      -0.00212077      -0.00114480      -0.00079047
In       4.74215304       2.55982932       1.76752617        2       0.00212077       0.00114480       0.00079047
In       2.03446331       1.09820978       0.75829842        3      -0.00212077      -0.00114480      -0.00079047
O        6.58913733       2.57150726       0.26825998        4       0.00000000       0.00512819      -0.00742692
O        7.78783621       5.61344713       1.31499365        5      -0.00428719       0.00794213      -0.00000000
O        8.96622564       2.44511877       2.74200322        6       0.00428719      -0.00281395      -0.00742692
O        4.58700705       4.87095941       2.30964596        7      -0.00428719       0.00281395       0.00742692
O        6.96409536       4.74457092       4.78338920        8      -0.00000000      -0.00512819       0.00742692
O        5.76539649       1.70263106       3.73665553        9       0.00428719      -0.00794213      -0.00000000
