10
Lattice="5.571726785989127 -0.048619838442915675 -0.0335713152402125 3.0166817791053213 4.684670138869214 -0.03357131524022237 3.016681779105312 1.6284144335136206 4.392667501182447" Properties=species:S:1:pos:R:3:spacegroup_kinds:I:1:forces:R:3 spacegroup="P 1" unit_cell=conventional occupancy="_JSON {\"0\": {\"In\": 1}, \"1\": {\"In\": 1}, \"2\": {\"In\": 1}, \"3\": {\"In\": 1}, \"4\": {\"O\": 1}, \"5\": {\"O\": 1}, \"6\": {\"O\": 1}, \"7\": {\"O\": 1}, \"8\": {\"O\": 1}, \"9\": {\"O\": 1}}" n_minim_iter=5 energy=-11286.92794751607 stress="-0.12286458099375921 2.7666279335340034e-05 1.910317742711478e-05 2.7666279335340034e-05 -0.12290089917923491 1.031195596765502e-05 1.910317742711478e-05 1.031195596765502e-05 -0.12290871326383038" free_energy=-11286.92794751607 pbc="T T T"
In       9.98499983       5.38993472       3.72167418        0      -0.00002236      -0.00001207      -0.00000833
In       7.42263569       4.00676239       2.76661313        1       0.00002236       0.00001207       0.00000833
In       4.18245466       2.25770235       1.55891175        2      -0.00002236      -0.00001207      -0.00000833
In       1.62009052       0.87453003       0.60385069        3       0.00002236       0.00001207       0.00000833
O        5.68713598       2.18542931       0.13246502        4       0.00000000       0.00046842      -0.00067840
O        6.65740480       4.88093440       1.04780990        5      -0.00039161       0.00072546      -0.00000000
O        7.73354894       2.00284346       2.32879877        6       0.00039161      -0.00025704      -0.00067840
O        3.87154141       4.26162128       1.99672610        7      -0.00039161       0.00025704       0.00067840
O        5.91795437       4.07903544       4.19305985        8      -0.00000000      -0.00046842       0.00067840
O        4.94768555       1.38353034       3.27771497        9       0.00039161      -0.00072546       0.00000000
