10
Lattice="5.993314203719056 0.023388415513282343 0.016149372258559468 3.3082152644490415 4.997606819923633 0.01614937225856166 3.30821526444904 1.785785137534986 4.667687454332257" Properties=species:S:1:pos:R:3:spacegroup_kinds:I:1:forces:R:3 spacegroup="P 1" unit_cell=conventional occupancy="_JSON {\"0\": {\"In\": 1}, \"1\": {\"In\": 1}, \"2\": {\"In\": 1}, \"3\": {\"In\": 1}, \"4\": {\"O\": 1}, \"5\": {\"O\": 1}, \"6\": {\"O\": 1}, \"7\": {\"O\": 1}, \"8\": {\"O\": 1}, \"9\": {\"O\": 1}}" n_minim_iter=5 energy=-11287.641189473557 stress="0.022060218362423303 5.0491366594679516e-06 3.4863582470084526e-06 5.0491366594679516e-06 0.02205359024032283 1.881946954384503e-06 3.4863582470084526e-06 1.881946954384503e-06 0.02205216415820459" free_energy=-11287.641189473557 pbc="T T T"
In      10.79490144       5.82712219       4.02354599        0      -0.00042608      -0.00023000      -0.00015881
In       8.11971567       4.38304838       3.02643332        1       0.00042608       0.00023000       0.00015881
In       4.49002908       2.42373200       1.67355289        2      -0.00042608      -0.00023000      -0.00015881
In       1.81484330       0.97965820       0.67644022        3       0.00042608       0.00023000       0.00015881
O        6.14909329       2.36234500       0.24321765        4      -0.00000000       0.00013077      -0.00018940
O        7.26067072       5.21724458       1.19114592        5      -0.00010933       0.00020253      -0.00000000
O        8.34573112       2.25018571       2.57706138        6       0.00010933      -0.00007176      -0.00018940
O        4.26401362       4.55659468       2.12292483        7      -0.00010933       0.00007176       0.00018940
O        6.46065145       4.44443538       4.45676855        8       0.00000000      -0.00013077       0.00018940
O        5.34907402       1.58953580       3.50884028        9       0.00010933      -0.00020253      -0.00000000
