10
Lattice="5.829975627857251 0.005242551911814349 0.003619908426914794 3.20341778716921 4.871011987935157 0.0036199084269152347 3.203417787169211 1.7292151254838968 4.5537441671818515" Properties=species:S:1:pos:R:3:spacegroup_kinds:I:1:forces:R:3 spacegroup="P 1" unit_cell=conventional occupancy="_JSON {\"0\": {\"In\": 1}, \"1\": {\"In\": 1}, \"2\": {\"In\": 1}, \"3\": {\"In\": 1}, \"4\": {\"O\": 1}, \"5\": {\"O\": 1}, \"6\": {\"O\": 1}, \"7\": {\"O\": 1}, \"8\": {\"O\": 1}, \"9\": {\"O\": 1}}" n_minim_iter=1 energy=-11287.679278119233 stress="-0.0001205758095611147 -7.762421507159015e-05 -5.359842980190858e-05 -7.762421507159015e-05 -1.867665023875384e-05 -2.8932603075649227e-05 -5.359842980190858e-05 -2.8932603075649227e-05 3.2475925683579796e-06" free_energy=-11287.679278119233 pbc="T T T"
In      10.48899410       5.66199243       3.90952621        0      -0.00100328      -0.00054157      -0.00037395
In       7.86622271       4.24621208       2.93194977        1       0.00100328       0.00054157       0.00037395
In       4.37058850       2.35925760       1.62903422        2      -0.00100328      -0.00054157      -0.00037395
In       1.74781711       0.94347725       0.65145778        3       0.00100328       0.00054157       0.00037395
O        5.97419062       2.29350042       0.21587965        4      -0.00000000       0.00426028      -0.00616997
O        7.04126453       5.07992046       1.14386591        5      -0.00356161       0.00659798      -0.00000000
O        8.11053450       2.16768221       2.49275174        6       0.00356161      -0.00233771      -0.00616997
O        4.12627671       4.43778747       2.06823225        7      -0.00356161       0.00233771       0.00616997
O        6.26262059       4.31196926       4.34510434        8      -0.00000000      -0.00426028       0.00616997
O        5.19554669       1.52554921       3.41711808        9       0.00356161      -0.00659798      -0.00000000
