10
Lattice="5.639328882256208 -0.03338187357580653 -0.023049714622931393 3.0665155407496387 4.732824424175633 -0.02304971462293959 3.0665155407496325 1.655314856786622 4.433970122172583" Properties=species:S:1:pos:R:3:spacegroup_kinds:I:1:forces:R:3 spacegroup="P 1" unit_cell=conventional occupancy="_JSON {\"0\": {\"In\": 1}, \"1\": {\"In\": 1}, \"2\": {\"In\": 1}, \"3\": {\"In\": 1}, \"4\": {\"O\": 1}, \"5\": {\"O\": 1}, \"6\": {\"O\": 1}, \"7\": {\"O\": 1}, \"8\": {\"O\": 1}, \"9\": {\"O\": 1}}" n_minim_iter=7 energy=-11287.273670996921 stress="-0.0867073749700268 -6.549600191193422e-05 -4.522406868074198e-05 -6.549600191193422e-05 -0.08662139680537273 -2.441209631459651e-05 -4.522406868074198e-05 -2.441209631459651e-05 -0.0866028980647353" free_energy=-11287.273670996921 pbc="T T T"
In      10.11606327       5.46068318       3.77052500        0       0.00224653       0.00121268       0.00083734
In       7.54247669       4.07145294       2.81128104        1      -0.00224653      -0.00121268      -0.00083734
In       4.22988329       2.28330447       1.57658965        2       0.00224653       0.00121268       0.00083734
In       1.65629671       0.89407424       0.61734570        3      -0.00224653      -0.00121268      -0.00083734
O        5.76275444       2.21409909       0.15551706        4       0.00000000      -0.00151323       0.00219154
O        6.75921285       4.93284597       1.07391796        5       0.00126506      -0.00234357      -0.00000000
O        7.83281157       2.04732118       2.37250212        6      -0.00126506       0.00083034       0.00219154
O        3.93954840       4.30743623       2.01536858        7       0.00126506      -0.00083034      -0.00219154
O        6.00960554       4.14065833       4.23235364        8      -0.00000000       0.00151323      -0.00219154
O        5.01314713       1.42191145       3.31395274        9      -0.00126506       0.00234357       0.00000000
