10
Lattice="6.237650625102058 0.0849548236625296 0.05866011195617073 3.4937578207496394 5.1680904532380545 0.058660111956166744 3.4937578207496367 1.8859416004419027 4.812049898048401" Properties=species:S:1:pos:R:3:spacegroup_kinds:I:1:forces:R:3 spacegroup="P 1" unit_cell=conventional occupancy="_JSON {\"0\": {\"In\": 1}, \"1\": {\"In\": 1}, \"2\": {\"In\": 1}, \"3\": {\"In\": 1}, \"4\": {\"O\": 1}, \"5\": {\"O\": 1}, \"6\": {\"O\": 1}, \"7\": {\"O\": 1}, \"8\": {\"O\": 1}, \"9\": {\"O\": 1}}" n_minim_iter=4 energy=-11286.916397427865 stress="0.08168601367159356 -0.00027555002129164515 -0.00019026341792401 -0.00027555002129164515 0.08204773475935723 -0.00010270479900475702 -0.00019026341792401 -0.00010270479900475702 0.082125561318028" free_energy=-11286.916397427865 pbc="T T T"
In      11.26551991       6.08116354       4.19895797        0      -0.00812497      -0.00438588      -0.00302839
In       8.57222950       4.62731679       3.19509722        1       0.00812497       0.00438588       0.00302839
In       4.65293678       2.51167010       1.73427291        2      -0.00812497      -0.00438588      -0.00302839
In       1.95964636       1.05782335       0.73041216        3       0.00812497       0.00438588       0.00302839
O        6.42511688       2.48409105       0.31036154        4       0.00000000      -0.00361867       0.00524076
O        7.62285178       5.42857350       1.29100264        5       0.00302523      -0.00560432      -0.00000000
O        8.72113981       2.40975771       2.71638649        6      -0.00302523       0.00198564       0.00524076
O        4.50402647       4.72922918       2.21298363        7       0.00302523      -0.00198564      -0.00524076
O        6.80004939       4.65489584       4.61900858        8      -0.00000000       0.00361867      -0.00524076
O        5.60231449       1.71041339       3.63836748        9      -0.00302523       0.00560432       0.00000000
