--------------------------------------------------------------------------
[[56529,1],19]: A high-performance Open MPI point-to-point messaging module
was unable to find any relevant network interfaces:

Module: OpenFabrics (openib)
  Host: node7

Another transport will be used instead, although this may result in
lower performance.

NOTE: You can disable this warning by setting the MCA parameter
btl_base_warn_component_unused to 0.
--------------------------------------------------------------------------

     Program PWSCF v.6.7MaX starts on 16Jul2021 at  0: 5:45 

     This program is part of the open-source Quantum ESPRESSO suite
     for quantum simulation of materials; please cite
         "P. Giannozzi et al., J. Phys.:Condens. Matter 21 395502 (2009);
         "P. Giannozzi et al., J. Phys.:Condens. Matter 29 465901 (2017);
          URL http://www.quantum-espresso.org", 
     in publications or presentations arising from this work. More details at
     http://www.quantum-espresso.org/quote

     Parallel version (MPI), running on    24 processors

     MPI processes distributed on     1 nodes
     R & G space division:  proc/nbgrp/npool/nimage =      24
     Reading input from pw.inp

     Current dimensions of program PWSCF are:
     Max number of different atomic species (ntypx) = 10
     Max number of k-points (npk) =  40000
     Max angular momentum in pseudopotentials (lmaxx) =  3
     Message from routine cell_base_init:
     DEPRECATED: use true lattice parameter, not A to a.u. conversion factor
     file In.UPF: wavefunction(s)  5S renormalized
     file O.UPF: wavefunction(s)  2P renormalized

     IMPORTANT: XC functional enforced from input :
     Exchange-correlation= PBE
                           (   1   4   3   4   0   0   0)
     Any further DFT definition will be discarded
     Please, verify this is what you really want


     Subspace diagonalization in iterative solution of the eigenvalue problem:
     a serial algorithm will be used

     Found symmetry operation: I + ( -0.5000  0.0000  0.0000)
     This is a supercell, fractional translations are disabled
     Message from routine setup:
     using ibrav=0 with symmetry is DISCOURAGED, use correct ibrav instead

     Parallelization info
     --------------------
     sticks:   dense  smooth     PW     G-vecs:    dense   smooth      PW
     Min         711     355     94                59815    21149    2876
     Max         712     356     95                59818    21151    2879
     Sum       17077    8539   2257              1435587   507593   69037



     bravais-lattice index     =            0
     lattice parameter (alat)  =       1.8897  a.u.
     unit-cell volume          =    7169.5930 (a.u.)^3
     number of atoms/cell      =           80
     number of atomic types    =            2
     number of electrons       =       704.00
     number of Kohn-Sham states=          372
     kinetic-energy cutoff     =      65.0000  Ry
     charge density cutoff     =     520.0000  Ry
     scf convergence threshold =      7.3E-09
     mixing beta               =       0.5000
     number of iterations used =           10  plain     mixing
     Exchange-correlation= PBE
                           (   1   4   3   4   0   0   0)

     celldm(1)=   1.889726  celldm(2)=   0.000000  celldm(3)=   0.000000
     celldm(4)=   0.000000  celldm(5)=   0.000000  celldm(6)=   0.000000

     crystal axes: (cart. coord. in units of alat)
               a(1) = (  11.758272   0.000206   0.000142 )  
               a(2) = (   6.452193   9.829861   0.000142 )  
               a(3) = (   6.452193   3.482914   9.192142 )  

     reciprocal axes: (cart. coord. in units 2 pi/alat)
               b(1) = (  0.085048 -0.055824 -0.038546 )  
               b(2) = ( -0.000001  0.101732 -0.038546 )  
               b(3) = ( -0.000001 -0.000001  0.108790 )  


     PseudoPot. # 1 for In read from file:
     /home/lls34/programs/QuantumExpresso/pseudopotentials/use_pot/In.UPF
     MD5 check sum: b236236d7d320b3bac520569a9051741
     Pseudo is Ultrasoft + core correction, Zval = 13.0
     Generated using "atomic" code by A. Dal Corso  v.5.0.99 svn rev. 10869
     Using radial grid of 1241 points,  6 beta functions with: 
                l(1) =   0
                l(2) =   0
                l(3) =   1
                l(4) =   1
                l(5) =   2
                l(6) =   2
     Q(r) pseudized with 0 coefficients 


     PseudoPot. # 2 for O  read from file:
     /home/lls34/programs/QuantumExpresso/pseudopotentials/use_pot/O.UPF
     MD5 check sum: 3f94a2996a3169367d6eb21d9b593f20
     Pseudo is Projector augmented-wave + core cor, Zval =  6.0
     Generated using "atomic" code by A. Dal Corso  v.5.0.99 svn rev. 10869
     Shape of augmentation charge: BESSEL
     Using radial grid of 1095 points,  4 beta functions with: 
                l(1) =   0
                l(2) =   0
                l(3) =   1
                l(4) =   1
     Q(r) pseudized with 0 coefficients 


     atomic species   valence    mass     pseudopotential
        In1           13.00   114.81800     In( 1.00)
        O1             6.00    15.99900     O ( 1.00)

     Starting magnetic structure 
     atomic species   magnetization
        In1          0.000
        O1           0.000

      2 Sym. Ops., with inversion, found



   Cartesian axes

     site n.     atom                  positions (alat units)
         1           In1 tau(   1) = (  10.5706437   5.7060672   3.9399592  )
         2           In1 tau(   2) = (  16.4497798   5.7061700   3.9400302  )
         3           In1 tau(   3) = (  13.7967401  10.6209978   3.9400302  )
         4           In1 tau(   4) = (  19.6758761  10.6211006   3.9401012  )
         5           In1 tau(   5) = (  13.7967401   7.4475242   8.5360304  )
         6           In1 tau(   6) = (  19.6758761   7.4476271   8.5361014  )
         7           In1 tau(   7) = (  17.0228364  12.3624549   8.5361014  )
         8           In1 tau(   8) = (  22.9019725  12.3625577   8.5361724  )
         9           In1 tau(   9) = (   7.9263494   4.2786687   2.9543606  )
        10           In1 tau(  10) = (  13.8054855   4.2787715   2.9544316  )
        11           In1 tau(  11) = (  11.1524457   9.1935993   2.9544316  )
        12           In1 tau(  12) = (  17.0315818   9.1937021   2.9545026  )
        13           In1 tau(  13) = (  11.1524457   6.0201257   7.5504318  )
        14           In1 tau(  14) = (  17.0315818   6.0202286   7.5505028  )
        15           In1 tau(  15) = (  14.3785421  10.9350564   7.5505028  )
        16           In1 tau(  16) = (  20.2576781  10.9351592   7.5505738  )
        17           In1 tau(  17) = (   4.4049794   2.3778219   1.6418526  )
        18           In1 tau(  18) = (  10.2841154   2.3779247   1.6419236  )
        19           In1 tau(  19) = (   7.6310757   7.2927525   1.6419236  )
        20           In1 tau(  20) = (  13.5102118   7.2928553   1.6419946  )
        21           In1 tau(  21) = (   7.6310757   4.1192790   6.2379238  )
        22           In1 tau(  22) = (  13.5102118   4.1193818   6.2379948  )
        23           In1 tau(  23) = (  10.8571720   9.0342096   6.2379948  )
        24           In1 tau(  24) = (  16.7363081   9.0343124   6.2380658  )
        25           In1 tau(  25) = (   1.7606850   0.9504234   0.6562540  )
        26           In1 tau(  26) = (   7.6398211   0.9505262   0.6563250  )
        27           In1 tau(  27) = (   4.9867814   5.8653540   0.6563250  )
        28           In1 tau(  28) = (  10.8659174   5.8654568   0.6563960  )
        29           In1 tau(  29) = (   4.9867814   2.6918805   5.2523252  )
        30           In1 tau(  30) = (  10.8659174   2.6919833   5.2523962  )
        31           In1 tau(  31) = (   8.2128777   7.6068111   5.2523962  )
        32           In1 tau(  32) = (  14.0920138   7.6069139   5.2524672  )
        33           O1  tau(  33) = (   6.0224002   2.3094188   0.2146096  )
        34           O1  tau(  34) = (  11.9015363   2.3095216   0.2146806  )
        35           O1  tau(  35) = (   9.2484966   7.2243494   0.2146806  )
        36           O1  tau(  36) = (  15.1276326   7.2244522   0.2147516  )
        37           O1  tau(  37) = (   9.2484966   4.0508759   4.8106808  )
        38           O1  tau(  38) = (  15.1276326   4.0509787   4.8107518  )
        39           O1  tau(  39) = (  12.4745929   8.9658065   4.8107518  )
        40           O1  tau(  40) = (  18.3537290   8.9659093   4.8108228  )
        41           O1  tau(  41) = (   7.0960206   5.1209440   1.1491243  )
        42           O1  tau(  42) = (  12.9751566   5.1210468   1.1491953  )
        43           O1  tau(  43) = (  10.3221169  10.0358746   1.1491953  )
        44           O1  tau(  44) = (  16.2012530  10.0359774   1.1492663  )
        45           O1  tau(  45) = (  10.3221169   6.8624011   5.7451955  )
        46           O1  tau(  46) = (  16.2012530   6.8625039   5.7452665  )
        47           O1  tau(  47) = (  13.5482133  11.7773317   5.7452665  )
        48           O1  tau(  48) = (  19.4273493  11.7774345   5.7453375  )
        49           O1  tau(  49) = (   8.1748762   2.1808427   2.5126452  )
        50           O1  tau(  50) = (  14.0540123   2.1809455   2.5127162  )
        51           O1  tau(  51) = (  11.4009725   7.0957734   2.5127162  )
        52           O1  tau(  52) = (  17.2801086   7.0958762   2.5127872  )
        53           O1  tau(  53) = (  11.4009725   3.9222998   7.1087164  )
        54           O1  tau(  54) = (  17.2801086   3.9224026   7.1087874  )
        55           O1  tau(  55) = (  14.6270689   8.8372304   7.1087874  )
        56           O1  tau(  56) = (  20.5062049   8.8373332   7.1088584  )
        57           O1  tau(  57) = (   4.1564525   4.4756478   2.0835680  )
        58           O1  tau(  58) = (  10.0355886   4.4757507   2.0836389  )
        59           O1  tau(  59) = (   7.3825489   9.3905785   2.0836389  )
        60           O1  tau(  60) = (  13.2616850   9.3906813   2.0837099  )
        61           O1  tau(  61) = (   7.3825489   6.2171049   6.6796391  )
        62           O1  tau(  62) = (  13.2616850   6.2172077   6.6797101  )
        63           O1  tau(  63) = (  10.6086452  11.1320356   6.6797101  )
        64           O1  tau(  64) = (  16.4877813  11.1321384   6.6797811  )
        65           O1  tau(  65) = (   6.3089285   4.3470718   4.3816035  )
        66           O1  tau(  66) = (  12.1880646   4.3471746   4.3816745  )
        67           O1  tau(  67) = (   9.5350249   9.2620024   4.3816745  )
        68           O1  tau(  68) = (  15.4141609   9.2621052   4.3817455  )
        69           O1  tau(  69) = (   9.5350249   6.0885289   8.9776747  )
        70           O1  tau(  70) = (  15.4141609   6.0886317   8.9777457  )
        71           O1  tau(  71) = (  12.7611212  11.0034595   8.9777457  )
        72           O1  tau(  72) = (  18.6402573  11.0035623   8.9778167  )
        73           O1  tau(  73) = (   5.2353082   1.5355466   3.4470889  )
        74           O1  tau(  74) = (  11.1144442   1.5356494   3.4471599  )
        75           O1  tau(  75) = (   8.4614045   6.4504772   3.4471599  )
        76           O1  tau(  76) = (  14.3405406   6.4505800   3.4472309  )
        77           O1  tau(  77) = (   8.4614045   3.2770037   8.0431601  )
        78           O1  tau(  78) = (  14.3405406   3.2771065   8.0432311  )
        79           O1  tau(  79) = (  11.6875009   8.1919343   8.0432311  )
        80           O1  tau(  80) = (  17.5666369   8.1920371   8.0433021  )

     number of k points=    14  Gaussian smearing, width (Ry)=  0.0073
                       cart. coord. in units 2pi/alat
        k(    1) = (   0.0000000   0.0000000   0.0000000), wk =   0.0370370
        k(    2) = (  -0.0000004  -0.0000002   0.0362633), wk =   0.0740741
        k(    3) = (  -0.0000004   0.0339108  -0.0128485), wk =   0.0740741
        k(    4) = (  -0.0000009   0.0339105   0.0234147), wk =   0.0740741
        k(    5) = (  -0.0000000   0.0339110  -0.0491118), wk =   0.0740741
        k(    6) = (   0.0283493  -0.0186079  -0.0128485), wk =   0.0740741
        k(    7) = (   0.0283489  -0.0186082   0.0234147), wk =   0.0740741
        k(    8) = (   0.0283498  -0.0186077  -0.0491118), wk =   0.0740741
        k(    9) = (   0.0283489   0.0153028  -0.0256970), wk =   0.0740741
        k(   10) = (   0.0283484   0.0153026   0.0105662), wk =   0.0740741
        k(   11) = (   0.0283493   0.0153031  -0.0619603), wk =   0.0740741
        k(   12) = (   0.0283498  -0.0525187  -0.0000000), wk =   0.0740741
        k(   13) = (   0.0283493  -0.0525189   0.0362633), wk =   0.0740741
        k(   14) = (   0.0283502  -0.0525185  -0.0362633), wk =   0.0740741

     Dense  grid:  1435587 G-vectors     FFT dimensions: ( 162, 162, 162)

     Smooth grid:   507593 G-vectors     FFT dimensions: ( 120, 120, 120)

     Estimated max dynamical RAM per process >     849.69 MB

     Estimated total dynamical RAM >      19.91 GB
     Generating pointlists ...
     new r_m :   0.8903 (alat units)  1.6823 (a.u.) for type    1
     new r_m :   0.8903 (alat units)  1.6823 (a.u.) for type    2

     Initial potential from superposition of free atoms

     starting charge  703.88090, renormalised to  704.00000
     Starting wfcs are  480 randomized atomic wfcs
