80
Lattice="11.758812762970885 0.0 0.0 6.452317444010323 9.830426094342354 0.0 6.452317444010323 3.4829815090918417 9.192720870539437" Properties=species:S:1:pos:R:3:initial_magmoms:R:1:forces:R:3 uid=supercell-003.xyz_R3c type=Bulk energy=-90314.92175908647 stress="1.1482621915380402e-05 -2.8853967634572295e-05 4.349862740172562e-06 -2.8853967634572295e-05 -3.551772901593515e-05 1.562227084585808e-05 4.349862740172562e-06 1.562227084585808e-05 1.916882707988189e-05" virial="-2.085809515918755e-06 7.931951680254419e-07 5.538541423794208e-07 7.931951680254419e-07 -3.0906962048224462e-06 2.9118384708559254e-07 5.538541423794208e-07 2.9118384708559254e-07 -3.3473181709483243e-06" pbc="T T T"
In      10.57093864       5.70622635       3.94006911      10.00000000       0.00273874       0.00148206       0.00100444
In      16.45034502       5.70622635       3.94006911      10.00000000       0.00274890       0.00149196       0.00102001
In      13.79709736      10.62143940       3.94006911      10.00000000       0.00317064       0.00164756       0.00151224
In      19.67650374      10.62143940       3.94006911      10.00000000       0.00274530       0.00148001       0.00102013
In      13.79709736       7.44771711       8.53642955      10.00000000       0.01813846       0.02212859      -0.00569300
In      19.67650374       7.44771711       8.53642955      10.00000000       0.00249173       0.00159965       0.00097473
In      17.02325608      12.36293015       8.53642955      10.00000000       0.00034223      -0.00272222      -0.00026539
In      22.90266246      12.36293015       8.53642955      10.00000000       0.00275438       0.00149437       0.00102247
In       7.92664710       4.27882935       2.95447155      10.00000000      -0.00440631      -0.00299305      -0.00398039
In      13.80605348       4.27882935       2.95447155      10.00000000      -0.00273481      -0.00146743      -0.00102270
In      11.15280582       9.19404240       2.95447155      10.00000000      -0.00350104      -0.00339719       0.00111564
In      17.03221221       9.19404240       2.95447155      10.00000000      -0.00274392      -0.00148309      -0.00102314
In      11.15280582       6.02032010       7.55083198      10.00000000       0.00495950       0.00600893       0.00244994
In      17.03221221       6.02032010       7.55083198      10.00000000      -0.00329900      -0.00146322      -0.00079679
In      14.37896455      10.93553315       7.55083198      10.00000000      -0.00277564      -0.00156804      -0.00099175
In      20.25837093      10.93553315       7.55083198      10.00000000      -0.00273696      -0.00147703      -0.00102688
In       4.40507673       2.37787445       1.64188889      10.00000000       0.01730225       0.00776717      -0.00787630
In      10.28448311       2.37787445       1.64188889      10.00000000       0.00074690       0.00155536       0.00032798
In       7.63123545       7.29308750       1.64188889      10.00000000       0.00269579       0.00137962       0.00096873
In      13.51064183       7.29308750       1.64188889      10.00000000       0.00274795       0.00151547       0.00101745
In       7.63123545       4.11936520       6.23824933      10.00000000       0.00274346       0.00148135       0.00102301
In      13.51064183       4.11936520       6.23824933      10.00000000       0.00384506       0.00137263      -0.00073858
In      10.85739417       9.03457825       6.23824933      10.00000000       0.00273477       0.00160854       0.00093455
In      16.73680055       9.03457825       6.23824933      10.00000000       0.00274333       0.00147923       0.00102189
In       1.76078518       0.95047746       0.65629133      10.00000000      -0.00555946      -0.00227520      -0.00073842
In       7.64019156       0.95047746       0.65629133      10.00000000      -0.00141749       0.00772305      -0.00188930
In       4.98694390       5.86569050       0.65629133      10.00000000      -0.00054648      -0.00636625      -0.00172094
In      10.86635028       5.86569050       0.65629133      10.00000000      -0.00274249      -0.00148154      -0.00102363
In       4.98694390       2.69196821       5.25265176      10.00000000      -0.00273598      -0.00147195      -0.00102178
In      10.86635028       2.69196821       5.25265176      10.00000000      -0.00277367      -0.00152118      -0.00109054
In       8.21310263       7.60718126       5.25265176      10.00000000      -0.00274447      -0.00148176      -0.00102251
In      14.09250901       7.60718126       5.25265176      10.00000000      -0.00265734      -0.00138787      -0.00118539
O        6.02844157       2.31817494       0.21474656       4.00000000      -0.05915761      -0.05017342       0.00946143
O       11.90204053       2.30932705       0.21474656       4.00000000       0.00006436       0.00928580      -0.01350898
O        9.24879287       7.22454010       0.21474656       4.00000000       0.00014479       0.00954204      -0.01349300
O       15.12819925       7.22454010       0.21474656       4.00000000      -0.00004575       0.00939313      -0.01349635
O        9.24879287       4.05081780       4.81110699       4.00000000       0.00006982       0.00937037      -0.01337446
O       15.12819925       4.05081780       4.81110699       4.00000000       0.00000229       0.00930600      -0.01349682
O       12.47495159       8.96603085       4.81110699       4.00000000      -0.00000859       0.00936001      -0.01354651
O       18.35435798       8.96603085       4.81110699       4.00000000       0.00000263       0.00931479      -0.01349417
O        7.09636398       5.12094207       1.14909010       4.00000000      -0.00355681       0.02701392       0.00497867
O       12.97577036       5.12094207       1.14909010       4.00000000      -0.00779290       0.01440960      -0.00001247
O       10.32252270      10.03615511       1.14909010       4.00000000       0.00217460       0.02321364      -0.00490472
O       16.20192908      10.03615511       1.14909010       4.00000000      -0.00758021       0.01453489       0.00001445
O       10.32252270       6.86243282       5.74545054       4.00000000      -0.00763696       0.01457365       0.00010156
O       16.20192908       6.86243282       5.74545054       4.00000000      -0.00777318       0.01442632      -0.00002845
O       13.54868142      11.77764587       5.74545054       4.00000000      -0.00780713       0.01441912       0.00002691
O       19.42808780      11.77764587       5.74545054       4.00000000      -0.00778595       0.01443609       0.00002106
O        8.17506304       2.18091283       2.51292678       4.00000000       0.01056326      -0.00749167      -0.00915989
O       14.05446942       2.18091283       2.51292678       4.00000000       0.00879950      -0.00492640      -0.01407907
O       11.40122176       7.09612588       2.51292678       4.00000000       0.00779476      -0.00498018      -0.01355320
O       17.28062814       7.09612588       2.51292678       4.00000000       0.00779342      -0.00509313      -0.01348273
O       11.40122176       3.92240358       7.10928721       4.00000000       0.01060439       0.00004295      -0.00465426
O       17.28062814       3.92240358       7.10928721       4.00000000       0.00779489      -0.00514167      -0.01350915
O       14.62738048       8.83761663       7.10928721       4.00000000       0.00882662      -0.00358393      -0.01452967
O       20.50678687       8.83761663       7.10928721       4.00000000       0.00779425      -0.00512412      -0.01348756
O        4.15666079       4.47579097       2.08343366       4.00000000      -0.01001042       0.00612221       0.01519735
O       10.03606717       4.47579097       2.08343366       4.00000000      -0.00889463       0.00450890       0.01296236
O        7.38281951       9.39100402       2.08343366       4.00000000      -0.00776988       0.00515391       0.01347883
O       13.26222589       9.39100402       2.08343366       4.00000000      -0.00999419       0.00998936       0.00964665
O        7.38281951       6.21728172       6.67979410       4.00000000      -0.00775490       0.00510283       0.01350936
O       13.26222589       6.21728172       6.67979410       4.00000000      -0.00855001       0.00243121       0.00851086
O       10.60897823      11.13249477       6.67979410       4.00000000      -0.00781299       0.00512093       0.01350260
O       16.48838462      11.13249477       6.67979410       4.00000000      -0.00775583       0.00518016       0.01354461
O        6.30908968       4.34737676       4.38161388       4.00000000       0.00005196      -0.00958885       0.01256249
O       12.18849606       4.34737676       4.38161388       4.00000000      -0.00000540      -0.00933255       0.01344849
O        9.53524840       9.26258981       4.38161388       4.00000000       0.00004567      -0.00927202       0.01340539
O       15.41465478       9.26258981       4.38161388       4.00000000      -0.00002282      -0.00933484       0.01347812
O        9.53524840       6.08886751       8.97797431       4.00000000       0.00783761      -0.01283546       0.01489162
O       15.41465478       6.08886751       8.97797431       4.00000000       0.01120364      -0.01087166       0.01170674
O       12.76140712      11.00408056       8.97797431       4.00000000      -0.00002408      -0.00937050       0.01347423
O       18.64081350      11.00408056       8.97797431       4.00000000      -0.00003937      -0.01147583       0.01328254
O        5.23535984       1.53576173       3.44727032       4.00000000       0.00821867      -0.01432297      -0.00403617
O       11.11476623       1.53576173       3.44727032       4.00000000       0.00780030      -0.01443518       0.00001910
O        8.46151857       6.45097478       3.44727032       4.00000000       0.00781729      -0.01433453       0.00003550
O       14.34092495       6.45097478       3.44727032       4.00000000       0.00778572      -0.01445844       0.00000550
O        8.46151857       3.27725249       8.04363076       4.00000000       0.00678672      -0.01509644      -0.00029863
O       14.34092495       3.27725249       8.04363076       4.00000000       0.00499966      -0.01220904       0.00161759
O       11.68767729       8.19246553       8.04363076       4.00000000       0.00266060      -0.00908916      -0.00500951
O       17.56708367       8.19246553       8.04363076       4.00000000       0.00786785      -0.01436839      -0.00003398
