10
Lattice="6.0296554058892164 0.05699330796550995 0.03935307828181145 3.3562503336132816 5.009548507504702 0.03935307828181136 3.356250333613284 1.8117146208778026 4.670633259667319" Properties=species:S:1:pos:R:3:spacegroup_kinds:I:1:forces:R:3 spacegroup="P 1" unit_cell=conventional occupancy="_JSON {\"0\": {\"In\": 1}, \"1\": {\"In\": 1}, \"2\": {\"In\": 1}, \"3\": {\"In\": 1}, \"4\": {\"O\": 1}, \"5\": {\"O\": 1}, \"6\": {\"O\": 1}, \"7\": {\"O\": 1}, \"8\": {\"O\": 1}, \"9\": {\"O\": 1}}" n_minim_iter=8 energy=-11287.674412753724 stress="0.008229487069610865 -0.0003875237036606018 -0.0002675796693289601 -0.0003875237036606018 0.00873819867430089 -0.00014444036060324406 -0.0002675796693289601 -0.00014444036060324406 0.008847651162112108" free_energy=-11287.674412753724 pbc="T T T"
In      10.87250466       5.86901265       4.05247076        0      -0.00058736      -0.00031706      -0.00021892
In       8.24072946       4.44837201       3.07153837        1       0.00058736       0.00031706       0.00021892
In       4.50142663       2.42988443       1.67780106        2      -0.00058736      -0.00031706      -0.00021892
In       1.86965142       1.00924380       0.69686866        3       0.00058736       0.00031706       0.00021892
O        6.20036673       2.38774655       0.28058302        4       0.00000000       0.00507970      -0.00735670
O        7.34371139       5.24353036       1.22668793        5      -0.00424665       0.00786704       0.00000000
O        8.41327239       2.30290852       2.61589965        6       0.00424665      -0.00278734      -0.00735670
O        4.32888369       4.57534793       2.13343977        7      -0.00424665       0.00278734       0.00735670
O        6.54178936       4.49050990       4.46875640        8       0.00000000      -0.00507970       0.00735670
O        5.39844469       1.63472609       3.52265149        9       0.00424665      -0.00786704      -0.00000000
