10
Lattice="5.315067310949356 -0.1490330029626912 -0.1029051943381501 2.791901212056607 4.525200435120125 -0.10290519433813378 2.7919012120566147 1.5070771674185144 4.268108113494656" Properties=species:S:1:pos:R:3:spacegroup_kinds:I:1:forces:R:3 spacegroup="P 1" unit_cell=conventional occupancy="_JSON {\"0\": {\"In\": 1}, \"1\": {\"In\": 1}, \"2\": {\"In\": 1}, \"3\": {\"In\": 1}, \"4\": {\"O\": 1}, \"5\": {\"O\": 1}, \"6\": {\"O\": 1}, \"7\": {\"O\": 1}, \"8\": {\"O\": 1}, \"9\": {\"O\": 1}}" n_minim_iter=6 energy=-11288.114293465713 stress="0.10298655807401978 3.634592025232592e-05 2.5096350751282743e-05 3.634592025232592e-05 0.10293884592136085 1.354709202510186e-05 2.5096350751282743e-05 1.354709202510186e-05 0.1029285803350425" free_energy=-11288.114293465713 pbc="T T T"
In       9.50112516       5.12873763       3.54132126        0      -0.00119082      -0.00064281      -0.00044385
In       6.84717945       3.69612928       2.55212533        1       0.00119082       0.00064281       0.00044385
In       4.05169029       2.18711533       1.51017240        2      -0.00119082      -0.00064281      -0.00044385
In       1.39774459       0.75450698       0.52097647        3       0.00119082       0.00064281       0.00044385
O        5.38225109       2.08857656      -0.03847917        4      -0.00000000      -0.00114469       0.00165780
O        6.19945057       4.73104699       0.91266924        5       0.00095696      -0.00177280       0.00000000
O        7.35695283       1.76996303       2.09557488        6      -0.00095696       0.00062811       0.00165780
O        3.54191692       4.11328158       1.96672284        7       0.00095696      -0.00062811      -0.00165780
O        5.51661865       3.79466805       4.10077690        8      -0.00000000       0.00114469      -0.00165780
O        4.69941917       1.15219762       3.14962849        9      -0.00095696       0.00177280      -0.00000000
