10
Lattice="5.258239855442315 -0.08564223615486916 -0.059134760622632745 2.8137137428683014 4.442908500427358 -0.059134760622617424 2.813713742868307 1.5188516410309592 4.175646363812566" Properties=species:S:1:pos:R:3:spacegroup_kinds:I:1:forces:R:3 spacegroup="P 1" unit_cell=conventional occupancy="_JSON {\"0\": {\"In\": 1}, \"1\": {\"In\": 1}, \"2\": {\"In\": 1}, \"3\": {\"In\": 1}, \"4\": {\"O\": 1}, \"5\": {\"O\": 1}, \"6\": {\"O\": 1}, \"7\": {\"O\": 1}, \"8\": {\"O\": 1}, \"9\": {\"O\": 1}}" n_minim_iter=1 energy=-11288.49648638768 stress="-0.08633133087605409 0.005951453393969639 0.004109394936057314 0.005951453393969639 -0.09414394575097944 0.002218264471433976 0.004109394936057314 0.002218264471433976 -0.0958248787997412" free_energy=-11288.49648638768 pbc="T T T"
In       9.47003162       5.11195323       3.52973187        0      -0.43859043      -0.23675251      -0.16347428
In       6.85846940       3.70222363       2.55633339        1       0.43859043       0.23675251       0.16347428
In       4.02719795       2.17389428       1.50104345        2      -0.43859043      -0.23675251      -0.16347428
In       1.41563573       0.76416468       0.52764497        3       0.43859043       0.23675251       0.16347428
O        5.35053677       2.09318519       0.01882405        4      -0.00000000      -0.08530589       0.12354472
O        6.19979769       4.68062419       0.95520945        5       0.07131615      -0.13211510       0.00000000
O        7.31498959       1.81964943       2.10664723        6      -0.07131615       0.04680921       0.12354472
O        3.57067776       4.05646849       1.95072962        7       0.07131615      -0.04680921      -0.12354472
O        5.53513058       3.78293273       4.03855280        8       0.00000000       0.08530589      -0.12354472
O        4.68586966       1.19549372       3.10216739        9      -0.07131615       0.13211510      -0.00000000
10
Lattice="5.240344278229816 -0.10465867890967379 -0.07226534712630281 2.7879962077571454 4.438382446227333 -0.07226534712628753 2.7879962077571507 1.5049692336589031 4.176066166275901" Properties=species:S:1:pos:R:3:spacegroup_kinds:I:1:forces:R:3 spacegroup="P 1" unit_cell=conventional occupancy="_JSON {\"0\": {\"In\": 1}, \"1\": {\"In\": 1}, \"2\": {\"In\": 1}, \"3\": {\"In\": 1}, \"4\": {\"O\": 1}, \"5\": {\"O\": 1}, \"6\": {\"O\": 1}, \"7\": {\"O\": 1}, \"8\": {\"O\": 1}, \"9\": {\"O\": 1}}" n_minim_iter=2 energy=-11288.505204481718 stress="-0.09077734692107314 -0.005063901792337695 -0.0034965530259899965 -0.005063901792337695 -0.0841298422098311 -0.0018874504561252386 -0.0034965530259899965 -0.0018874504561252386 -0.08269958993221639" free_energy=-11288.505204481718 pbc="T T T"
In       9.40705604       5.07795882       3.50625921        0      -0.44014410      -0.23759119      -0.16405338
In       6.81744900       3.68008069       2.54104400        1       0.44014410       0.23759119       0.16405338
In       3.99888770       2.15861232       1.49049147        2      -0.44014410      -0.23759119      -0.16405338
In       1.40928066       0.76073419       0.52527627        3       0.44014410       0.23759119       0.16405338
O        5.32425632       2.07593236       0.00346438        4       0.00000000      -0.18818253       0.27253636
O        6.15931115       4.66199266       0.93561852        5       0.15732153      -0.29144239      -0.00000000
O        7.27719769       1.79295945       2.09149746        6      -0.15732153       0.10325986       0.27253636
O        3.53913901       4.04573356       1.94003802        7       0.15732153      -0.10325986      -0.27253636
O        5.49208039       3.76276065       4.02807110        8      -0.00000000       0.18818253      -0.27253636
O        4.65702555       1.17670035       3.09591695        9      -0.15732153       0.29144239       0.00000000
10
Lattice="5.214342529808112 -0.13249870725808185 -0.09148849549357752 2.7504540778705553 4.431921286656167 -0.09148849549356228 2.7504540778705615 1.4847038723617318 4.176835027543912" Properties=species:S:1:pos:R:3:spacegroup_kinds:I:1:forces:R:3 spacegroup="P 1" unit_cell=conventional occupancy="_JSON {\"0\": {\"In\": 1}, \"1\": {\"In\": 1}, \"2\": {\"In\": 1}, \"3\": {\"In\": 1}, \"4\": {\"O\": 1}, \"5\": {\"O\": 1}, \"6\": {\"O\": 1}, \"7\": {\"O\": 1}, \"8\": {\"O\": 1}, \"9\": {\"O\": 1}}" n_minim_iter=3 energy=-11288.57509542158 stress="-0.005013215236842826 0.0025792007208472636 0.0017809018349287237 0.0025792007208472636 -0.008398993531917892 0.0009613364925546894 0.0017809018349287237 0.0009613364925546894 -0.009127464973654178" free_energy=-11288.57509542158 pbc="T T T"
In       9.27375979       5.00600508       3.45657616        0      -0.00653359      -0.00352685      -0.00243524
In       6.79911624       3.67018461       2.53421090        1       0.00653359       0.00352685       0.00243524
In       3.91613445       2.11394185       1.45964714        2      -0.00653359      -0.00352685      -0.00243524
In       1.44149090       0.77812138       0.53728188        3       0.00653359       0.00352685       0.00243524
O        5.28598394       2.03704018       0.00084293        4      -0.00000000       0.10364755      -0.15010812
O        6.11174008       4.61365261       0.90697602        5      -0.08664987       0.16052122      -0.00000000
O        7.21068188       1.76148242       2.08926045        6       0.08664987      -0.05687367      -0.15010812
O        3.50456882       4.02264404       1.90459759        7      -0.08664987       0.05687367       0.15010812
O        5.42926675       3.74708628       3.99301511        8       0.00000000      -0.10364755       0.15010812
O        4.60351061       1.17047386       3.08688202        9       0.08664987      -0.16052122       0.00000000
10
Lattice="5.215382707383495 -0.1313801261054004 -0.09071613092592215 2.751959985450123 4.432177090380267 -0.09071613092590691 2.75195998545013 1.4855167660700075 4.17680058353601" Properties=species:S:1:pos:R:3:spacegroup_kinds:I:1:forces:R:3 spacegroup="P 1" unit_cell=conventional occupancy="_JSON {\"0\": {\"In\": 1}, \"1\": {\"In\": 1}, \"2\": {\"In\": 1}, \"3\": {\"In\": 1}, \"4\": {\"O\": 1}, \"5\": {\"O\": 1}, \"6\": {\"O\": 1}, \"7\": {\"O\": 1}, \"8\": {\"O\": 1}, \"9\": {\"O\": 1}}" n_minim_iter=4 energy=-11288.577134985344 stress="-0.014754653937908434 -1.7722864307458037e-06 -1.223754691094267e-06 -1.7722864307458037e-06 -0.014752327425751941 -6.605977781387793e-07 -1.223754691094267e-06 -6.605977781387793e-07 -0.014751826842279488" free_energy=-11288.577134985344 pbc="T T T"
In       9.28076613       5.00978712       3.45918761        0      -0.02542187      -0.01372281      -0.00947541
In       6.79818790       3.66968348       2.53386488        1       0.02542187       0.01372281       0.00947540
In       3.92111479       2.11663026       1.46150345        2      -0.02542187      -0.01372281      -0.00947540
In       1.43853656       0.77652662       0.53618072        3       0.02542187       0.01372281       0.00947540
O        5.28751703       2.04020461      -0.00137428        4       0.00000000       0.01908640      -0.02764198
O        6.11230536       4.61807438       0.90812595        5      -0.01595633       0.02955952      -0.00000000
O        7.21468868       1.76186553       2.08702601        6       0.01595632      -0.01047312      -0.02764198
O        3.50461400       4.02444821       1.90834232        7      -0.01595632       0.01047312       0.02764198
O        5.43178566       3.74610913       3.99674261        8      -0.00000000      -0.01908640       0.02764198
O        4.60699733       1.16823936       3.08724237        9       0.01595632      -0.02955952       0.00000000
10
Lattice="5.215448525786257 -0.13130936042513988 -0.0906672682180996 2.752055261907083 4.432193284218427 -0.09066726821808438 2.7520552619070897 1.4855681966049625 4.176798414507568" Properties=species:S:1:pos:R:3:spacegroup_kinds:I:1:forces:R:3 spacegroup="P 1" unit_cell=conventional occupancy="_JSON {\"0\": {\"In\": 1}, \"1\": {\"In\": 1}, \"2\": {\"In\": 1}, \"3\": {\"In\": 1}, \"4\": {\"O\": 1}, \"5\": {\"O\": 1}, \"6\": {\"O\": 1}, \"7\": {\"O\": 1}, \"8\": {\"O\": 1}, \"9\": {\"O\": 1}}" n_minim_iter=5 energy=-11288.577243498667 stress="-0.014088161203464716 -0.000252133257402901 -0.00017409447936501867 -0.000252133257402901 -0.013757179861913542 -9.39767439245609e-05 -0.00017409447936501867 -9.39767439245609e-05 -0.013685967149939273" free_energy=-11288.577243498667 pbc="T T T"
In       9.28023539       5.00950063       3.45898979        0      -0.00423121      -0.00228402      -0.00157708
In       6.79910319       3.67017756       2.53420603        1       0.00423121       0.00228402       0.00157708
In       3.92045587       2.11627457       1.46125785        2      -0.00423121      -0.00228402      -0.00157709
In       1.43932366       0.77695150       0.53647409        3       0.00423121       0.00228402       0.00157708
O        5.28761403       2.04049764      -0.00164900        4       0.00000000       0.00133124      -0.00192797
O        6.11226353       4.61849790       0.90819870        5      -0.00111292       0.00206172      -0.00000000
O        7.21501979       1.76183884       2.08675021        6       0.00111292      -0.00073048      -0.00192797
O        3.50453926       4.02461329       1.90871367        7      -0.00111292       0.00073048       0.00192797
O        5.43194503       3.74595449       3.99711288        8       0.00000000      -0.00133124       0.00192797
O        4.60729553       1.16795423       3.08726518        9       0.00111292      -0.00206172       0.00000000
