10
Lattice="5.3300995333618575 -0.13283583676152338 -0.09172127867837473 2.8136906325820927 4.528879709066274 -0.0917212786783567 2.8136906325821 1.5188391660248517 4.267586179552028" Properties=species:S:1:pos:R:3:spacegroup_kinds:I:1:forces:R:3 spacegroup="P 1" unit_cell=conventional occupancy="_JSON {\"0\": {\"In\": 1}, \"1\": {\"In\": 1}, \"2\": {\"In\": 1}, \"3\": {\"In\": 1}, \"4\": {\"O\": 1}, \"5\": {\"O\": 1}, \"6\": {\"O\": 1}, \"7\": {\"O\": 1}, \"8\": {\"O\": 1}, \"9\": {\"O\": 1}}" n_minim_iter=3 energy=-11288.402354963808 stress="0.06828400233681375 0.00027480747585674085 0.00018975070832736538 0.00027480747585674085 0.0679232560036144 0.00010242804187270974 0.00018975070832736538 0.00010242804187270974 0.06784563914650993" free_energy=-11288.402354963808 pbc="T T T"
In       9.55287414       5.15667189       3.56060948        0      -0.00613308      -0.00331066      -0.00228596
In       6.88334706       3.71565267       2.56560596        1       0.00613308       0.00331066       0.00228596
In       4.07413374       2.19923038       1.51853767        2      -0.00613308      -0.00331066      -0.00228596
In       1.40460666       0.75821115       0.52353415        3       0.00613308       0.00331066       0.00228596
O        5.40441997       2.10131022      -0.02268338        4      -0.00000000       0.00008109      -0.00011743
O        6.23525168       4.74382348       0.92931463        5      -0.00006779       0.00012558       0.00000000
O        7.38727889       1.79364903       2.11110971        6       0.00006779      -0.00004449      -0.00011743
O        3.57020192       4.12123402       1.97303392        7      -0.00006779       0.00004449       0.00011743
O        5.55306084       3.81357282       4.10682701        8      -0.00000000      -0.00008109       0.00011743
O        4.72222912       1.17105957       3.15482900        9       0.00006779      -0.00012558       0.00000000
