10
Lattice="5.378808633934076 -0.14092320589944277 -0.09730549342461821 2.8336572992370366 4.574038476108988 -0.09730549342460144 2.8336572992370423 1.5296172362857834 4.311793994433575" Properties=species:S:1:pos:R:3:spacegroup_kinds:I:1:forces:R:3 spacegroup="P 1" unit_cell=conventional occupancy="_JSON {\"0\": {\"In\": 1}, \"1\": {\"In\": 1}, \"2\": {\"In\": 1}, \"3\": {\"In\": 1}, \"4\": {\"O\": 1}, \"5\": {\"O\": 1}, \"6\": {\"O\": 1}, \"7\": {\"O\": 1}, \"8\": {\"O\": 1}, \"9\": {\"O\": 1}}" n_minim_iter=5 energy=-11287.771290116876 stress="0.09486776300598136 0.0001339040493477228 9.245885589560796e-05 0.0001339040493477228 0.09469198396297823 4.990958372978728e-05 9.245885589560796e-05 4.990958372978728e-05 0.09465416400390826" free_energy=-11287.771290116876 pbc="T T T"
In       9.61301051       5.18913370       3.58302390        0      -0.00288010      -0.00155469      -0.00107349
In       6.95617435       3.75496507       2.59275062        1       0.00288010       0.00155469       0.00107349
In       4.08994889       2.20776744       1.52443239        2      -0.00288010      -0.00155469      -0.00107349
In       1.43311273       0.77359882       0.53415911        3       0.00288010       0.00155469       0.00107349
O        5.45093513       2.11456353      -0.02494154        4      -0.00000000      -0.00158239       0.00229170
O        6.28729041       4.78258339       0.93199026        5       0.00132288      -0.00245068       0.00000000
O        7.44823715       1.80402952       2.13095546        6      -0.00132288       0.00086829       0.00229170
O        3.59788609       4.15870299       1.98622756        7       0.00132288      -0.00086829      -0.00229170
O        5.59518811       3.84816899       4.14212455        8       0.00000000       0.00158239      -0.00229170
O        4.75883284       1.18014913       3.18519275        9      -0.00132288       0.00245068      -0.00000000
