10
Lattice="5.731278735347424 0.0045727327508323715 0.0031574077085374363 3.148700673975999 4.78886843814209 0.0031574077085432094 3.1487006739759993 1.6996786534896675 4.477093182180649" Properties=species:S:1:pos:R:3:spacegroup_kinds:I:1:forces:R:3 spacegroup="P 1" unit_cell=conventional occupancy="_JSON {\"0\": {\"In\": 1}, \"1\": {\"In\": 1}, \"2\": {\"In\": 1}, \"3\": {\"In\": 1}, \"4\": {\"O\": 1}, \"5\": {\"O\": 1}, \"6\": {\"O\": 1}, \"7\": {\"O\": 1}, \"8\": {\"O\": 1}, \"9\": {\"O\": 1}}" n_minim_iter=1 energy=-11287.44602136225 stress="-0.04453346432965643 0.0006471826155401791 0.000446870493408739 0.0006471826155401791 -0.045383036385879046 0.00024122211468671466 0.000446870493408739 0.00024122211468671466 -0.045565827124717594" free_energy=-11287.44602136225 pbc="T T T"
In      10.32537642       5.57367108       3.84854156        0       0.11235732       0.06065084       0.04187855
In       7.71764371       4.16600866       2.87657044        1      -0.11235732      -0.06065084      -0.04187855
In       4.31103638       2.32711117       1.60683756        2       0.11235732       0.06065084       0.04187855
In       1.70330367       0.91944875       0.63486644        3      -0.11235732      -0.06065084      -0.04187855
O        5.87280939       2.27289619       0.18493174        4      -0.00000000       0.12678417      -0.18361585
O        6.90598874       5.02253444       1.12400941        5      -0.10599220       0.19635341      -0.00000000
O        7.98833072       2.12020162       2.42347833        6       0.10599220      -0.06956924      -0.18361585
O        4.04034937       4.37291822       2.05992967        7      -0.10599220       0.06956924       0.18361585
O        6.15587070       4.22022365       4.29847626        8       0.00000000      -0.12678417       0.18361585
O        5.12269135       1.47058539       3.35939859        9       0.10599220      -0.19635341      -0.00000000
10
Lattice="5.704677822048653 -0.02294200700935747 -0.01584113345951887 3.111101712113613 4.781727880791952 -0.015841133459513088 3.1111017121136126 1.6793826141109318 4.477147138845707" Properties=species:S:1:pos:R:3:spacegroup_kinds:I:1:forces:R:3 spacegroup="P 1" unit_cell=conventional occupancy="_JSON {\"0\": {\"In\": 1}, \"1\": {\"In\": 1}, \"2\": {\"In\": 1}, \"3\": {\"In\": 1}, \"4\": {\"O\": 1}, \"5\": {\"O\": 1}, \"6\": {\"O\": 1}, \"7\": {\"O\": 1}, \"8\": {\"O\": 1}, \"9\": {\"O\": 1}}" n_minim_iter=2 energy=-11287.458060218942 stress="-0.04061386468418899 -0.004472256172266784 -0.0030880300450622012 -0.004472256172266784 -0.034743027290279956 -0.0016669284500333392 -0.0030880300450622012 -0.0016669284500333392 -0.033479879848995864" free_energy=-11287.458060218942 pbc="T T T"
In      10.24473969       5.53014312       3.81848611        0       0.19635716       0.10599422       0.07318752
In       7.64558219       4.12710962       2.84971120        1      -0.19635716      -0.10599422      -0.07318752
In       4.28129907       2.31105888       1.59575368        2       0.19635716       0.10599422       0.07318752
In       1.68214156       0.90802538       0.62697876        3      -0.19635716      -0.10599422      -0.07318752
O        5.83405923       2.25586872       0.15078674        4      -0.00000000       0.03143702      -0.04552884
O        6.83968802       5.00768057       1.09552509        5      -0.02628151       0.04868720       0.00000000
O        7.93953215       2.07681452       2.38936031        6       0.02628151      -0.01725018      -0.04552884
O        3.98734911       4.36135398       2.05610457        7      -0.02628151       0.01725018       0.04552884
O        6.09282203       4.18229978       4.29467814        8      -0.00000000      -0.03143702       0.04552884
O        5.08719324       1.43048793       3.34993979        9       0.02628151      -0.04868720      -0.00000000
10
Lattice="5.722535293024251 -0.004447514499677608 -0.003070946265677201 3.1363619844929715 4.786508483489887 -0.0030709462656714247 3.136361984492972 1.693018189603827 4.47709306390901" Properties=species:S:1:pos:R:3:spacegroup_kinds:I:1:forces:R:3 spacegroup="P 1" unit_cell=conventional occupancy="_JSON {\"0\": {\"In\": 1}, \"1\": {\"In\": 1}, \"2\": {\"In\": 1}, \"3\": {\"In\": 1}, \"4\": {\"O\": 1}, \"5\": {\"O\": 1}, \"6\": {\"O\": 1}, \"7\": {\"O\": 1}, \"8\": {\"O\": 1}, \"9\": {\"O\": 1}}" n_minim_iter=3 energy=-11287.469540708189 stress="-0.028534460842089375 0.00019670640457956123 0.00013582301293601037 0.00019670640457956123 -0.028792682026205867 7.331769131303785e-05 0.00013582301293601037 7.331769131303785e-05 -0.02884823996131726" free_energy=-11287.469540708189 pbc="T T T"
In      10.31258726       5.56676745       3.84377470        0       0.06997992       0.03777538       0.02608337
In       7.68030165       4.14585130       2.86265206        1      -0.06997992      -0.03777538      -0.02608337
In       4.31495762       2.32922787       1.60829911        2       0.06997992       0.03777538       0.02608337
In       1.68267202       0.90831172       0.62717648        3      -0.06997992      -0.03777538      -0.02608337
O        5.86008247       2.28013201       0.15516035        4      -0.00000000      -0.02486251       0.03600727
O        6.87350228       5.03751038       1.11466685        5       0.02078519      -0.03850512      -0.00000000
O        7.98302464       2.09893101       2.39370688        6      -0.02078519       0.01364260       0.03600727
O        4.01223463       4.37614816       2.07724429        7       0.02078519      -0.01364260      -0.03600727
O        6.13517680       4.19494716       4.31579082        8       0.00000000       0.02486251      -0.03600727
O        5.12175700       1.43756879       3.35628433        9      -0.02078519       0.03850512      -0.00000000
10
Lattice="5.716195553689248 -0.011002323921293319 -0.007596950063303919 3.127403377667022 4.78480519692341 -0.00759695006329814 3.127403377667023 1.6881823051029847 4.4771038619729016" Properties=species:S:1:pos:R:3:spacegroup_kinds:I:1:forces:R:3 spacegroup="P 1" unit_cell=conventional occupancy="_JSON {\"0\": {\"In\": 1}, \"1\": {\"In\": 1}, \"2\": {\"In\": 1}, \"3\": {\"In\": 1}, \"4\": {\"O\": 1}, \"5\": {\"O\": 1}, \"6\": {\"O\": 1}, \"7\": {\"O\": 1}, \"8\": {\"O\": 1}, \"9\": {\"O\": 1}}" n_minim_iter=4 energy=-11287.470863664577 stress="-0.028332378947742848 4.692181496282611e-05 3.239885941511783e-05 4.692181496282611e-05 -0.02839397432535447 1.7488992853513244e-05 3.239885941511783e-05 1.7488992853513244e-05 -0.028407226967783" free_energy=-11287.470863664577 pbc="T T T"
In      10.29643726       5.55804963       3.83775517        0       0.00602374       0.00325163       0.00224521
In       7.66006621       4.13492815       2.85510978        1      -0.00602374      -0.00325163      -0.00224521
In       4.31093610       2.32705704       1.60680019        2       0.00602374       0.00325163       0.00224521
In       1.67456506       0.90393556       0.62415480        3      -0.00602374      -0.00325163      -0.00224521
O        5.85084836       2.27285272       0.15169195        4       0.00000000       0.00739111      -0.01070421
O        6.86039781       5.02897975       1.10788054        5      -0.00617900       0.01144677       0.00000000
O        7.96870229       2.09036186       2.39024388        6       0.00617900      -0.00405566      -0.01070421
O        4.00230003       4.37162333       2.07166608        7      -0.00617900       0.00405566       0.01070421
O        6.12015396       4.18913247       4.31021802        8       0.00000000      -0.00739111       0.01070421
O        5.11060451       1.43300544       3.35402942        9       0.00617900      -0.01144677       0.00000000
10
Lattice="5.71519167760081 -0.012041370033527676 -0.008314396803154808 3.1259838811967193 4.784536098809178 -0.008314396803149035 3.1259838811967207 1.6874160563867386 4.47710641627497" Properties=species:S:1:pos:R:3:spacegroup_kinds:I:1:forces:R:3 spacegroup="P 1" unit_cell=conventional occupancy="_JSON {\"0\": {\"In\": 1}, \"1\": {\"In\": 1}, \"2\": {\"In\": 1}, \"3\": {\"In\": 1}, \"4\": {\"O\": 1}, \"5\": {\"O\": 1}, \"6\": {\"O\": 1}, \"7\": {\"O\": 1}, \"8\": {\"O\": 1}, \"9\": {\"O\": 1}}" n_minim_iter=5 energy=-11287.47094672889 stress="-0.027433671130805325 1.1628324284998268e-05 8.029206612527541e-06 1.1628324284998268e-05 -0.027448935941328093 4.334193601515394e-06 8.029206612527541e-06 4.334193601515394e-06 -0.027452220258551478" free_energy=-11287.47094672889 pbc="T T T"
In      10.29436354       5.55693024       3.83698224        0       0.00046948       0.00025342       0.00017499
In       7.65637562       4.13293595       2.85373420        1      -0.00046948      -0.00025342      -0.00017499
In       4.31078382       2.32697484       1.60674343        2       0.00046948       0.00025342       0.00017499
In       1.67279590       0.90298056       0.62349539        3      -0.00046948      -0.00025342      -0.00017499
O        5.84938570       2.27270046       0.14969219        4      -0.00000000       0.00050301      -0.00072848
O        6.85748482       5.02917904       1.10680501        5      -0.00042052       0.00077902      -0.00000000
O        7.96727047       2.08845452       2.38824539        6       0.00042052      -0.00027601      -0.00072848
O        3.99988898       4.37145628       2.07223223        7      -0.00042052       0.00027601       0.00072848
O        6.11777375       4.18721034       4.31078544        8       0.00000000      -0.00050301       0.00072848
O        5.10967463       1.43073176       3.35367262        9       0.00042052      -0.00077902      -0.00000000
