10
Lattice="6.36942762447757 0.0389647985325142 0.026904645854437057 3.5276188487886424 5.303492413179618 0.02690464585442665 3.5276188487886473 1.9042198912362038 4.9499194177726435" Properties=species:S:1:pos:R:3:spacegroup_kinds:I:1:forces:R:3 spacegroup="P 1" unit_cell=conventional occupancy="_JSON {\"0\": {\"In\": 1}, \"1\": {\"In\": 1}, \"2\": {\"In\": 1}, \"3\": {\"In\": 1}, \"4\": {\"O\": 1}, \"5\": {\"O\": 1}, \"6\": {\"O\": 1}, \"7\": {\"O\": 1}, \"8\": {\"O\": 1}, \"9\": {\"O\": 1}}" n_minim_iter=3 energy=-11285.453445905963 stress="0.14287017265022195 0.0003626929647318696 0.00025043439033559204 0.0003626929647318696 0.14239405694325832 0.00013518528339792762 0.00025043439033559204 0.00013518528339792762 0.14229161766011666" free_energy=-11285.453445905963 pbc="T T T"
In      11.43524984       6.17278429       4.26222081        0      -0.00514887      -0.00277937      -0.00191912
In       8.70174815       4.69723137       3.24337226        1       0.00514887       0.00277938       0.00191912
In       4.72291718       2.54944574       1.76035646        2      -0.00514887      -0.00277937      -0.00191912
In       1.98941549       1.07389282       0.74150790        3       0.00514887       0.00277937       0.00191912
O        6.54088015       2.52964885       0.25278222        4      -0.00000000      -0.00365898       0.00529914
O        7.72074246       5.56467570       1.27783683        5       0.00305893      -0.00566674      -0.00000000
O        8.88863668       2.39998097       2.72774192        6      -0.00305893       0.00200776       0.00529914
O        4.53602865       4.84669614       2.27598679        7       0.00305893      -0.00200776      -0.00529914
O        6.88378518       4.71702827       4.75094650        8      -0.00000000       0.00365898      -0.00529914
O        5.70392287       1.68200141       3.72589189        9      -0.00305893       0.00566674      -0.00000000
