10
Lattice="6.136840804459728 -0.021808899453393295 -0.015058738614526725 3.3491862650854958 5.142396527801018 -0.015058738614543456 3.3491862650854984 1.8079014141850778 4.814141802163308" Properties=species:S:1:pos:R:3:spacegroup_kinds:I:1:forces:R:3 spacegroup="P 1" unit_cell=conventional occupancy="_JSON {\"0\": {\"In\": 1}, \"1\": {\"In\": 1}, \"2\": {\"In\": 1}, \"3\": {\"In\": 1}, \"4\": {\"O\": 1}, \"5\": {\"O\": 1}, \"6\": {\"O\": 1}, \"7\": {\"O\": 1}, \"8\": {\"O\": 1}, \"9\": {\"O\": 1}}" n_minim_iter=3 energy=-11287.049922594286 stress="0.08863682914320963 -0.00010707972779200492 -7.393704016223162e-05 -0.00010707972779200492 0.08877739526222585 -3.991145109727853e-05 -7.393704016223162e-05 -3.991145109727853e-05 0.0888076389476645" free_energy=-11287.049922594286 pbc="T T T"
In      10.95431159       5.91317229       4.08296237        0       0.00269903       0.00145694       0.00100600
In       8.29850842       4.47956128       3.09307412        1      -0.00269903      -0.00145694      -0.00100600
In       4.53670492       2.44892777       1.69095021        2       0.00269903       0.00145694       0.00100600
In       1.88090176       1.01531676       0.70106196        3      -0.00269903      -0.00145694      -0.00100600
O        6.27722374       2.38551020       0.22641169        4       0.00000000       0.00073207      -0.00106022
O        7.39646513       5.32122020       1.18094734        5      -0.00061201       0.00113377      -0.00000000
O        8.50716861       2.26065678       2.63348259        6       0.00061201      -0.00040170      -0.00106022
O        4.32804473       4.66783227       2.15054174        7      -0.00061201       0.00040170       0.00106022
O        6.55798960       4.54297886       4.55761264        8      -0.00000000      -0.00073207       0.00106022
O        5.43874821       1.60726885       3.60307698        9       0.00061201      -0.00113377      -0.00000000
