10
Lattice="5.258239855442316 -0.08564223615486925 -0.05913476062263458 2.813713742868301 4.442908500427357 -0.059134760622616425 2.8137137428683077 1.5188516410309572 4.175646363812568" Properties=species:S:1:pos:R:3:spacegroup_kinds:I:1:forces:R:3 spacegroup="P 1" unit_cell=conventional occupancy="_JSON {\"0\": {\"In\": 1}, \"1\": {\"In\": 1}, \"2\": {\"In\": 1}, \"3\": {\"In\": 1}, \"4\": {\"O\": 1}, \"5\": {\"O\": 1}, \"6\": {\"O\": 1}, \"7\": {\"O\": 1}, \"8\": {\"O\": 1}, \"9\": {\"O\": 1}}" n_minim_iter=6 energy=-11288.604049516152 stress="0.02582988868674664 -3.3008701136714374e-05 -2.2792042681767525e-05 -3.3008701136714374e-05 0.025873220001492142 -1.2303219900533027e-05 -2.2792042681767525e-05 -1.2303219900533027e-05 0.025882542991288365" free_energy=-11288.604049516152 pbc="T T T"
In       9.47003162       5.11195323       3.52973187        0       0.00040551       0.00021890       0.00015114
In       6.85846940       3.70222363       2.55633339        1      -0.00040551      -0.00021890      -0.00015115
In       4.02719795       2.17389428       1.50104345        2       0.00040551       0.00021890       0.00015114
In       1.41563573       0.76416468       0.52764497        3      -0.00040551      -0.00021890      -0.00015114
O        5.35053677       2.09318519       0.01882405        4       0.00000000      -0.00051304       0.00074302
O        6.19979769       4.68062419       0.95520945        5       0.00042891      -0.00079456       0.00000000
O        7.31498959       1.81964943       2.10664723        6      -0.00042891       0.00028152       0.00074302
O        3.57067776       4.05646849       1.95072962        7       0.00042891      -0.00028152      -0.00074302
O        5.53513058       3.78293273       4.03855280        8      -0.00000000       0.00051304      -0.00074302
O        4.68586966       1.19549372       3.10216739        9      -0.00042891       0.00079456      -0.00000000
