10
Lattice="6.193231551501174 -0.009287273454187457 -0.006412731815611874 3.3905972416524457 5.182668583737217 -0.006412731815627975 3.3905972416524492 1.8302551912438938 4.8487380530309965" Properties=species:S:1:pos:R:3:spacegroup_kinds:I:1:forces:R:3 spacegroup="P 1" unit_cell=conventional occupancy="_JSON {\"0\": {\"In\": 1}, \"1\": {\"In\": 1}, \"2\": {\"In\": 1}, \"3\": {\"In\": 1}, \"4\": {\"O\": 1}, \"5\": {\"O\": 1}, \"6\": {\"O\": 1}, \"7\": {\"O\": 1}, \"8\": {\"O\": 1}, \"9\": {\"O\": 1}}" n_minim_iter=4 energy=-11286.721045942038 stress="0.10850041909840473 -7.470013934632515e-07 -5.15796044008069e-07 -7.470013934632515e-07 0.10850139971859261 -2.7843453570608865e-07 -5.15796044008069e-07 -2.7843453570608865e-07 0.10850161070298026" free_energy=-11286.721045942038 pbc="T T T"
In      11.07092430       5.97612021       4.12642702        0      -0.00559611      -0.00302080      -0.00208582
In       8.39071476       4.52933456       3.12744187        1       0.00559611       0.00302080       0.00208582
In       4.58371128       2.47430195       1.70847073        2      -0.00559611      -0.00302080      -0.00208582
In       1.90350174       1.02751631       0.70948557        3       0.00559611       0.00302080       0.00208582
O        6.34022229       2.41762420       0.23347292        4       0.00000000      -0.00128449       0.00186028
O        7.47426169       5.37734768       1.20256542        5       0.00107384      -0.00198932      -0.00000000
O        8.59678013       2.29300390       2.65784194        6      -0.00107384       0.00070483       0.00186028
O        4.37764591       4.71063261       2.17807065        7       0.00107384      -0.00070483      -0.00186028
O        6.63420376       4.58601231       4.60243968        8      -0.00000000       0.00128449      -0.00186028
O        5.50016436       1.62628883       3.63334718        9      -0.00107384       0.00198932       0.00000000
