10
Lattice="6.0296554058892164 0.05699330796550979 0.0393530782818083 3.3562503336132807 5.009548507504707 0.03935307828180097 3.3562503336132834 1.81171462087781 4.670633259667307" Properties=species:S:1:pos:R:3:spacegroup_kinds:I:1:forces:R:3 spacegroup="P 1" unit_cell=conventional occupancy="_JSON {\"0\": {\"In\": 1}, \"1\": {\"In\": 1}, \"2\": {\"In\": 1}, \"3\": {\"In\": 1}, \"4\": {\"O\": 1}, \"5\": {\"O\": 1}, \"6\": {\"O\": 1}, \"7\": {\"O\": 1}, \"8\": {\"O\": 1}, \"9\": {\"O\": 1}}" n_minim_iter=1 energy=-11287.600947240668 stress="0.0402859790939986 0.005344591623155895 0.0036903654180820184 0.005344591623155895 0.03327000614486242 0.001992071005785523 0.0036903654180820184 0.001992071005785523 0.03176047560136827" free_energy=-11287.600947240668 pbc="T T T"
In      10.87250466       5.86901265       4.05247076        0       0.01144568       0.00617842       0.00426611
In       8.24072946       4.44837201       3.07153837        1      -0.01144568      -0.00617842      -0.00426611
In       4.50142663       2.42988443       1.67780106        2       0.01144568       0.00617842       0.00426611
In       1.86965142       1.00924380       0.69686866        3      -0.01144568      -0.00617842      -0.00426611
O        6.20036673       2.38774655       0.28058302        4       0.00000000      -0.01023115       0.01481732
O        7.34371139       5.24353036       1.22668793        5       0.00855329      -0.01584521       0.00000000
O        8.41327239       2.30290852       2.61589965        6      -0.00855329       0.00561406       0.01481732
O        4.32888369       4.57534793       2.13343977        7       0.00855329      -0.00561406      -0.01481732
O        6.54178936       4.49050990       4.46875640        8      -0.00000000       0.01023115      -0.01481732
O        5.39844469       1.63472609       3.52265149        9      -0.00855329       0.01584521      -0.00000000
10
Lattice="6.008523147002328 0.03545800876135294 0.02448325679476127 3.3266509840097838 5.00369872284841 0.024483256794753907 3.326650984009787 1.7957367976778953 4.670431424650575" Properties=species:S:1:pos:R:3:spacegroup_kinds:I:1:forces:R:3 spacegroup="P 1" unit_cell=conventional occupancy="_JSON {\"0\": {\"In\": 1}, \"1\": {\"In\": 1}, \"2\": {\"In\": 1}, \"3\": {\"In\": 1}, \"4\": {\"O\": 1}, \"5\": {\"O\": 1}, \"6\": {\"O\": 1}, \"7\": {\"O\": 1}, \"8\": {\"O\": 1}, \"9\": {\"O\": 1}}" n_minim_iter=2 energy=-11287.607532818694 stress="0.03157262005624944 0.00023360445525515301 0.00016130059197031244 0.00023360445525515301 0.03126596189109874 8.707056414769651e-05 0.00016130059197031244 8.707056414769651e-05 0.031199982470062514" free_energy=-11287.607532818694 pbc="T T T"
In      10.80401531       5.83204188       4.02694297        0       0.03057231       0.01650303       0.01139511
In       8.18872237       4.42029842       3.05215395        1      -0.03057231      -0.01650303      -0.01139511
In       4.47310275       2.41459512       1.66724400        2       0.03057231       0.01650303       0.01139511
In       1.85780981       1.00285166       0.69245498        3      -0.03057231      -0.01650303      -0.01139511
O        6.16971786       2.36811481       0.26280005        4      -0.00000000      -0.00093421       0.00135298
O        7.29661037       5.22205836       1.20433274        5       0.00078101      -0.00144684       0.00000000
O        8.36947633       2.27222660       2.59801577        6      -0.00078101       0.00051262       0.00135298
O        4.29234879       4.56266694       2.12138218        7       0.00078101      -0.00051262      -0.00135298
O        6.49210727       4.46677873       4.45659789        8      -0.00000000       0.00093421      -0.00135298
O        5.36521476       1.61283518       3.51506520        9      -0.00078101       0.00144684      -0.00000000
10
Lattice="6.005569411582854 0.03243819273132758 0.022398116260399253 3.3225056236016948 5.002886424337692 0.022398116260391905 3.322505623601698 1.793499118925232 4.670410598742767" Properties=species:S:1:pos:R:3:spacegroup_kinds:I:1:forces:R:3 spacegroup="P 1" unit_cell=conventional occupancy="_JSON {\"0\": {\"In\": 1}, \"1\": {\"In\": 1}, \"2\": {\"In\": 1}, \"3\": {\"In\": 1}, \"4\": {\"O\": 1}, \"5\": {\"O\": 1}, \"6\": {\"O\": 1}, \"7\": {\"O\": 1}, \"8\": {\"O\": 1}, \"9\": {\"O\": 1}}" n_minim_iter=3 energy=-11287.607679726892 stress="0.03028599161142147 -0.00045491609432310025 -0.0003141131763614349 -0.00045491609432310025 0.030883170833642563 -0.00016955928949028584 -0.0003141131763614349 -0.00016955928949028584 0.031011657671795693" free_energy=-11287.607679726892 pbc="T T T"
In      10.79566173       5.82753259       4.02382937        0       0.02102994       0.01135203       0.00783842
In       8.18020927       4.41570302       3.04898089        1      -0.02102994      -0.01135203      -0.00783842
In       4.47037140       2.41312072       1.66622595        2       0.02102994       0.01135203       0.00783842
In       1.85491894       1.00129115       0.69137747        3      -0.02102994      -0.01135203      -0.00783842
O        6.16542988       2.36534518       0.26033645        4      -0.00000000       0.00245142      -0.00355028
O        7.29003424       5.21902400       1.20119983        5      -0.00204940       0.00379657      -0.00000000
O        8.36333113       2.26793899       2.59554175        6       0.00204940      -0.00134515      -0.00355028
O        4.28724954       4.56088476       2.11966509        7      -0.00204940       0.00134515       0.00355028
O        6.48515079       4.46347856       4.45487038        8       0.00000000      -0.00245142       0.00355028
O        5.36054642       1.60979974       3.51400701        9       0.00204940      -0.00379657      -0.00000000
10
Lattice="6.007059276084514 0.033961689585491804 0.023450069430064408 3.32459679576667 5.003295982482988 0.023450069430057053 3.324596795766674 1.7946279403209768 4.670420875028927" Properties=species:S:1:pos:R:3:spacegroup_kinds:I:1:forces:R:3 spacegroup="P 1" unit_cell=conventional occupancy="_JSON {\"0\": {\"In\": 1}, \"1\": {\"In\": 1}, \"2\": {\"In\": 1}, \"3\": {\"In\": 1}, \"4\": {\"O\": 1}, \"5\": {\"O\": 1}, \"6\": {\"O\": 1}, \"7\": {\"O\": 1}, \"8\": {\"O\": 1}, \"9\": {\"O\": 1}}" n_minim_iter=4 energy=-11287.60784309881 stress="0.03094247650285423 1.4635018261896696e-05 1.0105287609077165e-05 1.4635018261896696e-05 0.030923264757000805 5.454858023960523e-06 1.0105287609077165e-05 5.454858023960523e-06 0.03091913122635548" free_energy=-11287.60784309881 pbc="T T T"
In      10.80257769       5.83126585       4.02640713        0      -0.00011054      -0.00005967      -0.00004120
In       8.18180162       4.41656258       3.04957440        1       0.00011054       0.00005967       0.00004120
In       4.47445126       2.41532305       1.66774662        2      -0.00011054      -0.00005967      -0.00004120
In       1.85367519       1.00061977       0.69091389        3       0.00011054       0.00005967       0.00004120
O        6.16759286       2.36677111       0.26153767        4       0.00000000       0.00464467      -0.00672668
O        7.29332750       5.22059913       1.20278033        5      -0.00388297       0.00719331       0.00000000
O        8.36645502       2.27008620       2.59674811        6       0.00388297      -0.00254863      -0.00672668
O        4.28979786       4.56179943       2.12057291        7      -0.00388297       0.00254863       0.00672668
O        6.48866002       4.46511452       4.45578335        8      -0.00000000      -0.00464467       0.00672668
O        5.36292538       1.61128650       3.51454069        9       0.00388297      -0.00719331       0.00000000
