10
Lattice="5.369865682327322 -0.15056953399158315 -0.10396614742230896 2.820685727946688 4.5718552749360954 -0.10396614742229247 2.8206857279466955 1.522615140784406 4.312112330149216" Properties=species:S:1:pos:R:3:spacegroup_kinds:I:1:forces:R:3 spacegroup="P 1" unit_cell=conventional occupancy="_JSON {\"0\": {\"In\": 1}, \"1\": {\"In\": 1}, \"2\": {\"In\": 1}, \"3\": {\"In\": 1}, \"4\": {\"O\": 1}, \"5\": {\"O\": 1}, \"6\": {\"O\": 1}, \"7\": {\"O\": 1}, \"8\": {\"O\": 1}, \"9\": {\"O\": 1}}" n_minim_iter=6 energy=-11288.114293465713 stress="0.10298655807401978 3.634592025232592e-05 2.5096350751282743e-05 3.634592025232592e-05 0.10293884592136085 1.354709202510186e-05 2.5096350751282743e-05 1.354709202510186e-05 0.1029285803350425" free_energy=-11288.114293465713 pbc="T T T"
In       9.59908181       5.18161494       3.57783230        0      -0.00119082      -0.00064281      -0.00044385
In       6.91777391       3.73423639       2.57843776        1       0.00119082       0.00064281       0.00044385
In       4.09346324       2.20966450       1.52574228        2      -0.00119082      -0.00064281      -0.00044385
In       1.41215534       0.76228595       0.52634774        3       0.00119082       0.00064281       0.00044385
O        5.43774213       2.11010980      -0.03887589        4      -0.00000000      -0.00114469       0.00165780
O        6.26336694       4.77982410       0.92207886        5       0.00095696      -0.00177280       0.00000000
O        7.43280305       1.78821136       2.11718027        6      -0.00095696       0.00062811       0.00165780
O        3.57843410       4.15568953       1.98699977        7       0.00095696      -0.00062811      -0.00165780
O        5.57349502       3.83379110       4.14305593        8      -0.00000000       0.00114469      -0.00165780
O        4.74787021       1.16407679       3.18210118        9      -0.00095696       0.00177280      -0.00000000
