10
Lattice="5.663232513646864 -0.01193189697381311 -0.008238807193734283 3.097564272868084 4.741037908437729 -0.008238807193728562 3.0975642728680852 1.6720750612848692 4.436403195902815" Properties=species:S:1:pos:R:3:spacegroup_kinds:I:1:forces:R:3 spacegroup="P 1" unit_cell=conventional occupancy="_JSON {\"0\": {\"In\": 1}, \"1\": {\"In\": 1}, \"2\": {\"In\": 1}, \"3\": {\"In\": 1}, \"4\": {\"O\": 1}, \"5\": {\"O\": 1}, \"6\": {\"O\": 1}, \"7\": {\"O\": 1}, \"8\": {\"O\": 1}, \"9\": {\"O\": 1}}" n_minim_iter=5 energy=-11287.47094672889 stress="-0.027433671130805325 1.1628324284998268e-05 8.029206612527541e-06 1.1628324284998268e-05 -0.027448935941328093 4.334193601515394e-06 8.029206612527541e-06 4.334193601515394e-06 -0.027452220258551478" free_energy=-11287.47094672889 pbc="T T T"
In      10.20077324       5.50640989       3.80209865        0       0.00046948       0.00025342       0.00017499
In       7.58676836       4.09536173       2.82778972        1      -0.00046948      -0.00025342      -0.00017499
In       4.27159271       2.30581936       1.59213586        2       0.00046948       0.00025342       0.00017499
In       1.65758783       0.89477119       0.61782693        3      -0.00046948      -0.00025342      -0.00017499
O        5.79620653       2.25203840       0.14833127        4      -0.00000000       0.00050301      -0.00072848
O        6.79514059       4.98345670       1.09674259        5      -0.00042052       0.00077902      -0.00000000
O        7.89483673       2.06946752       2.36653287        6       0.00042052      -0.00027601      -0.00072848
O        3.96352434       4.33171357       2.05339272        7      -0.00042052       0.00027601       0.00072848
O        6.06215454       4.14914268       4.27159431        8       0.00000000      -0.00050301       0.00072848
O        5.06322047       1.41772439       3.32318300        9       0.00042052      -0.00077902      -0.00000000
