10
Lattice="6.075249009471034 0.008141562323036517 0.005621634379042263 3.3404282370171137 5.0744710074503905 0.0056216343790284964 3.3404282370171186 1.8031738027364839 4.743295462582158" Properties=species:S:1:pos:R:3:spacegroup_kinds:I:1:forces:R:3 spacegroup="P 1" unit_cell=conventional occupancy="_JSON {\"0\": {\"In\": 1}, \"1\": {\"In\": 1}, \"2\": {\"In\": 1}, \"3\": {\"In\": 1}, \"4\": {\"O\": 1}, \"5\": {\"O\": 1}, \"6\": {\"O\": 1}, \"7\": {\"O\": 1}, \"8\": {\"O\": 1}, \"9\": {\"O\": 1}}" n_minim_iter=1 energy=-11287.285630836748 stress="0.07043059295394102 0.006302432823586311 0.004351741304664353 0.006302432823586311 0.06215723900226193 0.0023490838145900756 0.004351741304664353 0.0023490838145900756 0.0603771750712107" free_energy=-11287.285630836748 pbc="T T T"
In      10.88906142       5.87795004       4.05864190        0      -0.02557258      -0.01380416      -0.00953158
In       8.24509682       4.45072953       3.07316620        1       0.02557258       0.01380416       0.00953158
In       4.51100867       2.43505685       1.68137254        2      -0.02557258      -0.01380416      -0.00953158
In       1.86704408       1.00783634       0.69589683        3       0.02557258       0.01380416       0.00953158
O        6.22665088       2.37863031       0.24557118        4       0.00000000      -0.05270173       0.07632557
O        7.35085934       5.27424314       1.19425632        5       0.04405891      -0.08162032       0.00000000
O        8.44287066       2.26872695       2.61721891        6      -0.04405891       0.02891859       0.07632557
O        4.31323483       4.61705943       2.13731982        7       0.04405891      -0.02891859      -0.07632557
O        6.52945461       4.50715608       4.50896755        8      -0.00000000       0.05270173      -0.07632557
O        5.40524616       1.61154324       3.56028242        9      -0.04405891       0.08162032      -0.00000000
10
Lattice="6.046763638821189 -0.021297628558264198 -0.014705713245807599 3.3001863815069137 5.066811022731022 -0.014705713245821275 3.3001863815069186 1.7814511209481474 4.743334491867847" Properties=species:S:1:pos:R:3:spacegroup_kinds:I:1:forces:R:3 spacegroup="P 1" unit_cell=conventional occupancy="_JSON {\"0\": {\"In\": 1}, \"1\": {\"In\": 1}, \"2\": {\"In\": 1}, \"3\": {\"In\": 1}, \"4\": {\"O\": 1}, \"5\": {\"O\": 1}, \"6\": {\"O\": 1}, \"7\": {\"O\": 1}, \"8\": {\"O\": 1}, \"9\": {\"O\": 1}}" n_minim_iter=2 energy=-11287.299493115603 stress="0.06184273709352033 0.0007577519423726182 0.0005232170672892216 0.0007577519423726182 0.06084801803162738 0.0002824342346892155 0.0005232170672892216 0.0002824342346892155 0.060633997993979144" free_energy=-11287.299493115603 pbc="T T T"
In      10.79590772       5.82766538       4.02392105        0      -0.01697848      -0.00916504      -0.00632833
In       8.17479689       4.41278140       3.04696355        1       0.01697848       0.00916504       0.00632833
In       4.47233952       2.41418312       1.66695952        2      -0.01697848      -0.00916504      -0.00632833
In       1.85122869       0.99929915       0.69000202        3       0.01697848       0.00916504       0.00632833
O        6.18516592       2.35173345       0.22159211        4      -0.00000000      -0.05807960       0.08411410
O        7.28713986       5.24490358       1.16377506        5       0.04855484      -0.08994915       0.00000000
O        8.38337837       2.22705327       2.59325935        6      -0.04855484       0.03186955       0.08411410
O        4.26375804       4.59991126       2.12066372        7       0.04855484      -0.03186955      -0.08411410
O        6.46197049       4.47523107       4.49233096        8       0.00000000       0.05807960      -0.08411410
O        5.35999655       1.58206095       3.55014801        9      -0.04855484       0.08994915       0.00000000
10
Lattice="6.042288595943041 -0.02594363874988506 -0.0179137179975163 3.29384674003542 5.065619231862273 -0.017913717997529992 3.2938467400354243 1.7780289622879304 4.743356629304895" Properties=species:S:1:pos:R:3:spacegroup_kinds:I:1:forces:R:3 spacegroup="P 1" unit_cell=conventional occupancy="_JSON {\"0\": {\"In\": 1}, \"1\": {\"In\": 1}, \"2\": {\"In\": 1}, \"3\": {\"In\": 1}, \"4\": {\"O\": 1}, \"5\": {\"O\": 1}, \"6\": {\"O\": 1}, \"7\": {\"O\": 1}, \"8\": {\"O\": 1}, \"9\": {\"O\": 1}}" n_minim_iter=3 energy=-11287.300430292556 stress="0.060782120870460934 -0.000516054364201947 -0.0003563282783048365 -0.000516054364201947 0.06145955774901778 -0.00019234714754332225 -0.0003563282783048365 -0.00019234714754332225 0.06160531254159784" free_energy=-11287.300430292556 pbc="T T T"
In      10.78101865       5.81962821       4.01837150        0      -0.01345612      -0.00726366      -0.00501545
In       8.16395447       4.40692863       3.04292229        1       0.01345612       0.00726366       0.00501545
In       4.46602761       2.41077593       1.66460690        2      -0.01345612      -0.00726366      -0.00501545
In       1.84896344       0.99807636       0.68915770        3       0.01345612       0.00726366       0.00501545
O        6.17863982       2.34663496       0.21905656        4       0.00000000      -0.04325796       0.06264858
O        7.27782892       5.23895650       1.15896858        5       0.03616387      -0.06699455       0.00000000
O        8.37329746       2.22095688       2.59073487        6      -0.03616387       0.02373659       0.06264858
O        4.25668462       4.59674769       2.11679432        7       0.03616387      -0.02373659      -0.06264858
O        6.45134226       4.47106961       4.48847264        8      -0.00000000       0.04325796      -0.06264858
O        5.35215317       1.57874807       3.54856062        9      -0.03616387       0.06699455       0.00000000
10
Lattice="6.0419949423248065 -0.026248714354154684 -0.01812436841535065 3.293430561153839 5.065541137622083 -0.018124368415364314 3.2934305611538433 1.7778043076019832 4.743358235843451" Properties=species:S:1:pos:R:3:spacegroup_kinds:I:1:forces:R:3 spacegroup="P 1" unit_cell=conventional occupancy="_JSON {\"0\": {\"In\": 1}, \"1\": {\"In\": 1}, \"2\": {\"In\": 1}, \"3\": {\"In\": 1}, \"4\": {\"O\": 1}, \"5\": {\"O\": 1}, \"6\": {\"O\": 1}, \"7\": {\"O\": 1}, \"8\": {\"O\": 1}, \"9\": {\"O\": 1}}" n_minim_iter=4 energy=-11287.301757397689 stress="0.061213377750944015 -0.0008814334427087954 -0.0006086174026719175 -0.0008814334427087954 0.06237045646633082 -0.0003285336177171532 -0.0006086174026719175 -0.0003285336177171532 0.06261940918558069" free_energy=-11287.301757397689 pbc="T T T"
In      10.77909009       5.81858717       4.01765268        0      -0.01003783      -0.00541845      -0.00374137
In       8.16419402       4.40705794       3.04301158        1       0.01003783       0.00541845       0.00374137
In       4.46466206       2.41003880       1.66409793        2      -0.01003783      -0.00541845      -0.00374137
In       1.84976598       0.99850957       0.68945683        3       0.01003783       0.00541845       0.00374137
O        6.17821149       2.34310899       0.22351182        4      -0.00000000       0.00040581      -0.00058772
O        7.27988566       5.23362380       1.15865301        5      -0.00033926       0.00062849       0.00000000
O        8.36996788       2.22230775       2.59519094        6       0.00033926      -0.00022268      -0.00058772
O        4.25888819       4.59478899       2.11191857        7      -0.00033926       0.00022268       0.00058772
O        6.45064458       4.47398775       4.48359768        8      -0.00000000      -0.00040581       0.00058772
O        5.34897041       1.58347295       3.54845650        9       0.00033926      -0.00062849      -0.00000000
10
Lattice="6.044637845339581 -0.023503913725953788 -0.016229122151439755 3.297175446784043 5.066244485651713 -0.0162291221514534 3.2971754467840464 1.7798258087938956 4.743344459677512" Properties=species:S:1:pos:R:3:spacegroup_kinds:I:1:forces:R:3 spacegroup="P 1" unit_cell=conventional occupancy="_JSON {\"0\": {\"In\": 1}, \"1\": {\"In\": 1}, \"2\": {\"In\": 1}, \"3\": {\"In\": 1}, \"4\": {\"O\": 1}, \"5\": {\"O\": 1}, \"6\": {\"O\": 1}, \"7\": {\"O\": 1}, \"8\": {\"O\": 1}, \"9\": {\"O\": 1}}" n_minim_iter=5 energy=-11287.301934213869 stress="0.06195823062600698 -0.00019914253058465938 -0.00013750510894603628 -0.00019914253058465938 0.062219649769748406 -7.42256932131331e-05 -0.00013750510894603628 -7.42256932131331e-05 0.062275895734615686" free_energy=-11287.301934213869 pbc="T T T"
In      10.78755027       5.82315400       4.02080601        0      -0.01016922      -0.00548938      -0.00379034
In       8.17093285       4.41069558       3.04552332        1       0.01016922       0.00548938       0.00379034
In       4.46805590       2.41187081       1.66536290        2      -0.01016922      -0.00548937      -0.00379034
In       1.85143848       0.99941239       0.69008021        3       0.01016922       0.00548938       0.00379034
O        6.18206611       2.34545153       0.22597898        4      -0.00000000       0.00081338      -0.00117798
O        7.28594485       5.23610001       1.16149243        5      -0.00067999       0.00125970      -0.00000000
O        8.37536282       2.22627631       2.59765121        6       0.00067999      -0.00044632      -0.00117798
O        4.26362593       4.59629008       2.11323501        7      -0.00067999       0.00044632       0.00117798
O        6.45692264       4.47711486       4.48490724        8       0.00000000      -0.00081338       0.00117798
O        5.35304390       1.58646638       3.54939379        9       0.00067999      -0.00125970       0.00000000
10
Lattice="6.045519243929831 -0.022588982901523197 -0.015597375273752857 3.298423976176078 5.066479296736661 -0.01559737527376651 3.298423976176081 1.7804997689367053 4.7433402065625625" Properties=species:S:1:pos:R:3:spacegroup_kinds:I:1:forces:R:3 spacegroup="P 1" unit_cell=conventional occupancy="_JSON {\"0\": {\"In\": 1}, \"1\": {\"In\": 1}, \"2\": {\"In\": 1}, \"3\": {\"In\": 1}, \"4\": {\"O\": 1}, \"5\": {\"O\": 1}, \"6\": {\"O\": 1}, \"7\": {\"O\": 1}, \"8\": {\"O\": 1}, \"9\": {\"O\": 1}}" n_minim_iter=6 energy=-11287.301954323746 stress="0.062203902518165086 2.29745643353029e-05 1.5863623476983377e-05 2.29745643353029e-05 0.06217374323988569 8.563240219622749e-06 1.5863623476983377e-05 8.563240219622749e-06 0.06216725430117196" free_energy=-11287.301954323746 pbc="T T T"
In      10.79022033       5.82459531       4.02180121        0      -0.00890461      -0.00480674      -0.00331898
In       8.17333047       4.41198983       3.04641698        1       0.00890461       0.00480674       0.00331899
In       4.46903673       2.41240027       1.66572848        2      -0.00890461      -0.00480674      -0.00331899
In       1.85214688       0.99979479       0.69034425        3       0.00890461       0.00480674       0.00331899
O        6.18335143       2.34623588       0.22679654        4       0.00000000       0.00082797      -0.00119911
O        7.28796231       5.23693096       1.16243899        5      -0.00069219       0.00128230       0.00000000
O        8.37716452       2.22759749       2.59846665        6       0.00069219      -0.00045433      -0.00119911
O        4.26520268       4.59679261       2.11367881        7      -0.00069219       0.00045433       0.00119911
O        6.45901578       4.47815421       4.48534892        8      -0.00000000      -0.00082797       0.00119911
O        5.35440490       1.58745913       3.54970647        9       0.00069219      -0.00128230       0.00000000
10
Lattice="6.04618312839213 -0.02189998985176661 -0.015121635254607097 3.2993642657082742 5.066656241918973 -0.015121635254620734 3.2993642657082773 1.7810073402213251 4.743337115545026" Properties=species:S:1:pos:R:3:spacegroup_kinds:I:1:forces:R:3 spacegroup="P 1" unit_cell=conventional occupancy="_JSON {\"0\": {\"In\": 1}, \"1\": {\"In\": 1}, \"2\": {\"In\": 1}, \"3\": {\"In\": 1}, \"4\": {\"O\": 1}, \"5\": {\"O\": 1}, \"6\": {\"O\": 1}, \"7\": {\"O\": 1}, \"8\": {\"O\": 1}, \"9\": {\"O\": 1}}" n_minim_iter=7 energy=-11287.30196955414 stress="0.062387923315309006 0.000176451576266604 0.00012183733186154358 0.000176451576266604 0.062156291116673694 6.576818558537638e-05 0.00012183733186154358 6.576818558537638e-05 0.062106453998760976" free_energy=-11287.30196955414 pbc="T T T"
In      10.79175097       5.82542155       4.02237172        0      -0.00377563      -0.00203809      -0.00140728
In       8.17561653       4.41322385       3.04726905        1       0.00377563       0.00203809       0.00140728
In       4.46929514       2.41253976       1.66582480        2      -0.00377563      -0.00203809      -0.00140728
In       1.85316070       1.00034205       0.69072213        3       0.00377563       0.00203809       0.00140728
O        6.18431948       2.34683748       0.22739646        4       0.00000000       0.00046331      -0.00067100
O        7.28947263       5.23757370       1.16315183        5      -0.00038733       0.00071754       0.00000000
O        8.37853060       2.22858648       2.59906501        6       0.00038733      -0.00025423      -0.00067100
O        4.26638107       4.59717712       2.11402884        7      -0.00038733       0.00025423       0.00067100
O        6.46059219       4.47892612       4.48569739        8       0.00000000      -0.00046331       0.00067100
O        5.35543904       1.58818991       3.54994202        9       0.00038733      -0.00071754       0.00000000
