10
Lattice="5.273989055463585 -0.13143746094582734 -0.09075571982757441 2.7840706367332544 4.481203750441311 -0.09075571982755655 2.784070636733261 1.502850197915936 4.222660883409257" Properties=species:S:1:pos:R:3:spacegroup_kinds:I:1:forces:R:3 spacegroup="P 1" unit_cell=conventional occupancy="_JSON {\"0\": {\"In\": 1}, \"1\": {\"In\": 1}, \"2\": {\"In\": 1}, \"3\": {\"In\": 1}, \"4\": {\"O\": 1}, \"5\": {\"O\": 1}, \"6\": {\"O\": 1}, \"7\": {\"O\": 1}, \"8\": {\"O\": 1}, \"9\": {\"O\": 1}}" n_minim_iter=3 energy=-11288.402354963808 stress="0.06828400233681375 0.00027480747585674085 0.00018975070832736538 0.00027480747585674085 0.0679232560036144 0.00010242804187270974 0.00018975070832736538 0.00010242804187270974 0.06784563914650993" free_energy=-11288.402354963808 pbc="T T T"
In       9.45231010       5.10238711       3.52312660        0      -0.00613308      -0.00331066      -0.00228596
In       6.81088540       3.67653764       2.53859757        1       0.00613308       0.00331066       0.00228596
In       4.03124494       2.17607886       1.50255187        2      -0.00613308      -0.00331066      -0.00228596
In       1.38982023       0.75022939       0.51802285        3       0.00613308       0.00331066       0.00228596
O        5.34752711       2.07918953      -0.02244459        4      -0.00000000       0.00008109      -0.00011743
O        6.16961258       4.69388479       0.91953164        5      -0.00006779       0.00012558       0.00000000
O        7.30951228       1.77476711       2.08888585        6       0.00006779      -0.00004449      -0.00011743
O        3.53261805       4.07784939       1.95226360        7      -0.00006779       0.00004449       0.00011743
O        5.49460322       3.77342697       4.06359404        8      -0.00000000      -0.00008109       0.00011743
O        4.67251776       1.15873171       3.12161780        9       0.00006779      -0.00012558       0.00000000
