10
Lattice="6.374318138136623 0.043957901202410665 0.03035231308505839 3.534476639196214 5.304841082467216 0.030352313085049345 3.534476639196218 1.9079217483425972 4.949959068047211" Properties=species:S:1:pos:R:3:spacegroup_kinds:I:1:forces:R:3 spacegroup="P 1" unit_cell=conventional occupancy="_JSON {\"0\": {\"In\": 1}, \"1\": {\"In\": 1}, \"2\": {\"In\": 1}, \"3\": {\"In\": 1}, \"4\": {\"O\": 1}, \"5\": {\"O\": 1}, \"6\": {\"O\": 1}, \"7\": {\"O\": 1}, \"8\": {\"O\": 1}, \"9\": {\"O\": 1}}" n_minim_iter=5 energy=-11284.963376415895 stress="0.15492393297599974 -1.7213680850682046e-05 -1.188580958369326e-05 -1.7213680850682046e-05 0.15494652978513096 -6.415992536832097e-06 -1.188580958369326e-05 -6.415992536832097e-06 0.1549513916379609" free_energy=-11284.963376415895 pbc="T T T"
In      11.44405620       6.17753799       4.26550318        0      -0.00763164      -0.00411958      -0.00284452
In       8.72085094       4.70754312       3.25049237        1       0.00763164       0.00411958       0.00284452
In       4.72242049       2.54917763       1.76017133        2      -0.00763164      -0.00411958      -0.00284452
In       1.99921523       1.07918275       0.74516052        3       0.00763164       0.00411958       0.00284452
O        6.54797693       2.54136787       0.24651974        4       0.00000000       0.00020482      -0.00029663
O        7.72565724       5.58075184       1.28301824        5      -0.00017123       0.00031721       0.00000000
O        8.90477326       2.40315658       2.72149927        6       0.00017123      -0.00011239      -0.00029663
O        4.53849817       4.85356416       2.28916443        7      -0.00017123       0.00011239       0.00029663
O        6.89529450       4.71535288       4.76414396        8       0.00000000      -0.00020482       0.00029663
O        5.71761419       1.67596890       3.72764546        9       0.00017123      -0.00031721      -0.00000000
