1
Lattice="3.6306768097523547 0.4162911279969683 -3.2634287085851845e-10 0.6665712831332948 3.593159490563223 -7.545765416046995e-10 -2.148624046296757 -2.0047253088509676 2.1724648544568614" Properties=species:S:1:pos:R:3:spacegroup_kinds:I:1:forces:R:3 spacegroup="P 1" unit_cell=conventional occupancy="_JSON {\"0\": {\"In\": 1}}" n_minim_iter=1 energy=-1969.984611610404 stress="-0.14685447993166087 0.014791874127003706 -4.167221899346017e-12 0.014791874127003706 -0.14890688624979706 -3.612306361962799e-12 -4.167221899346017e-12 -3.612306361962799e-12 -0.16270811149593606" free_energy=-1969.984611610404 pbc="T T T"
In       0.00000000       0.00000000       0.00000000        0      -0.00000000       0.00000000       0.00000000
1
Lattice="3.603533885922086 0.36166570151243854 -3.1372766110015795e-10 0.610198285467647 3.5698622661177803 -7.461843105811427e-10 -2.106866085547358 -1.9657639833817488 2.1938882847238803" Properties=species:S:1:pos:R:3:spacegroup_kinds:I:1:forces:R:3 spacegroup="P 1" unit_cell=conventional occupancy="_JSON {\"0\": {\"In\": 1}}" n_minim_iter=2 energy=-1969.9925598443851 stress="-0.14066625344482095 -0.0004955444225600509 -4.104903371961446e-13 -0.0004955444225600509 -0.1405974955249877 -3.829101479040755e-13 -4.104903371961446e-13 -3.829101479040755e-13 -0.14013513895360452" free_energy=-1969.9925598443851 pbc="T T T"
In       0.00000000       0.00000000       0.00000000        0       0.00000000       0.00000000       0.00000000
