1
Lattice="3.6306768097523547 0.4162911279969684 -3.2634229719612624e-10 0.6665712831332945 3.593159490563223 -7.545754514196277e-10 -2.148624046296757 -2.004725308850967 2.172464854456861" Properties=species:S:1:pos:R:3:spacegroup_kinds:I:1:forces:R:3 spacegroup="P 1" unit_cell=conventional occupancy="_JSON {\"0\": {\"In\": 1}}" n_minim_iter=1 energy=-1970.0876970384325 stress="-0.10451615401832781 0.0074139007463178384 -1.6699080321182494e-12 0.0074139007463178384 -0.10554484967952883 -1.5580739133479188e-12 -1.6699080321182494e-12 -1.5580739133479188e-12 -0.11246222291219173" free_energy=-1970.0876970384325 pbc="T T T"
In       0.00000000       0.00000000       0.00000000        0       0.00000000      -0.00000000      -0.00000000
