1
Lattice="3.6985555945588593 0.4240740669295275 -3.3244561188709967e-10 0.6790334357998351 3.660336855174761 -7.686847301047e-10 -2.1887945150305494 -2.0422054606149924 2.213081048649435" Properties=species:S:1:pos:R:3:spacegroup_kinds:I:1:forces:R:3 spacegroup="P 1" unit_cell=conventional occupancy="_JSON {\"0\": {\"In\": 1}}" n_minim_iter=2 energy=-1970.1557338336627 stress="-0.06496543945039365 -8.715110630643268e-05 2.4814280901854145e-13 -8.715110630643268e-05 -0.0649533470353487 -2.99838309374976e-13 2.4814280901854145e-13 -2.99838309374976e-13 -0.06487203265675964" free_energy=-1970.1557338336627 pbc="T T T"
In       0.00000000       0.00000000       0.00000000        0       0.00000000      -0.00000000       0.00000000
