1
Lattice="3.8113465443342185 -0.16817859740360652 -2.2304327193427509e-10 0.09600715525167214 3.813847027316842 -7.598127896570212e-10 -1.9536768496098549 -1.8228342144187255 2.723062378219789" Properties=species:S:1:pos:R:3:spacegroup_kinds:I:1:forces:R:3 spacegroup="P 1" unit_cell=conventional occupancy="_JSON {\"0\": {\"In\": 1}}" n_minim_iter=1 energy=-1970.2836794859686 stress="0.016217390899048695 -0.0012701402484650124 8.828797447269185e-14 -0.0012701402484650124 0.016393625759491496 1.4278464434114813e-13 8.828797447269185e-14 1.4278464434114813e-13 0.017578701532047266" free_energy=-1970.2836794859686 pbc="T T T"
In       0.00000000       0.00000000       0.00000000        0       0.00000000       0.00000000      -0.00000000
