1
Lattice="3.5095142748042796 0.30510891156430997 -2.9623412684588196e-10 0.5472700342299999 3.479982385387153 -7.242002338431282e-10 -2.0283921543711636 -1.8925456480468725 2.1711006727269275" Properties=species:S:1:pos:R:3:spacegroup_kinds:I:1:forces:R:3 spacegroup="P 1" unit_cell=conventional occupancy="_JSON {\"0\": {\"In\": 1}}" n_minim_iter=1 energy=-1969.7120754337982 stress="-0.21724457667940528 0.013999294987268679 -4.1362117863767405e-12 0.013999294987268679 -0.21918701083195702 -4.004779909628595e-12 -4.1362117863767405e-12 -4.004779909628595e-12 -0.23224873794918113" free_energy=-1969.7120754337982 pbc="T T T"
In       0.00000000       0.00000000       0.00000000        0      -0.00000000       0.00000000      -0.00000000
1
Lattice="3.471279646497226 0.22372718415563164 -2.7758808488792775e-10 0.4634372393277211 3.447471850838003 -7.12141836303843e-10 -1.9673584427642508 -1.8355995170613562 2.2045206752862287" Properties=species:S:1:pos:R:3:spacegroup_kinds:I:1:forces:R:3 spacegroup="P 1" unit_cell=conventional occupancy="_JSON {\"0\": {\"In\": 1}}" n_minim_iter=2 energy=-1969.7224085920857 stress="-0.19159177041418776 -0.0017800372852960085 5.104842566704826e-13 -0.0017800372852960085 -0.1913447861749401 3.2806325257647265e-13 5.104842566704826e-13 3.2806325257647265e-13 -0.18968396245026248" free_energy=-1969.7224085920857 pbc="T T T"
In       0.00000000       0.00000000       0.00000000        0      -0.00000000       0.00000000       0.00000000
