1
Lattice="4.084873585920237 0.562195202674354 -3.8570493270817595e-10 0.8435603605453021 4.036169171005545 -8.5398767862166e-10 -2.4642169730730394 -2.299182186370688 2.3756371024113436" Properties=species:S:1:pos:R:3:spacegroup_kinds:I:1:forces:R:3 spacegroup="P 1" unit_cell=conventional occupancy="_JSON {\"0\": {\"In\": 1}}" n_minim_iter=1 energy=-1970.0662981777443 stress="0.019225116815283015 0.013067861369758882 -3.5601843449882035e-12 0.013067861369758882 0.017411921204467218 -3.4315001256594045e-12 -3.5601843449882035e-12 -3.4315001256594045e-12 0.005219247259922494" free_energy=-1970.0662981777443 pbc="T T T"
In       0.00000000       0.00000000       0.00000000        0      -0.00000000       0.00000000       0.00000000
1
Lattice="3.7598355468379028 -0.16590563502429467 -2.200260581014633e-10 0.09470960220151681 3.762302235367266 -7.495394705692231e-10 -1.9272725743390942 -1.7981982996408632 2.6862597265282697" Properties=species:S:1:pos:R:3:spacegroup_kinds:I:1:forces:R:3 spacegroup="P 1" unit_cell=conventional occupancy="_JSON {\"0\": {\"In\": 1}}" n_minim_iter=2 energy=-1970.2966397409887 stress="-0.003657323210449334 -0.0020750508056305767 6.118116246844091e-13 -0.0020750508056305767 -0.003369405172579268 1.359644234700327e-13 6.118116246844091e-13 1.359644234700327e-13 -0.0014333257199534632" free_energy=-1970.2966397409887 pbc="T T T"
In       0.00000000       0.00000000       0.00000000        0       0.00000000       0.00000000      -0.00000000
