1
Lattice="3.78576626657663 -0.16704984797491362 -2.2154496792833697e-10 0.09536279251281243 3.7882499672886096 -7.54712922159199e-10 -1.9405645293628595 -1.810600059122565 2.704786241118152" Properties=species:S:1:pos:R:3:spacegroup_kinds:I:1:forces:R:3 spacegroup="P 1" unit_cell=conventional occupancy="_JSON {\"0\": {\"In\": 1}}" n_minim_iter=1 energy=-1970.2940295129702 stress="0.008092269112838514 -0.0017332425437262286 4.042802791593703e-13 -0.0017332425437262286 0.008332760473809262 4.3846263904715605e-13 4.042802791593703e-13 4.3846263904715605e-13 0.009949923421092152" free_energy=-1970.2940295129702 pbc="T T T"
In       0.00000000       0.00000000       0.00000000        0      -0.00000000       0.00000000       0.00000000
