1
Lattice="3.7533926136306834 0.47084576829545055 -3.453721247561178e-10 0.7294882430040962 3.711805322602183 -7.822434871653835e-10 -2.241440428168374 -2.091325545011032 2.2162928780591695" Properties=species:S:1:pos:R:3:spacegroup_kinds:I:1:forces:R:3 spacegroup="P 1" unit_cell=conventional occupancy="_JSON {\"0\": {\"In\": 1}}" n_minim_iter=2 energy=-1970.2080262184147 stress="-0.006235656699690079 -0.0001697047475079882 1.6281230073220313e-13 -0.0001697047475079882 -0.0062121097781700834 1.517512192372678e-13 1.6281230073220313e-13 1.517512192372678e-13 -0.006053770583354145" free_energy=-1970.2080262184147 pbc="T T T"
In       0.00000000       0.00000000       0.00000000        0       0.00000000       0.00000000       0.00000000
