1
Lattice="3.7860324485801167 0.474940284842425 -3.4837551137419675e-10 0.7358319374427587 3.744083510781642 -7.890459458846299e-10 -2.260932192861126 -2.109511897370442 2.235565957426553" Properties=species:S:1:pos:R:3:spacegroup_kinds:I:1:forces:R:3 spacegroup="P 1" unit_cell=conventional occupancy="_JSON {\"0\": {\"In\": 1}}" n_minim_iter=2 energy=-1970.2080262184147 stress="-0.006235656699690079 -0.0001697047475079882 1.6281230073220313e-13 -0.0001697047475079882 -0.0062121097781700834 1.517512192372678e-13 1.6281230073220313e-13 1.517512192372678e-13 -0.006053770583354145" free_energy=-1970.2080262184147 pbc="T T T"
In       0.00000000       0.00000000       0.00000000        0       0.00000000       0.00000000       0.00000000
