1
Lattice="3.9070410300950447 0.5377203670004083 -3.689134989930321e-10 0.8068364591189132 3.860456933080547 -8.168094415499296e-10 -2.3569387444542023 -2.1990886495916446 2.272215146076851" Properties=species:S:1:pos:R:3:spacegroup_kinds:I:1:forces:R:3 spacegroup="P 1" unit_cell=conventional occupancy="_JSON {\"0\": {\"In\": 1}}" n_minim_iter=1 energy=-1970.1769685495588 stress="0.022877662495202032 -0.007260079615275359 1.9573328115923758e-12 -0.007260079615275359 0.023885015122852574 1.8261283720458205e-12 1.9573328115923758e-12 1.8261283720458205e-12 0.030658869012270724" free_energy=-1970.1769685495588 pbc="T T T"
In       0.00000000       0.00000000       0.00000000        0      -0.00000000      -0.00000000       0.00000000
