1
Lattice="3.4358559538988103 0.22144409440069612 -2.747548684903956e-10 0.4587079579167088 3.4122911118822694 -7.048756963338343e-10 -1.9472819557610492 -1.8168676027104644 2.1820239966314308" Properties=species:S:1:pos:R:3:spacegroup_kinds:I:1:forces:R:3 spacegroup="P 1" unit_cell=conventional occupancy="_JSON {\"0\": {\"In\": 1}}" n_minim_iter=1 energy=-1969.543120353046 stress="-0.2586154830961374 0.013650468554168427 -3.6357892202586207e-12 0.013650468554168427 -0.26050951678428874 -3.3922995557066533e-12 -3.6357892202586207e-12 -3.3922995557066533e-12 -0.27324577924932963" free_energy=-1969.543120353046 pbc="T T T"
In       0.00000000       0.00000000       0.00000000        0      -0.00000000      -0.00000000      -0.00000000
1
Lattice="3.3974148255882906 0.13593499998107503 -2.5527947211369657e-10 0.3707434010808489 3.3798602266812705 -6.925552212515594e-10 -1.8840791131854182 -1.7578976128929842 2.218320918891258" Properties=species:S:1:pos:R:3:spacegroup_kinds:I:1:forces:R:3 spacegroup="P 1" unit_cell=conventional occupancy="_JSON {\"0\": {\"In\": 1}}" n_minim_iter=2 energy=-1969.5546711239251 stress="-0.2358424227953089 0.000516591753695832 1.2530522511108062e-13 0.000516591753695832 -0.23591410108134309 1.1686455432540353e-13 1.2530522511108062e-13 1.1686455432540353e-13 -0.23639609539103645" free_energy=-1969.5546711239251 pbc="T T T"
In       0.00000000       0.00000000       0.00000000        0       0.00000000      -0.00000000       0.00000000
