1
Lattice="3.544611745877253 0.30816020309904424 -2.9919755894444185e-10 0.5527430976488856 3.5147845179735495 -7.31442871210143e-10 -2.048677421615633 -1.9114723601031478 2.1928131198323895" Properties=species:S:1:pos:R:3:spacegroup_kinds:I:1:forces:R:3 spacegroup="P 1" unit_cell=conventional occupancy="_JSON {\"0\": {\"In\": 1}}" n_minim_iter=2 energy=-1969.8678737766213 stress="-0.17124244296345678 -0.000562883444907122 -3.481609979260314e-13 -0.000562883444907122 -0.17116434160048768 6.773005083990729e-13 -3.481609979260314e-13 6.773005083990729e-13 -0.17063915587360026" free_energy=-1969.8678737766213 pbc="T T T"
In       0.00000000       0.00000000       0.00000000        0       0.00000000       0.00000000      -0.00000000
