1
Lattice="3.753392613630683 0.47084576829545033 -3.4537076556749575e-10 0.7294882430040954 3.7118053226021828 -7.822421934898652e-10 -2.2414404281683735 -2.0913255450110313 2.216292878059168" Properties=species:S:1:pos:R:3:spacegroup_kinds:I:1:forces:R:3 spacegroup="P 1" unit_cell=conventional occupancy="_JSON {\"0\": {\"In\": 1}}" n_minim_iter=1 energy=-1970.1920535765948 stress="-0.03283957830792483 0.006772559850782178 -2.024109346515767e-12 0.006772559850782178 -0.03377928645532559 -1.8885978868306718e-12 -2.024109346515767e-12 -1.8885978868306718e-12 -0.04009827099686372" free_energy=-1970.1920535765948 pbc="T T T"
In       0.00000000       0.00000000       0.00000000        0      -0.00000000       0.00000000       0.00000000
