1
Lattice="3.4358559538988103 0.2214440944006949 -2.747553557535939e-10 0.4587079579167091 3.4122911118822676 -7.048745757933986e-10 -1.9472819557610495 -1.8168676027104638 2.1820239966314303" Properties=species:S:1:pos:R:3:spacegroup_kinds:I:1:forces:R:3 spacegroup="P 1" unit_cell=conventional occupancy="_JSON {\"0\": {\"In\": 1}}" n_minim_iter=2 energy=-1969.7224085920857 stress="-0.19159177041418776 -0.0017800372852960085 5.104842566704826e-13 -0.0017800372852960085 -0.1913447861749401 3.2806325257647265e-13 5.104842566704826e-13 3.2806325257647265e-13 -0.18968396245026248" free_energy=-1969.7224085920857 pbc="T T T"
In       0.00000000       0.00000000       0.00000000        0      -0.00000000       0.00000000       0.00000000
