10
Lattice="5.207991764895273 -0.2674976162438657 -0.18470334514735232 2.6341095134652273 4.500688866049853 -0.18470334514735476 2.6341095134652237 1.4219007058989317 4.274168220514708" Properties=species:S:1:pos:R:3:spacegroup_kinds:I:1:forces:R:3 spacegroup="P 1" unit_cell=conventional occupancy="_JSON {\"0\": {\"In\": 1}, \"1\": {\"In\": 1}, \"2\": {\"In\": 1}, \"3\": {\"In\": 1}, \"4\": {\"O\": 1}, \"5\": {\"O\": 1}, \"6\": {\"O\": 1}, \"7\": {\"O\": 1}, \"8\": {\"O\": 1}, \"9\": {\"O\": 1}}" n_minim_iter=1 energy=-11285.507407239893 stress="-0.2700193792292928 0.004814557352043036 0.00332438419787542 0.004814557352043036 -0.27633956353885325 0.0017945131808787178 0.00332438419787542 0.0017945131808787178 -0.27769939080044315" free_energy=-11285.507407239893 pbc="T T T"
In       9.12950711       4.92813702       3.40280936        0       0.00500249       0.00270036       0.00186456
In       6.58480906       3.55450091       2.45433293        1      -0.00500249      -0.00270036      -0.00186456
In       3.89140172       2.10059104       1.45042860        2       0.00500249       0.00270036       0.00186456
In       1.34670367       0.72695493       0.50195216        3      -0.00500249      -0.00270036      -0.00186456
O        5.22304857       1.95265973      -0.09030936        4      -0.00000000      -0.04222341       0.06115028
O        5.97777665       4.57209399       0.79148704        5       0.03529898      -0.06539232       0.00000000
O        7.10243001       1.62188471       2.04677475        6      -0.03529898       0.02316891       0.06115028
O        3.37378077       4.03320724       1.85798678        7       0.03529898      -0.02316891      -0.06115028
O        5.25316221       3.70243222       3.99507089        8       0.00000000       0.04222341      -0.06115028
O        4.49843412       1.08299797       3.11327449        9      -0.03529898       0.06539232       0.00000000
10
Lattice="5.195112514423284 -0.2820134400449928 -0.19472631750607988 2.614907086305852 4.497886898074568 -0.19472631750608238 2.614907086305848 1.411535174552071 4.275099219620826" Properties=species:S:1:pos:R:3:spacegroup_kinds:I:1:forces:R:3 spacegroup="P 1" unit_cell=conventional occupancy="_JSON {\"0\": {\"In\": 1}, \"1\": {\"In\": 1}, \"2\": {\"In\": 1}, \"3\": {\"In\": 1}, \"4\": {\"O\": 1}, \"5\": {\"O\": 1}, \"6\": {\"O\": 1}, \"7\": {\"O\": 1}, \"8\": {\"O\": 1}, \"9\": {\"O\": 1}}" n_minim_iter=2 energy=-11285.511060794348 stress="-0.2711648377733043 -4.7501073056344446e-05 -3.279882408135094e-05 -4.7501073056344446e-05 -0.27110248198217424 -1.7704910155901467e-05 -3.279882408135094e-05 -1.7704910155901467e-05 -0.2710890657412178" free_energy=-11285.511060794348 pbc="T T T"
In       9.08484256       4.90402696       3.38616170        0       0.09343100       0.05043435       0.03482421
In       6.55254746       3.53708599       2.44230817        1      -0.09343100      -0.05043435      -0.03482421
In       3.87237922       2.09032264       1.44333841        2       0.09343100       0.05043435       0.03482421
In       1.34008411       0.72338168       0.49948488        3      -0.09343100      -0.05043435      -0.03482421
O        5.20378792       1.93990344      -0.10215966        4       0.00000000      -0.07288701       0.10555900
O        5.94772561       4.55871725       0.77668533        5       0.06093390      -0.11288170      -0.00000000
O        7.07475732       1.60174267       2.03538995        6      -0.06093390       0.03999469       0.10555900
O        3.35016936       4.02566596       1.85025663        7       0.06093390      -0.03999469      -0.10555900
O        5.22113875       3.68750519       3.98780624        8      -0.00000000       0.07288701      -0.10555900
O        4.47720106       1.06869139       3.10896125        9      -0.06093390       0.11288170       0.00000000
10
Lattice="5.189241016206734 -0.28865570995933343 -0.19931271154494068 2.6061322962027504 4.496623054900577 -0.19931271154494312 2.6061322962027473 1.4067985149037407 4.275542350779769" Properties=species:S:1:pos:R:3:spacegroup_kinds:I:1:forces:R:3 spacegroup="P 1" unit_cell=conventional occupancy="_JSON {\"0\": {\"In\": 1}, \"1\": {\"In\": 1}, \"2\": {\"In\": 1}, \"3\": {\"In\": 1}, \"4\": {\"O\": 1}, \"5\": {\"O\": 1}, \"6\": {\"O\": 1}, \"7\": {\"O\": 1}, \"8\": {\"O\": 1}, \"9\": {\"O\": 1}}" n_minim_iter=3 energy=-11285.513229161417 stress="-0.2698309503386792 -0.0005028472558306614 -0.000347208964476634 -0.0005028472558306614 -0.2691708507480666 -0.00018742450366701662 -0.000347208964476634 -0.00018742450366701662 -0.26902882618484514" free_energy=-11285.513229161417 pbc="T T T"
In       9.06705597       4.89442570       3.37953217        0       0.02363097       0.01275607       0.00880789
In       6.53520243       3.52772309       2.43584322        1      -0.02363097      -0.01275607      -0.00880789
In       3.86630317       2.08704277       1.44107370        2       0.02363097       0.01275607       0.00880789
In       1.33444962       0.72034016       0.49738476        3      -0.02363097      -0.01275607      -0.00880789
O        5.19499690       1.93198941      -0.10456107        4       0.00000000       0.00126682      -0.00183468
O        5.93574453       4.54938540       0.76991652        5      -0.00105907       0.00196196       0.00000000
O        7.06038157       1.59367840       2.03321011        6       0.00105907      -0.00069513      -0.00183468
O        3.34112402       4.02108746       1.84370682        7      -0.00105907       0.00069513       0.00183468
O        5.20650869       3.68277645       3.98147799        8       0.00000000      -0.00126682       0.00183468
O        4.46576106       1.06538046       3.10700041        9       0.00105907      -0.00196196       0.00000000
10
Lattice="5.190350134104865 -0.2873997997888756 -0.1984455232202542 2.6077908405869965 4.496861137646088 -0.19844552322025658 2.6077908405869934 1.4076938024453816 4.275457738712276" Properties=species:S:1:pos:R:3:spacegroup_kinds:I:1:forces:R:3 spacegroup="P 1" unit_cell=conventional occupancy="_JSON {\"0\": {\"In\": 1}, \"1\": {\"In\": 1}, \"2\": {\"In\": 1}, \"3\": {\"In\": 1}, \"4\": {\"O\": 1}, \"5\": {\"O\": 1}, \"6\": {\"O\": 1}, \"7\": {\"O\": 1}, \"8\": {\"O\": 1}, \"9\": {\"O\": 1}}" n_minim_iter=4 energy=-11285.513281941228 stress="-0.2695177202267175 8.212615035444831e-05 5.670695361582735e-05 8.212615035444831e-05 -0.26962552918333704 3.0610593987342493e-05 5.670695361582735e-05 3.0610593987342493e-05 -0.2696487249582614" free_energy=-11285.513281941228 pbc="T T T"
In       9.07116465       4.89664357       3.38106358        0       0.01124147       0.00606818       0.00418999
In       6.53773306       3.52908913       2.43678646        1      -0.01124147      -0.00606818      -0.00418999
In       3.86819874       2.08806600       1.44178023        2       0.01124147       0.00606818       0.00418999
In       1.33476715       0.72051156       0.49750311        3      -0.01124147      -0.00606818      -0.00418999
O        5.19665801       1.93311576      -0.10357177        4      -0.00000000       0.00518603      -0.00751070
O        5.93831761       4.55057652       0.77119615        5      -0.00433555       0.00803172      -0.00000000
O        7.06278926       1.59540560       2.03415710        6       0.00433555      -0.00284569      -0.00751070
O        3.34314254       4.02174954       1.84440959        7      -0.00433555       0.00284569       0.00751070
O        5.20927379       3.68403937       3.98213846        8       0.00000000      -0.00518603       0.00751070
O        4.46761419       1.06657862       3.10737054        9       0.00433555      -0.00803172       0.00000000
10
Lattice="5.19013332445707 -0.28764526043163036 -0.19861501034487025 2.6074666660757604 4.496814573316582 -0.19861501034487267 2.6074666660757573 1.40751881201161 4.2754742453861265" Properties=species:S:1:pos:R:3:spacegroup_kinds:I:1:forces:R:3 spacegroup="P 1" unit_cell=conventional occupancy="_JSON {\"0\": {\"In\": 1}, \"1\": {\"In\": 1}, \"2\": {\"In\": 1}, \"3\": {\"In\": 1}, \"4\": {\"O\": 1}, \"5\": {\"O\": 1}, \"6\": {\"O\": 1}, \"7\": {\"O\": 1}, \"8\": {\"O\": 1}, \"9\": {\"O\": 1}}" n_minim_iter=5 energy=-11285.513335304948 stress="-0.26949756738498853 0.000257646890704226 0.00017790155876929887 0.000257646890704226 -0.26983578660497626 9.603182816158892e-05 0.00017790155876929887 9.603182816158892e-05 -0.26990855658878193" free_energy=-11285.513335304948 pbc="T T T"
In       9.07155978       4.89685687       3.38121085        0      -0.00377112      -0.00203566      -0.00140560
In       6.53604020       3.52817532       2.43615548        1       0.00377112       0.00203566       0.00140560
In       3.86902645       2.08851280       1.44208874        2      -0.00377112      -0.00203566      -0.00140560
In       1.33350687       0.71983126       0.49703337        3       0.00377112       0.00203566       0.00140560
O        5.19633332       1.93322443      -0.10424135        4      -0.00000000       0.00316613      -0.00458537
O        5.93753977       4.55085295       0.77094604        5      -0.00264690       0.00490346       0.00000000
O        7.06259353       1.59488758       2.03349578        6       0.00264690      -0.00173733      -0.00458537
O        3.34247311       4.02180055       1.84474844        7      -0.00264690       0.00173733       0.00458537
O        5.20873332       3.68346369       3.98248557        8       0.00000000      -0.00316613       0.00458537
O        4.46752687       1.06583518       3.10729818        9       0.00264690      -0.00490346       0.00000000
