10
Lattice="6.031480996722454 -0.03771441003553105 -0.02604127016769221 3.278075950763277 5.06304290437835 -0.026041270167693097 3.2780759507632733 1.7695158400034936 4.743827072238677" Properties=species:S:1:pos:R:3:spacegroup_kinds:I:1:forces:R:3 spacegroup="P 1" unit_cell=conventional occupancy="_JSON {\"0\": {\"In\": 1}, \"1\": {\"In\": 1}, \"2\": {\"In\": 1}, \"3\": {\"In\": 1}, \"4\": {\"O\": 1}, \"5\": {\"O\": 1}, \"6\": {\"O\": 1}, \"7\": {\"O\": 1}, \"8\": {\"O\": 1}, \"9\": {\"O\": 1}}" n_minim_iter=4 energy=-11287.507050945895 stress="0.035743163637101553 -0.00022128665427108318 -0.00015279532563143068 -0.00022128665427108318 0.03603365190886128 -8.24794031649955e-05 -0.00015279532563143068 -8.24794031649955e-05 0.036096152282832986" free_energy=-11287.507050945895 pbc="T T T"
In      10.77418625       5.81594006       4.01582488        0      -0.00203854      -0.00110041      -0.00075982
In       8.10726311       4.37632645       3.02179192        1       0.00203854       0.00110041       0.00075982
In       4.48036980       2.41851789       1.66995262        2      -0.00203854      -0.00110041      -0.00075982
In       1.81344666       0.97890429       0.67591965        3       0.00203854       0.00110041       0.00075982
O        6.16264873       2.34201156       0.20094207        4       0.00000000       0.00353719      -0.00512276
O        7.24811959       5.23687339       1.14689487        5      -0.00295711       0.00547813      -0.00000000
O        8.35525382       2.20127142       2.57285561        6       0.00295711      -0.00194094      -0.00512276
O        4.23237909       4.59357292       2.11888893        7      -0.00295711       0.00194094       0.00512276
O        6.42498418       4.45283279       4.49080246        8       0.00000000      -0.00353719       0.00512276
O        5.33951332       1.55797095       3.54484967        9       0.00295711      -0.00547813       0.00000000
