10
Lattice="5.739352850320281 0.0123922460704629 0.00855667177615699 3.1596682693673315 4.79132770073134 0.008556671776161652 3.1596682693673315 1.7055989964174116 4.477479917972525" Properties=species:S:1:pos:R:3:spacegroup_kinds:I:1:forces:R:3 spacegroup="P 1" unit_cell=conventional occupancy="_JSON {\"0\": {\"In\": 1}, \"1\": {\"In\": 1}, \"2\": {\"In\": 1}, \"3\": {\"In\": 1}, \"4\": {\"O\": 1}, \"5\": {\"O\": 1}, \"6\": {\"O\": 1}, \"7\": {\"O\": 1}, \"8\": {\"O\": 1}, \"9\": {\"O\": 1}}" n_minim_iter=4 energy=-11287.4253739249 stress="-0.06030592922181205 -8.636107266861792e-05 -5.9631107763509154e-05 -8.636107266861792e-05 -0.060192560980360604 -3.2189061673183175e-05 -5.9631107763509154e-05 -3.2189061673183175e-05 -0.06016816909465622" free_energy=-11287.4253739249 pbc="T T T"
In      10.34725981       5.58548381       3.85669808        0       0.00257248       0.00138863       0.00095883
In       7.74077428       4.17849462       2.88519181        1      -0.00257248      -0.00138863      -0.00095883
In       4.31791512       2.33082434       1.60940145        2       0.00257248       0.00138863       0.00095883
In       1.71142959       0.92383514       0.63789518        3      -0.00257248      -0.00138863      -0.00095883
O        5.88434878       2.27576936       0.19779405        4       0.00000000       0.00135580      -0.00196355
O        6.92726415       5.02384625       1.13220499        5      -0.00113346       0.00209976      -0.00000000
O        8.00110168       2.13391233       2.43653401        6       0.00113346      -0.00074396      -0.00196355
O        4.05758772       4.37540663       2.05805926        7      -0.00113346       0.00074396       0.00196355
O        6.17434062       4.23354960       4.29679922        8      -0.00000000      -0.00135580       0.00196355
O        5.13142525       1.48547271       3.36238828        9       0.00113346      -0.00209976      -0.00000000
