10
Lattice="5.999703902355704 -0.022588493975079473 -0.015597037676902176 3.2732845061253917 5.028177174480007 -0.015597037676899295 3.273284506125388 1.7669294029255864 4.707522644727597" Properties=species:S:1:pos:R:3:spacegroup_kinds:I:1:forces:R:3 spacegroup="P 1" unit_cell=conventional occupancy="_JSON {\"0\": {\"In\": 1}, \"1\": {\"In\": 1}, \"2\": {\"In\": 1}, \"3\": {\"In\": 1}, \"4\": {\"O\": 1}, \"5\": {\"O\": 1}, \"6\": {\"O\": 1}, \"7\": {\"O\": 1}, \"8\": {\"O\": 1}, \"9\": {\"O\": 1}}" n_minim_iter=6 energy=-11287.605632413282 stress="0.02305443725740225 6.511718259184471e-06 4.496249599281829e-06 6.511718259184471e-06 0.023045889168901705 2.4270896334618803e-06 4.496249599281829e-06 2.4270896334618803e-06 0.02304404999356517" free_energy=-11287.605632413282 pbc="T T T"
In      10.74590834       5.80067556       4.00528496        0      -0.00176093      -0.00095056      -0.00065635
In       8.07350104       4.35810158       3.00920790        1       0.00176093       0.00095056       0.00065635
In       4.47277188       2.41441651       1.66712067        2      -0.00176093      -0.00095056      -0.00065635
In       1.80036458       0.97184254       0.67104362        3       0.00176093       0.00095056       0.00065635
O        6.13642018       2.33977454       0.20841954        4      -0.00000000       0.00426465      -0.00617631
O        7.22302194       5.21488877       1.15348511        5      -0.00356527       0.00660476       0.00000000
O        8.32310294       2.20427434       2.56218087        6       0.00356527      -0.00234011      -0.00617631
O        4.22316999       4.56824376       2.11414771        7      -0.00356527       0.00234011       0.00617631
O        6.40985274       4.43274356       4.46790903        8      -0.00000000      -0.00426465       0.00617631
O        5.32325099       1.55762933       3.52284347        9       0.00356527      -0.00660476      -0.00000000
