10
Lattice="6.0355068268570164 -0.033521231904634324 -0.02314593959073085 3.2837905295285523 5.064107629998076 -0.023145939590722926 3.283790529528548 1.7726005878238487 4.743796894763815" Properties=species:S:1:pos:R:3:spacegroup_kinds:I:1:forces:R:3 spacegroup="P 1" unit_cell=conventional occupancy="_JSON {\"0\": {\"In\": 1}, \"1\": {\"In\": 1}, \"2\": {\"In\": 1}, \"3\": {\"In\": 1}, \"4\": {\"O\": 1}, \"5\": {\"O\": 1}, \"6\": {\"O\": 1}, \"7\": {\"O\": 1}, \"8\": {\"O\": 1}, \"9\": {\"O\": 1}}" n_minim_iter=4 energy=-11287.369421880701 stress="0.046821283361085694 -0.00030419609555702693 -0.00021004312864481397 -0.00030419609555702693 0.04722060883514249 -0.0001133819499286572 -0.00021004312864481397 -0.0001133819499286572 0.047306526211831346" free_energy=-11287.369421880701 pbc="T T T"
In      10.77106528       5.81425535       4.01466162        0       0.00098070       0.00052939       0.00036553
In       8.13356656       4.39052514       3.03159591        1      -0.00098070      -0.00052939      -0.00036553
In       4.46952134       2.41266186       1.66590911        2       0.00098070       0.00052939       0.00036553
In       1.83202261       0.98893165       0.68284340        3      -0.00098070      -0.00052939      -0.00036553
O        6.16852539       2.34464842       0.20606799        4       0.00000000      -0.00048189       0.00069791
O        7.25814550       5.23919462       1.15123032        5       0.00040287      -0.00074632      -0.00000000
O        8.36269581       2.20784404       2.57796644        6      -0.00040287       0.00026443       0.00069791
O        4.24039208       4.59534296       2.11953858        7       0.00040287      -0.00026443      -0.00069791
O        6.43456251       4.45853858       4.49143703        8       0.00000000       0.00048189      -0.00069791
O        5.34494240       1.56399238       3.54627470        9      -0.00040287       0.00074632      -0.00000000
