10
Lattice="5.060283520713869 -0.30356195294880495 -0.20960526286705786 2.522908807787459 4.396993326908164 -0.2096052628670585 2.5229088077874544 1.36187421076218 4.186022374182607" Properties=species:S:1:pos:R:3:spacegroup_kinds:I:1:forces:R:3 spacegroup="P 1" unit_cell=conventional occupancy="_JSON {\"0\": {\"In\": 1}, \"1\": {\"In\": 1}, \"2\": {\"In\": 1}, \"3\": {\"In\": 1}, \"4\": {\"O\": 1}, \"5\": {\"O\": 1}, \"6\": {\"O\": 1}, \"7\": {\"O\": 1}, \"8\": {\"O\": 1}, \"9\": {\"O\": 1}}" n_minim_iter=5 energy=-11284.392673283517 stress="-0.4067015919811168 4.7237852090293e-05 3.261707226018338e-05 4.7237852090293e-05 -0.4067636022380471 1.760680125891088e-05 3.261707226018338e-05 1.760680125891088e-05 -0.40677694413322435" free_energy=-11284.392673283517 pbc="T T T"
In       8.79751483       4.74892653       3.27906704        0       0.00059070       0.00031886       0.00022017
In       6.36163686       3.43403185       2.37115073        1      -0.00059070      -0.00031886      -0.00022017
In       3.74446426       2.02127374       1.39566111        2       0.00059070       0.00031886       0.00022017
In       1.30858629       0.70637905       0.48774481        3      -0.00059070      -0.00031886      -0.00022017
O        5.05666704       1.86580501      -0.10991053        4      -0.00000000       0.00054371      -0.00078742
O        5.77157516       4.42303385       0.73209770        5      -0.00045454       0.00084205      -0.00000000
O        6.86466772       1.53425035       1.98310065        6       0.00045454      -0.00029834      -0.00078742
O        3.24143340       3.92105523       1.78371119        7      -0.00045454       0.00029834       0.00078742
O        5.04943409       3.58950057       3.87672238        8       0.00000000      -0.00054371       0.00078742
O        4.33452596       1.03227173       3.03471415        9       0.00045454      -0.00084205       0.00000000
