10
Lattice="5.328344905425394 -0.2572184797806578 -0.17760574586164188 2.708743320218477 4.595664304829612 -0.1776057458616424 2.708743320218472 1.4621882725182662 4.36046782574511" Properties=species:S:1:pos:R:3:spacegroup_kinds:I:1:forces:R:3 spacegroup="P 1" unit_cell=conventional occupancy="_JSON {\"0\": {\"In\": 1}, \"1\": {\"In\": 1}, \"2\": {\"In\": 1}, \"3\": {\"In\": 1}, \"4\": {\"O\": 1}, \"5\": {\"O\": 1}, \"6\": {\"O\": 1}, \"7\": {\"O\": 1}, \"8\": {\"O\": 1}, \"9\": {\"O\": 1}}" n_minim_iter=7 energy=-11286.625984809163 stress="-0.09326415317229639 -3.618532610164192e-06 -2.4985473623507893e-06 -3.618532610164192e-06 -0.09325940303663673 -1.3487240776023828e-06 -2.4985473623507893e-06 -1.3487240776023828e-06 -0.09325838101476323" free_energy=-11286.625984809163 pbc="T T T"
In       9.35159668       5.04802168       3.48558803        0       0.00018986       0.00010249       0.00007077
In       6.76715063       3.65292947       2.52229646        1      -0.00018986      -0.00010249      -0.00007077
In       3.97868091       2.14770463       1.48295987        2       0.00018986       0.00010249       0.00007077
In       1.39423485       0.75261242       0.51966830        3      -0.00018986      -0.00010249      -0.00007077
O        5.35063033       2.00484762      -0.07707930        4      -0.00000000      -0.00002240       0.00003244
O        6.13376117       4.67762050       0.82370834        5       0.00001872      -0.00003469       0.00000000
O        7.27624281       1.67770269       2.10315462        6      -0.00001872       0.00001229       0.00003244
O        3.46958872       4.12293140       1.90210172        7       0.00001872      -0.00001229      -0.00003244
O        5.39520120       3.79578647       4.08233563        8       0.00000000       0.00002240      -0.00003244
O        4.61207036       1.12301360       3.18154799        9      -0.00001872       0.00003469      -0.00000000
