10
Lattice="6.365867775349384 0.07801185652199401 0.05386609070800602 3.5583090169556417 5.279090387826483 0.05386609070802238 3.558309016955641 1.920786541771275 4.917547756709682" Properties=species:S:1:pos:R:3:spacegroup_kinds:I:1:forces:R:3 spacegroup="P 1" unit_cell=conventional occupancy="_JSON {\"0\": {\"In\": 1}, \"1\": {\"In\": 1}, \"2\": {\"In\": 1}, \"3\": {\"In\": 1}, \"4\": {\"O\": 1}, \"5\": {\"O\": 1}, \"6\": {\"O\": 1}, \"7\": {\"O\": 1}, \"8\": {\"O\": 1}, \"9\": {\"O\": 1}}" n_minim_iter=5 energy=-11286.149370812325 stress="0.1053224443214704 -3.4915136105643975e-06 -2.4108411534376403e-06 -3.4915136105643975e-06 0.10532702771295334 -1.3013795976923905e-06 -2.4108411534376403e-06 -1.3013795976923905e-06 0.10532801385811244" free_energy=-11286.149370812325 pbc="T T T"
In      11.44997179       6.18073125       4.26770807        0      -0.00224908      -0.00121406      -0.00083829
In       8.77375693       4.73610194       3.27021184        1       0.00224908       0.00121406       0.00083829
In       4.70872889       2.54178686       1.75506810        2      -0.00224908      -0.00121406      -0.00083829
In       2.03251403       1.09715755       0.75757187        3       0.00224908       0.00121406       0.00083829
O        6.55355535       2.55161551       0.27941309        4       0.00000000      -0.00219142       0.00317374
O        7.75324355       5.57150032       1.31018608        5       0.00183204      -0.00339390      -0.00000000
O        8.91217616       2.43853178       2.73818696        6      -0.00183204       0.00120248       0.00317374
O        4.57030966       4.83935702       2.28709298        7       0.00183204      -0.00120248      -0.00317374
O        6.92893047       4.72627329       4.74586686        8      -0.00000000       0.00219142      -0.00317374
O        5.72924227       1.70638848       3.71509387        9      -0.00183204       0.00339390       0.00000000
