10
Lattice="5.402959228995088 -0.17492245705842077 -0.12078149859335026 2.818485714861818 4.6128846258373315 -0.12078149859335087 2.8184857148618105 1.5214275667134147 4.356437868366014" Properties=species:S:1:pos:R:3:spacegroup_kinds:I:1:forces:R:3 spacegroup="P 1" unit_cell=conventional occupancy="_JSON {\"0\": {\"In\": 1}, \"1\": {\"In\": 1}, \"2\": {\"In\": 1}, \"3\": {\"In\": 1}, \"4\": {\"O\": 1}, \"5\": {\"O\": 1}, \"6\": {\"O\": 1}, \"7\": {\"O\": 1}, \"8\": {\"O\": 1}, \"9\": {\"O\": 1}}" n_minim_iter=1 energy=-11286.568908705625 stress="-0.11549418827995624 0.005553077306300139 0.0038343218472768393 0.005553077306300139 -0.12278384535264754 0.002069779146233471 0.0038343218472768393 0.002069779146233471 -0.12435226075793558" free_energy=-11286.568908705625 pbc="T T T"
In       9.56051568       5.16079682       3.56345768        0       0.19477111       0.10513807       0.07259636
In       6.99938030       3.77828778       2.60885462        1      -0.19477111      -0.10513807      -0.07259636
In       4.04055035       2.18110195       1.50602025        2       0.19477111       0.10513807       0.07259636
In       1.47941497       0.79859292       0.55141718        3      -0.19477111      -0.10513807      -0.07259636
O        5.46146227       2.06989702       0.00160183        4      -0.00000000       0.02527043      -0.03659804
O        6.31266276       4.74261710       0.90793722        5      -0.02112621       0.03913687      -0.00000000
O        7.42874750       1.79682222       2.17982076        6       0.02112621      -0.01386644      -0.03659804
O        3.61118315       4.16256751       1.93505410        7      -0.02112621       0.01386644       0.03659804
O        5.57846837       3.88949272       4.11327304        8      -0.00000000      -0.02527043       0.03659804
O        4.72726788       1.21677264       3.20693765        9       0.02112621      -0.03913687      -0.00000000
10
Lattice="5.375105763862844 -0.20538312949706167 -0.14181416487971335 2.77773663603901 4.60631342652671 -0.141814164879714 2.7777366360390023 1.4994310841652543 4.357744951761159" Properties=species:S:1:pos:R:3:spacegroup_kinds:I:1:forces:R:3 spacegroup="P 1" unit_cell=conventional occupancy="_JSON {\"0\": {\"In\": 1}, \"1\": {\"In\": 1}, \"2\": {\"In\": 1}, \"3\": {\"In\": 1}, \"4\": {\"O\": 1}, \"5\": {\"O\": 1}, \"6\": {\"O\": 1}, \"7\": {\"O\": 1}, \"8\": {\"O\": 1}, \"9\": {\"O\": 1}}" n_minim_iter=2 energy=-11286.578637012153 stress="-0.11589289064332742 -0.0010652101431096164 -0.000735512634117534 -0.0010652101431096164 -0.11449456387495512 -0.0003970320651360599 -0.000735512634117534 -0.0003970320651360599 -0.11419370510326277" free_energy=-11286.578637012153 pbc="T T T"
In       9.46755225       5.11061487       3.52880775        0       0.38900978       0.20998872       0.14499426
In       6.92831629       3.73992720       2.58236718        1      -0.38900978      -0.20998872      -0.14499426
In       4.00226274       2.16043418       1.49174944        2       0.38900978       0.20998872       0.14499426
In       1.46302677       0.78974651       0.54530887        3      -0.38900978      -0.20998872      -0.14499426
O        5.42019763       2.04346866      -0.02425850        4      -0.00000000      -0.02570179       0.03722276
O        6.24804819       4.71485607       0.87671499        5       0.02148683      -0.03980493      -0.00000000
O        7.37008372       1.75388362       2.15461397        6      -0.02148683       0.01410314       0.03722276
O        3.56049531       4.14647776       1.91950264        7       0.02148683      -0.01410314      -0.03722276
O        5.51038139       3.85689272       4.09837512        8       0.00000000       0.02570179      -0.03722276
O        4.68253083       1.18550531       3.19740163        9      -0.02148683       0.03980493       0.00000000
10
Lattice="5.31717913228567 -0.26973063356740506 -0.1862452122309552 2.6921561936251264 4.593195354938074 -0.18624521223095594 2.6921561936251197 1.453234488747563 4.36122005503258" Properties=species:S:1:pos:R:3:spacegroup_kinds:I:1:forces:R:3 spacegroup="P 1" unit_cell=conventional occupancy="_JSON {\"0\": {\"In\": 1}, \"1\": {\"In\": 1}, \"2\": {\"In\": 1}, \"3\": {\"In\": 1}, \"4\": {\"O\": 1}, \"5\": {\"O\": 1}, \"6\": {\"O\": 1}, \"7\": {\"O\": 1}, \"8\": {\"O\": 1}, \"9\": {\"O\": 1}}" n_minim_iter=3 energy=-11286.613396516936 stress="-0.10044886620278883 -0.004621361029644221 -0.003190984851416048 -0.004621361029644221 -0.09438229531540518 -0.0017225037853727985 -0.003190984851416048 -0.0017225037853727985 -0.0930770345717112" free_energy=-11286.613396516936 pbc="T T T"
In       9.30293947       5.02175636       3.46745220        0       0.12390468       0.06688414       0.04618256
In       6.74929779       3.64329245       2.51564224        1      -0.12390468      -0.06688414      -0.04618256
In       3.95219371       2.13340676       1.47308739        2       0.12390468       0.06688414       0.04618256
In       1.39855203       0.75494285       0.52127743        3      -0.12390468      -0.06688414      -0.04618256
O        5.33396244       1.98644396      -0.07660385        4       0.00000000       0.08651380      -0.12529408
O        6.11395274       4.65460011       0.81093719        5      -0.07232597       0.13398581       0.00000000
O        7.24612833       1.66436825       2.10400618        6       0.07232597      -0.04747201      -0.12529408
O        3.45536318       4.11233096       1.88472345        7      -0.07232597       0.04747201       0.12529408
O        5.36752907       3.79025525       4.06533348        8       0.00000000      -0.08651380       0.12529408
O        4.58753876       1.12209910       3.17779243        9       0.07232597      -0.13398581       0.00000000
10
Lattice="5.3321127123809555 -0.2530083057456691 -0.1746986798517301 2.7143305246892586 4.596503995761449 -0.17469867985173076 2.7143305246892524 1.4652042632887317 4.360223053770706" Properties=species:S:1:pos:R:3:spacegroup_kinds:I:1:forces:R:3 spacegroup="P 1" unit_cell=conventional occupancy="_JSON {\"0\": {\"In\": 1}, \"1\": {\"In\": 1}, \"2\": {\"In\": 1}, \"3\": {\"In\": 1}, \"4\": {\"O\": 1}, \"5\": {\"O\": 1}, \"6\": {\"O\": 1}, \"7\": {\"O\": 1}, \"8\": {\"O\": 1}, \"9\": {\"O\": 1}}" n_minim_iter=4 energy=-11286.619758754077 stress="-0.09648242736958114 0.00028037114803901726 0.00019359233818657095 0.00028037114803901726 -0.09685047726574912 0.0001045017608154848 0.00019359233818657095 0.0001045017608154848 -0.09692966550987955" free_energy=-11286.619758754077 pbc="T T T"
In       9.35558478       5.05017447       3.48707450        0       0.02312860       0.01248489       0.00862064
In       6.78557585       3.66287546       2.52916403        1      -0.02312860      -0.01248489      -0.00862064
In       3.97519790       2.14582449       1.48166166        2       0.02312860       0.01248489       0.00862064
In       1.40518897       0.75852549       0.52375119        3      -0.02312860      -0.01248489      -0.00862064
O        5.35624979       2.00232108      -0.06460529        4       0.00000000       0.09595092      -0.13896144
O        6.14773207       4.67186585       0.82800774        5      -0.08021545       0.14860129      -0.00000000
O        7.27909803       1.68698019       2.11550624        6       0.08021545      -0.05265037      -0.13896144
O        3.48167572       4.12171976       1.89531945        7      -0.08021545       0.05265037       0.13896144
O        5.40452396       3.80637887       4.07543098        8      -0.00000000      -0.09595092       0.13896144
O        4.61304168       1.13683410       3.18281795        9       0.08021545      -0.14860129       0.00000000
10
Lattice="5.331445200553682 -0.2537537513598598 -0.17521339957334775 2.7133410501173434 4.596354994839289 -0.17521339957334847 2.713341050117337 1.464670141763 4.360266087041274" Properties=species:S:1:pos:R:3:spacegroup_kinds:I:1:forces:R:3 spacegroup="P 1" unit_cell=conventional occupancy="_JSON {\"0\": {\"In\": 1}, \"1\": {\"In\": 1}, \"2\": {\"In\": 1}, \"3\": {\"In\": 1}, \"4\": {\"O\": 1}, \"5\": {\"O\": 1}, \"6\": {\"O\": 1}, \"7\": {\"O\": 1}, \"8\": {\"O\": 1}, \"9\": {\"O\": 1}}" n_minim_iter=5 energy=-11286.624940050766 stress="-0.09122848519678012 0.0019268701126609307 0.0013304767362898574 0.0019268701126609307 -0.09375793356931819 0.0007181955809064273 0.0013304767362898574 0.0007181955809064273 -0.09430216023661005" free_energy=-11286.624940050766 pbc="T T T"
In       9.36376627       5.05459086       3.49012396        0      -0.06685949      -0.03609097      -0.02492031
In       6.77342466       3.65631621       2.52463496        1       0.06685950       0.03609097       0.02492031
In       3.98470262       2.15095517       1.48520432        2      -0.06685950      -0.03609097      -0.02492031
In       1.39436101       0.75268052       0.51971532        3       0.06685950       0.03609097       0.02492031
O        5.35525442       2.00670612      -0.07251694        4      -0.00000000       0.04089702      -0.05922933
O        6.14196588       4.67898306       0.82724642        5      -0.03419011       0.06333811       0.00000000
O        7.28188401       1.68317661       2.10761610        6       0.03419011      -0.02244109      -0.05922933
O        3.47624328       4.12409478       1.90222318        7      -0.03419011       0.02244109       0.05922933
O        5.40287287       3.80056526       4.08235623        8      -0.00000000      -0.04089702       0.05922933
O        4.61616141       1.12828833       3.18259286        9       0.03419011      -0.06333810       0.00000000
10
Lattice="5.329305789585092 -0.2561442111798635 -0.1768639784883858 2.710168672254328 4.595878134128145 -0.17686397848838636 2.7101686722543215 1.4629576820874466 4.360404970993566" Properties=species:S:1:pos:R:3:spacegroup_kinds:I:1:forces:R:3 spacegroup="P 1" unit_cell=conventional occupancy="_JSON {\"0\": {\"In\": 1}, \"1\": {\"In\": 1}, \"2\": {\"In\": 1}, \"3\": {\"In\": 1}, \"4\": {\"O\": 1}, \"5\": {\"O\": 1}, \"6\": {\"O\": 1}, \"7\": {\"O\": 1}, \"8\": {\"O\": 1}, \"9\": {\"O\": 1}}" n_minim_iter=6 energy=-11286.625895628858 stress="-0.09263087587184028 0.0005815237011398739 0.0004015339440038619 0.0005815237011398739 -0.09339425590994258 0.00021674930184529425 0.0004015339440038619 0.00021674930184529425 -0.09355850190916438" free_energy=-11286.625895628858 pbc="T T T"
In       9.35537951       5.05006366       3.48699799        0      -0.01996152      -0.01077529      -0.00744019
In       6.76908518       3.65397374       2.52301752        1       0.01996152       0.01077529       0.00744019
In       3.98055794       2.14871786       1.48365949        2      -0.01996152      -0.01077529      -0.00744019
In       1.39426361       0.75262794       0.51967902        3       0.01996152       0.01077529       0.00744019
O        5.35206367       2.00547709      -0.07574201        4      -0.00000000       0.01152111      -0.01668551
O        6.13626002       4.67812529       0.82480527        5      -0.00963171       0.01784300      -0.00000000
O        7.27803599       1.67937050       2.10446047        6       0.00963171      -0.00632189      -0.01668551
O        3.47160713       4.12332111       1.90221654        7      -0.00963171       0.00632189       0.01668551
O        5.39757945       3.79721452       4.08241902        8      -0.00000000      -0.01152111       0.01668551
O        4.61338310       1.12456631       3.18187174        9       0.00963171      -0.01784300       0.00000000
10
Lattice="5.328344905425394 -0.2572184797806578 -0.17760574586164188 2.708743320218477 4.595664304829612 -0.1776057458616424 2.708743320218472 1.4621882725182662 4.36046782574511" Properties=species:S:1:pos:R:3:spacegroup_kinds:I:1:forces:R:3 spacegroup="P 1" unit_cell=conventional occupancy="_JSON {\"0\": {\"In\": 1}, \"1\": {\"In\": 1}, \"2\": {\"In\": 1}, \"3\": {\"In\": 1}, \"4\": {\"O\": 1}, \"5\": {\"O\": 1}, \"6\": {\"O\": 1}, \"7\": {\"O\": 1}, \"8\": {\"O\": 1}, \"9\": {\"O\": 1}}" n_minim_iter=7 energy=-11286.625984809163 stress="-0.09326415317229639 -3.618532610164192e-06 -2.4985473623507893e-06 -3.618532610164192e-06 -0.09325940303663673 -1.3487240776023828e-06 -2.4985473623507893e-06 -1.3487240776023828e-06 -0.09325838101476323" free_energy=-11286.625984809163 pbc="T T T"
In       9.35159668       5.04802168       3.48558803        0       0.00018986       0.00010249       0.00007077
In       6.76715063       3.65292947       2.52229646        1      -0.00018986      -0.00010249      -0.00007077
In       3.97868091       2.14770463       1.48295987        2       0.00018986       0.00010249       0.00007077
In       1.39423485       0.75261242       0.51966830        3      -0.00018986      -0.00010249      -0.00007077
O        5.35063033       2.00484762      -0.07707930        4      -0.00000000      -0.00002240       0.00003244
O        6.13376117       4.67762050       0.82370834        5       0.00001872      -0.00003469       0.00000000
O        7.27624281       1.67770269       2.10315462        6      -0.00001872       0.00001229       0.00003244
O        3.46958872       4.12293140       1.90210172        7       0.00001872      -0.00001229      -0.00003244
O        5.39520120       3.79578647       4.08233563        8       0.00000000       0.00002240      -0.00003244
O        4.61207036       1.12301360       3.18154799        9      -0.00001872       0.00003469      -0.00000000
