10
Lattice="5.882409490665434 0.004435162854324301 0.0030624176281313265 3.2315144118757004 4.9152899906699234 0.003062417628133492 3.2315144118756987 1.7443817729977165 4.595347353662727" Properties=species:S:1:pos:R:3:spacegroup_kinds:I:1:forces:R:3 spacegroup="P 1" unit_cell=conventional occupancy="_JSON {\"0\": {\"In\": 1}, \"1\": {\"In\": 1}, \"2\": {\"In\": 1}, \"3\": {\"In\": 1}, \"4\": {\"O\": 1}, \"5\": {\"O\": 1}, \"6\": {\"O\": 1}, \"7\": {\"O\": 1}, \"8\": {\"O\": 1}, \"9\": {\"O\": 1}}" n_minim_iter=1 energy=-11287.683399021265 stress="1.2324586978112011e-05 9.609814302601563e-05 6.635441664674302e-05 9.609814302601563e-05 -0.00011382574081685394 3.581832543082944e-05 6.635441664674302e-05 3.581832543082944e-05 -0.00014096777202715895" free_energy=-11287.683399021265 pbc="T T T"
In      10.58206753       5.71223376       3.94421714        0      -0.00637920      -0.00344351      -0.00237770
In       7.93608995       4.28392664       2.95799115        1       0.00637920       0.00344351       0.00237770
In       4.40934837       2.38018030       1.64348105        2      -0.00637920      -0.00344351      -0.00237770
In       1.76337080       0.95187318       0.65725505        3       0.00637920       0.00344351       0.00237770
O        6.02756433       2.31373502       0.21706387        4       0.00000000       0.00500444      -0.00724771
O        7.10368809       5.12557487       1.15343047        5      -0.00418374       0.00775049       0.00000000
O        8.18295498       2.18624036       2.51473754        6       0.00418374      -0.00274605      -0.00724771
O        4.16248334       4.47786658       2.08673465        7      -0.00418374       0.00274605       0.00724771
O        6.31787400       4.35037192       4.38440833        8      -0.00000000      -0.00500444       0.00724771
O        5.24175023       1.53853207       3.44804173        9       0.00418374      -0.00775049      -0.00000000
