10
Lattice="5.595676671293619 -0.027480098694720186 -0.01897462199912146 3.047496532200272 4.693092525372926 -0.018974621999119406 3.047496532200269 1.6450483353896779 4.395371822977313" Properties=species:S:1:pos:R:3:spacegroup_kinds:I:1:forces:R:3 spacegroup="P 1" unit_cell=conventional occupancy="_JSON {\"0\": {\"In\": 1}, \"1\": {\"In\": 1}, \"2\": {\"In\": 1}, \"3\": {\"In\": 1}, \"4\": {\"O\": 1}, \"5\": {\"O\": 1}, \"6\": {\"O\": 1}, \"7\": {\"O\": 1}, \"8\": {\"O\": 1}, \"9\": {\"O\": 1}}" n_minim_iter=1 energy=-11286.830615698162 stress="-0.12283276033661236 0.005421644387573911 0.003743569264414325 0.005421644387573911 -0.1299498822838519 0.0020207906133491806 0.003743569264414325 0.0020207906133491806 -0.13148117567206485" free_energy=-11286.830615698162 pbc="T T T"
In      10.05302078       5.42665264       3.74702739        0       0.15772180       0.08513873       0.05878710
In       7.48298383       4.03933851       2.78910648        1      -0.15772180      -0.08513873      -0.05878710
In       4.20768592       2.27132226       1.56831611        2       0.15772180       0.08513873       0.05878710
In       1.63764896       0.88400813       0.61039519        3      -0.15772180      -0.08513873      -0.05878710
O        5.72050577       2.20729052       0.14811097        4      -0.00000000       0.05403927      -0.07826267
O        6.70639738       4.90686541       1.07038102        5      -0.04517710       0.08369181       0.00000000
O        7.78211070       2.03342068       2.34579688        6       0.04517710      -0.02965253      -0.07826267
O        3.90855905       4.27724009       2.01162571        7      -0.04517710       0.02965253       0.07826267
O        5.97016397       4.10337026       4.20931162        8       0.00000000      -0.05403927       0.07826267
O        4.98427236       1.40379536       3.28704156        9       0.04517710      -0.08369181       0.00000000
10
Lattice="5.5477925183948 -0.07764260576890859 -0.05361112825169998 2.979285345432656 4.680586398292222 -0.053611128251697865 2.9792853454326536 1.608227719496801 4.395948906344648" Properties=species:S:1:pos:R:3:spacegroup_kinds:I:1:forces:R:3 spacegroup="P 1" unit_cell=conventional occupancy="_JSON {\"0\": {\"In\": 1}, \"1\": {\"In\": 1}, \"2\": {\"In\": 1}, \"3\": {\"In\": 1}, \"4\": {\"O\": 1}, \"5\": {\"O\": 1}, \"6\": {\"O\": 1}, \"7\": {\"O\": 1}, \"8\": {\"O\": 1}, \"9\": {\"O\": 1}}" n_minim_iter=2 energy=-11286.840485643732 stress="-0.12171622525842969 -0.003388078715533967 -0.0023394207435131244 -0.003388078715533967 -0.11726861348824652 -0.0012628267687614665 -0.0023394207435131244 -0.0012628267687614665 -0.11631168194262084" free_energy=-11286.840485643732 pbc="T T T"
In       9.89674988       5.34229711       3.68878108        0       0.39867044       0.21520357       0.14859504
In       7.36279495       3.97446017       2.74430889        1      -0.39867044      -0.21520357      -0.14859504
In       4.14356827       2.23671136       1.54441776        2       0.39867044       0.21520357       0.14859504
In       1.60961334       0.86887441       0.59994557        3      -0.39867044      -0.21520357      -0.14859504
O        5.65048707       2.16324728       0.10505907        4       0.00000000       0.01171127      -0.01696092
O        6.59733202       4.85981223       1.01857054        5      -0.00979068       0.01813751      -0.00000000
O        7.68292746       1.96181368       2.30303352        6       0.00979068      -0.00642623      -0.01696092
O        3.82343576       4.24935784       1.98569313        7      -0.00979068       0.00642623       0.01696092
O        5.85587615       4.04792425       4.18366758        8      -0.00000000      -0.01171127       0.01696092
O        4.90903120       1.35135929       3.27015612        9       0.00979068      -0.01813751      -0.00000000
10
Lattice="5.563513671865253 -0.06109116148519335 -0.04218258855422759 3.0017489757231957 4.684647221914153 -0.042182588554225436 3.0017489757231925 1.620353658681899 4.395697098909488" Properties=species:S:1:pos:R:3:spacegroup_kinds:I:1:forces:R:3 spacegroup="P 1" unit_cell=conventional occupancy="_JSON {\"0\": {\"In\": 1}, \"1\": {\"In\": 1}, \"2\": {\"In\": 1}, \"3\": {\"In\": 1}, \"4\": {\"O\": 1}, \"5\": {\"O\": 1}, \"6\": {\"O\": 1}, \"7\": {\"O\": 1}, \"8\": {\"O\": 1}, \"9\": {\"O\": 1}}" n_minim_iter=3 energy=-11286.857824937471 stress="-0.11368508168064169 0.004050012838589486 0.0027964769544543966 0.004050012838589486 -0.11900163016857038 0.0015095471673027578 0.0027964769544543966 0.0015095471673027578 -0.120145518890055" free_energy=-11286.857824937471 pbc="T T T"
In       9.96185779       5.37744257       3.71304853        0       0.06443090       0.03478001       0.02401511
In       7.38865965       3.98842202       2.75394936        1      -0.06443090      -0.03478001      -0.02401511
In       4.17835198       2.25548771       1.55738257        2       0.06443090       0.03478001       0.02401511
In       1.60515384       0.86646716       0.59828340        3      -0.06443090      -0.03478001      -0.02401511
O        5.67350975       2.17903685       0.11739601        4      -0.00000000       0.09041768      -0.13094789
O        6.63214723       4.87726419       1.03565039        5      -0.07558963       0.14003183      -0.00000000
O        7.71662124       1.98470496       2.31524456        6       0.07558963      -0.04961415      -0.13094789
O        3.85039039       4.25920477       1.99608737        7      -0.07558963       0.04961415       0.13094789
O        5.89350189       4.06487288       4.19393592        8      -0.00000000      -0.09041768       0.13094789
O        4.93486441       1.36664554       3.27568153        9       0.07558963      -0.14003183       0.00000000
10
Lattice="5.473248545384291 -0.15727710889572946 -0.10859763363895583 2.8718065973289955 4.6619644567576355 -0.1085976336389535 2.871806597328993 1.5502103489142518 4.398017043648491" Properties=species:S:1:pos:R:3:spacegroup_kinds:I:1:forces:R:3 spacegroup="P 1" unit_cell=conventional occupancy="_JSON {\"0\": {\"In\": 1}, \"1\": {\"In\": 1}, \"2\": {\"In\": 1}, \"3\": {\"In\": 1}, \"4\": {\"O\": 1}, \"5\": {\"O\": 1}, \"6\": {\"O\": 1}, \"7\": {\"O\": 1}, \"8\": {\"O\": 1}, \"9\": {\"O\": 1}}" n_minim_iter=4 energy=-11286.891519108563 stress="-0.08516376726057982 0.00042892803372759485 0.0002961687797954543 0.00042892803372759485 -0.0857268313239817 0.00015987285048049357 0.0002961687797954543 0.00015987285048049357 -0.08584797808645117" free_energy=-11286.891519108563 pbc="T T T"
In       9.70247520       5.23742702       3.61636976        0      -0.00810335      -0.00437422      -0.00302034
In       7.12281742       3.84491954       2.65486291        1       0.00810335       0.00437422       0.00302034
In       4.09404433       2.20997817       1.52595887        2      -0.00810335      -0.00437422      -0.00302034
In       1.51438655       0.81747069       0.56445202        3       0.00810335       0.00437422       0.00302034
O        5.54083971       2.10239760       0.02446882        4      -0.00000000       0.05491770      -0.07953485
O        6.41886708       4.79954835       0.93660781        5      -0.04591147       0.08505224       0.00000000
O        7.53461894       1.84402253       2.22347734        6       0.04591147      -0.03013454      -0.07953485
O        3.68224281       4.21087518       1.95734444        7      -0.04591147       0.03013454       0.07953485
O        5.67602204       3.95250011       4.15635296        8      -0.00000000      -0.05491770       0.07953485
O        4.79799467       1.25534935       3.24421397        9       0.04591147      -0.08505224       0.00000000
10
Lattice="5.457818799595484 -0.17400976954812228 -0.12015130069255274 2.849351371011731 4.65824668879071 -0.12015130069255048 2.8493513710117284 1.5380889462206961 4.39863398593261" Properties=species:S:1:pos:R:3:spacegroup_kinds:I:1:forces:R:3 spacegroup="P 1" unit_cell=conventional occupancy="_JSON {\"0\": {\"In\": 1}, \"1\": {\"In\": 1}, \"2\": {\"In\": 1}, \"3\": {\"In\": 1}, \"4\": {\"O\": 1}, \"5\": {\"O\": 1}, \"6\": {\"O\": 1}, \"7\": {\"O\": 1}, \"8\": {\"O\": 1}, \"9\": {\"O\": 1}}" n_minim_iter=5 energy=-11286.893411105862 stress="-0.08053713688710532 -0.00017043257281628996 -0.00011768129791667901 -0.00017043257281628996 -0.0803134059856814 -6.352473803382691e-05 -0.00011768129791667901 -6.352473803382691e-05 -0.08026526888015093" free_energy=-11286.893411105862 pbc="T T T"
In       9.65818663       5.21351991       3.59986224        0      -0.00134680      -0.00072701      -0.00050199
In       7.07659569       3.81996890       2.63763484        1       0.00134680       0.00072701       0.00050199
In       4.07992586       2.20235698       1.52069654        2      -0.00134680      -0.00072701      -0.00050199
In       1.49833492       0.80880596       0.55846915        3       0.00134680       0.00072701       0.00050199
O        5.51803979       2.09012743       0.00693006        4      -0.00000000       0.02837247      -0.04109059
O        6.38129562       4.78774540       0.91943155        5      -0.02371953       0.04394107      -0.00000000
O        7.50413533       1.81912644       2.20624705        6       0.02371953      -0.01556860      -0.04109059
O        3.65238622       4.20319944       1.95208434        7      -0.02371953       0.01556860       0.04109059
O        5.63848176       3.93219844       4.15140133        8       0.00000000      -0.02837247       0.04109059
O        4.77522593       1.23458048       3.23889984        9       0.02371953      -0.04394107      -0.00000000
10
Lattice="5.452406962108739 -0.17989971220999507 -0.12421822333526591 2.841457756126594 4.656954305879871 -0.12421822333526414 2.841457756126591 1.533827947761864 4.398866376775524" Properties=species:S:1:pos:R:3:spacegroup_kinds:I:1:forces:R:3 spacegroup="P 1" unit_cell=conventional occupancy="_JSON {\"0\": {\"In\": 1}, \"1\": {\"In\": 1}, \"2\": {\"In\": 1}, \"3\": {\"In\": 1}, \"4\": {\"O\": 1}, \"5\": {\"O\": 1}, \"6\": {\"O\": 1}, \"7\": {\"O\": 1}, \"8\": {\"O\": 1}, \"9\": {\"O\": 1}}" n_minim_iter=6 energy=-11286.893787661878 stress="-0.07829614119220685 -0.00017397159671209912 -0.0001201249426555298 -0.00017397159671209912 -0.07806776452642233 -6.484382617535472e-05 -0.0001201249426555298 -6.484382617535472e-05 -0.07801862785935298" free_energy=-11286.893787661878 pbc="T T T"
In       9.64367313       5.20568548       3.59445267        0      -0.00618124      -0.00333665      -0.00230391
In       7.05931059       3.81063835       2.63119223        1       0.00618124       0.00333665       0.00230391
In       4.07601189       2.20024421       1.51923771        2      -0.00618124      -0.00333665      -0.00230391
In       1.49164935       0.80519707       0.55597726        3       0.00618124       0.00333665       0.00230391
O        5.51003410       2.08647033      -0.00019063        4      -0.00000000       0.01147779      -0.01662277
O        6.36754680       4.78462114       0.91338926        5      -0.00959549       0.01777591       0.00000000
O        7.49397916       1.81001110       2.19924256        6       0.00959549      -0.00629812      -0.01662277
O        3.64134332       4.20087145       1.95118738        7      -0.00959549       0.00629812       0.01662277
O        5.62528838       3.92441222       4.15062056        8       0.00000000      -0.01147779       0.01662277
O        4.76777568       1.22626141       3.23704067        9       0.00959549      -0.01777591       0.00000000
10
Lattice="5.455418424614675 -0.1766208395566383 -0.12195420784275043 2.8458513652767716 4.657672714494144 -0.12195420784274866 2.845851365276769 1.5361996319762612 4.398736026959306" Properties=species:S:1:pos:R:3:spacegroup_kinds:I:1:forces:R:3 spacegroup="P 1" unit_cell=conventional occupancy="_JSON {\"0\": {\"In\": 1}, \"1\": {\"In\": 1}, \"2\": {\"In\": 1}, \"3\": {\"In\": 1}, \"4\": {\"O\": 1}, \"5\": {\"O\": 1}, \"6\": {\"O\": 1}, \"7\": {\"O\": 1}, \"8\": {\"O\": 1}, \"9\": {\"O\": 1}}" n_minim_iter=7 energy=-11286.893894844463 stress="-0.0785447285104834 5.4630365809926286e-05 3.772149797078689e-05 5.4630365809926286e-05 -0.07861644309141812 2.03621863522188e-05 3.772149797078689e-05 2.03621863522188e-05 -0.07863187293609968" free_energy=-11286.893894844463 pbc="T T T"
In       9.65334202       5.21090478       3.59805652        0      -0.00597877      -0.00322736      -0.00222845
In       7.06733972       3.81497250       2.63418490        1       0.00597877       0.00322736       0.00222845
In       4.07978144       2.20227902       1.52064272        2      -0.00597877      -0.00322736      -0.00222845
In       1.49377914       0.80634674       0.55677109        3       0.00597877       0.00322736       0.00222845
O        5.51448951       2.08999437       0.00161738        4      -0.00000000      -0.00013525       0.00019588
O        6.37395459       4.78866481       0.91675270        5       0.00011307      -0.00020947       0.00000000
O        7.50087578       1.81426819       2.20098540        6      -0.00011307       0.00007422       0.00019588
O        3.64624538       4.20298332       1.95384222        7       0.00011307      -0.00007422      -0.00019588
O        5.63263166       3.92725715       4.15321023        8      -0.00000000       0.00013525      -0.00019588
O        4.77316657       1.22858671       3.23807492        9      -0.00011307       0.00020947      -0.00000000
