10
Lattice="5.402959228995092 -0.17492245705842488 -0.12078149859335754 2.8184857148618168 4.612884625837333 -0.12078149859335578 2.818485714861814 1.5214275667134092 4.356437868366006" Properties=species:S:1:pos:R:3:spacegroup_kinds:I:1:forces:R:3 spacegroup="P 1" unit_cell=conventional occupancy="_JSON {\"0\": {\"In\": 1}, \"1\": {\"In\": 1}, \"2\": {\"In\": 1}, \"3\": {\"In\": 1}, \"4\": {\"O\": 1}, \"5\": {\"O\": 1}, \"6\": {\"O\": 1}, \"7\": {\"O\": 1}, \"8\": {\"O\": 1}, \"9\": {\"O\": 1}}" n_minim_iter=7 energy=-11286.893894844463 stress="-0.0785447285104834 5.4630365809926286e-05 3.772149797078689e-05 5.4630365809926286e-05 -0.07861644309141812 2.03621863522188e-05 3.772149797078689e-05 2.03621863522188e-05 -0.07863187293609968" free_energy=-11286.893894844463 pbc="T T T"
In       9.56051568       5.16079682       3.56345768        0      -0.00597877      -0.00322736      -0.00222845
In       6.99938032       3.77828780       2.60885463        1       0.00597877       0.00322736       0.00222845
In       4.04055035       2.18110195       1.50602025        2      -0.00597877      -0.00322736      -0.00222845
In       1.47941499       0.79859293       0.55141719        3       0.00597877       0.00322736       0.00222845
O        5.46146228       2.06989702       0.00160183        4      -0.00000000      -0.00013525       0.00019588
O        6.31266277       4.74261710       0.90793722        5       0.00011307      -0.00020947       0.00000000
O        7.42874751       1.79682223       2.17982077        6      -0.00011307       0.00007422       0.00019588
O        3.61118316       4.16256752       1.93505411        7       0.00011307      -0.00007422      -0.00019588
O        5.57846838       3.88949272       4.11327304        8      -0.00000000       0.00013525      -0.00019588
O        4.72726789       1.21677264       3.20693765        9      -0.00011307       0.00020947      -0.00000000
