10
Lattice="5.87940641 1.8936522339830572e-15 8.909042059977643e-16 3.226158737651723 4.9152130710094895 4.468149961477016e-16 3.2261587376517222 1.7414907629919851 4.596360457561627" Properties=species:S:1:pos:R:3:spacegroup_kinds:I:1:forces:R:3 spacegroup="P 1" unit_cell=conventional occupancy="_JSON {\"0\": {\"In\": 1}, \"1\": {\"In\": 1}, \"2\": {\"In\": 1}, \"3\": {\"In\": 1}, \"4\": {\"O\": 1}, \"5\": {\"O\": 1}, \"6\": {\"O\": 1}, \"7\": {\"O\": 1}, \"8\": {\"O\": 1}, \"9\": {\"O\": 1}}" n_minim_iter=1 energy=-11287.683130488616 stress="-0.0006085657820853936 -0.0003824329749392771 -0.0002640645952430972 -0.0003824329749392771 -0.00010653689096478009 -0.0001425429094513694 -0.0002640645952430972 -0.0001425429094513694 1.4777714559190328e-06" free_energy=-11287.683130488616 pbc="T T T"
In      10.57093869       5.70622638       3.94006913        0      -0.00620114      -0.00334740      -0.00231133
In       7.92664715       4.27882938       2.95447156        1       0.00620114       0.00334740       0.00231133
In       4.40507675       2.37787446       1.64188890        2      -0.00620114      -0.00334740      -0.00231133
In       1.76078520       0.95047747       0.65629133        3       0.00620114       0.00334740       0.00231133
O        6.02263418       2.30932706       0.21474656        4       0.00000000       0.01774253      -0.02569571
O        7.09636402       5.12094210       1.14909012        5      -0.01483284       0.02747824      -0.00000000
O        8.17506308       2.18091285       2.51292679        6       0.01483284      -0.00973571      -0.02569571
O        4.15666081       4.47579100       2.08343367        7      -0.01483284       0.00973571       0.02569571
O        6.30908971       4.34737678       4.38161390        8       0.00000000      -0.01774253       0.02569571
O        5.23535988       1.53576175       3.44727035        9       0.01483284      -0.02747824      -0.00000000
10
Lattice="5.8829664248520634 0.002237006450372687 0.0015446215196297608 3.2299823441177975 4.9169617668659855 0.0015446215196293132 3.229982344117796 1.7435547579418524 4.5974484454679665" Properties=species:S:1:pos:R:3:spacegroup_kinds:I:1:forces:R:3 spacegroup="P 1" unit_cell=conventional occupancy="_JSON {\"0\": {\"In\": 1}, \"1\": {\"In\": 1}, \"2\": {\"In\": 1}, \"3\": {\"In\": 1}, \"4\": {\"O\": 1}, \"5\": {\"O\": 1}, \"6\": {\"O\": 1}, \"7\": {\"O\": 1}, \"8\": {\"O\": 1}, \"9\": {\"O\": 1}}" n_minim_iter=2 energy=-11287.683210438694 stress="0.00039549340476507174 5.6388284857315556e-08 3.89348902410694e-08 5.6388284857315556e-08 0.0003954193818138447 2.101690786030508e-08 3.89348902410694e-08 2.101690786030508e-08 0.0003954034550148172" free_energy=-11287.683210438694 pbc="T T T"
In      10.58049922       5.71138719       3.94363259        0      -0.01174076      -0.00633770      -0.00437609
In       7.93389746       4.28274312       2.95717394        1       0.01174076       0.00633770       0.00437609
In       4.40903367       2.38001042       1.64336375        2      -0.01174076      -0.00633770      -0.00437609
In       1.76243190       0.95136636       0.65690510        3       0.01174076       0.00633770       0.00437609
O        6.02721600       2.31202672       0.21646364        4      -0.00000000       0.01444973      -0.02092690
O        7.10280017       5.12455382       1.15167905        5      -0.01208005       0.02237861       0.00000000
O        8.18161416       2.18453806       2.51518786        6       0.01208005      -0.00792888      -0.02092690
O        4.16131696       4.47821549       2.08534983        7      -0.01208005       0.00792888       0.02092690
O        6.31571513       4.35072682       4.38407406        8      -0.00000000      -0.01444973       0.02092690
O        5.24013095       1.53819972       3.44885865        9       0.01208005      -0.02237861       0.00000000
10
Lattice="5.882720402074121 0.004880892611985566 0.003370187762408934 3.2320576480573835 4.9153053325023075 0.0033701877624084855 3.2320576480573826 1.7446750136189866 4.595252655376497" Properties=species:S:1:pos:R:3:spacegroup_kinds:I:1:forces:R:3 spacegroup="P 1" unit_cell=conventional occupancy="_JSON {\"0\": {\"In\": 1}, \"1\": {\"In\": 1}, \"2\": {\"In\": 1}, \"3\": {\"In\": 1}, \"4\": {\"O\": 1}, \"5\": {\"O\": 1}, \"6\": {\"O\": 1}, \"7\": {\"O\": 1}, \"8\": {\"O\": 1}, \"9\": {\"O\": 1}}" n_minim_iter=3 energy=-11287.683308070871 stress="2.486716855687803e-05 0.0001982800426568017 0.0001369095838671337 0.0001982800426568017 -0.00023541977529679988 7.390422891186664e-05 0.0001369095838671337 7.390422891186664e-05 -0.00029142214134955663" free_energy=-11287.683308070871 pbc="T T T"
In      10.58362163       5.71307267       3.94479640        0      -0.01382365      -0.00746205      -0.00515244
In       7.93663192       4.28421920       2.95819315        1       0.01382365       0.00746205       0.00515244
In       4.41020378       2.38064205       1.64379988        2      -0.01382365      -0.00746205      -0.00515244
In       1.76321408       0.95178858       0.65719664        3       0.01382365       0.00746205       0.00515244
O        6.02806913       2.31367614       0.21802911        4       0.00000000       0.01122415      -0.01625543
O        7.10485770       5.12526558       1.15386845        5      -0.00938344       0.01738308      -0.00000000
O        8.18333821       2.18705650       2.51565544        6       0.00938344      -0.00615894      -0.01625543
O        4.16349750       4.47780475       2.08633760        7      -0.00938344       0.00615894       0.01625543
O        6.31876658       4.35118511       4.38396393        8      -0.00000000      -0.01122415       0.01625543
O        5.24197801       1.53959567       3.44812459        9       0.00938344      -0.01738308       0.00000000
10
Lattice="5.88240949066543 0.004435162854330832 0.00306241762813045 3.2315144118756987 4.9152899906699306 0.0030624176281300068 3.2315144118756964 1.7443817729977216 4.595347353662725" Properties=species:S:1:pos:R:3:spacegroup_kinds:I:1:forces:R:3 spacegroup="P 1" unit_cell=conventional occupancy="_JSON {\"0\": {\"In\": 1}, \"1\": {\"In\": 1}, \"2\": {\"In\": 1}, \"3\": {\"In\": 1}, \"4\": {\"O\": 1}, \"5\": {\"O\": 1}, \"6\": {\"O\": 1}, \"7\": {\"O\": 1}, \"8\": {\"O\": 1}, \"9\": {\"O\": 1}}" n_minim_iter=4 energy=-11287.683399021029 stress="1.2324586150180975e-05 9.609814484413627e-05 6.63544190812076e-05 9.609814484413627e-05 -0.00011382574421596731 3.581832614626077e-05 6.63544190812076e-05 3.581832614626077e-05 -0.00014096777535538003" free_energy=-11287.683399021029 pbc="T T T"
In      10.58206753       5.71223376       3.94421714        0      -0.00637920      -0.00344351      -0.00237770
In       7.93608995       4.28392664       2.95799115        1       0.00637920       0.00344351       0.00237770
In       4.40934837       2.38018030       1.64348105        2      -0.00637920      -0.00344351      -0.00237770
In       1.76337080       0.95187318       0.65725505        3       0.00637920       0.00344351       0.00237770
O        6.02756433       2.31373502       0.21706387        4       0.00000000       0.00500444      -0.00724771
O        7.10368809       5.12557487       1.15343047        5      -0.00418374       0.00775049      -0.00000000
O        8.18295498       2.18624036       2.51473754        6       0.00418374      -0.00274605      -0.00724771
O        4.16248334       4.47786658       2.08673465        7      -0.00418374       0.00274605       0.00724771
O        6.31787400       4.35037192       4.38440833        8      -0.00000000      -0.00500444       0.00724771
O        5.24175023       1.53853207       3.44804173        9       0.00418374      -0.00775049      -0.00000000
