10
Lattice="5.87940641 8.881784197001252e-16 1.3322676295501878e-15 3.226158737651724 4.915213071009489 1.5543122344752192e-15 3.226158737651723 1.741490762991984 4.596360457561627" Properties=species:S:1:pos:R:3:spacegroup_kinds:I:1:forces:R:3 spacegroup="P 1" unit_cell=conventional occupancy="_JSON {\"0\": {\"In\": 1}, \"1\": {\"In\": 1}, \"2\": {\"In\": 1}, \"3\": {\"In\": 1}, \"4\": {\"O\": 1}, \"5\": {\"O\": 1}, \"6\": {\"O\": 1}, \"7\": {\"O\": 1}, \"8\": {\"O\": 1}, \"9\": {\"O\": 1}}" n_minim_iter=1 energy=-11288.733349584958 stress="-0.024002067419661554 -0.0009888024934150289 -0.0006827542270846723 -0.0009888024934150289 -0.022704042793626304 -0.00036855290647604046 -0.0006827542270846723 -0.00036855290647604046 -0.022424764661079767" free_energy=-11288.733349584958 pbc="T T T"
In      10.57093869       5.70622638       3.94006913        0      -0.70107013      -0.37843989      -0.26130743
In       7.92664715       4.27882938       2.95447156        1       0.70107013       0.37843989       0.26130743
In       4.40507675       2.37787446       1.64188890        2      -0.70107013      -0.37843989      -0.26130743
In       1.76078520       0.95047747       0.65629133        3       0.70107013       0.37843989       0.26130743
O        6.02263418       2.30932706       0.21474656        4      -0.00000000      -0.03468312       0.05023002
O        7.09636402       5.12094210       1.14909012        5       0.02899527      -0.05371451       0.00000000
O        8.17506308       2.18091285       2.51292679        6      -0.02899527       0.01903139       0.05023002
O        4.15666081       4.47579100       2.08343367        7       0.02899527      -0.01903139      -0.05023002
O        6.30908971       4.34737678       4.38161390        8       0.00000000       0.03468312      -0.05023002
O        5.23535988       1.53576175       3.44727035        9      -0.02899527       0.05371451      -0.00000000
10
Lattice="5.946287766823297 0.002770173030772766 0.0019127655513553293 3.265173877683742 4.969606164297404 0.0019127655513555628 3.2651738776837416 1.762551259857695 4.646547335739609" Properties=species:S:1:pos:R:3:spacegroup_kinds:I:1:forces:R:3 spacegroup="P 1" unit_cell=conventional occupancy="_JSON {\"0\": {\"In\": 1}, \"1\": {\"In\": 1}, \"2\": {\"In\": 1}, \"3\": {\"In\": 1}, \"4\": {\"O\": 1}, \"5\": {\"O\": 1}, \"6\": {\"O\": 1}, \"7\": {\"O\": 1}, \"8\": {\"O\": 1}, \"9\": {\"O\": 1}}" n_minim_iter=2 energy=-11288.791798247654 stress="-0.0023264030754980994 -0.00430330428939743 -0.0029713711418061536 -0.00430330428939743 0.0033226471422410017 -0.001603955607203801 -0.0029713711418061536 -0.001603955607203801 0.004538075697051179" free_energy=-11288.791798247654 pbc="T T T"
In      10.69264258       5.77192253       3.98543140        0      -0.57360451      -0.30963354      -0.21379761
In       8.02231071       4.33046888       2.99012791        1       0.57360451       0.30963354       0.21379761
In       4.45432482       2.40445873       1.66024496        2      -0.57360451      -0.30963354      -0.21379761
In       1.78399295       0.96300508       0.66494147        3       0.57360451       0.30963354       0.21379761
O        6.09230277       2.33691956       0.21957301        4      -0.00000000       0.02482160      -0.03594802
O        7.17997951       5.17938095       1.16450598        5      -0.02075098       0.03844176      -0.00000000
O        8.26979991       2.20873431       2.54284668        6       0.02075098      -0.01362015      -0.03594802
O        4.20683563       4.52619330       2.10752619        7      -0.02075098       0.01362015       0.03594802
O        6.38433276       4.39800805       4.43079986        8       0.00000000      -0.02482160       0.03594802
O        5.29665602       1.55554666       3.48586689        9       0.02075098      -0.03844176      -0.00000000
10
Lattice="6.0056293119390265 0.05507057495163428 0.038025458153923136 3.3414592766074285 4.990517618786744 0.0380254581539233 3.3414592766074276 1.803730361191518 4.653307299438178" Properties=species:S:1:pos:R:3:spacegroup_kinds:I:1:forces:R:3 spacegroup="P 1" unit_cell=conventional occupancy="_JSON {\"0\": {\"In\": 1}, \"1\": {\"In\": 1}, \"2\": {\"In\": 1}, \"3\": {\"In\": 1}, \"4\": {\"O\": 1}, \"5\": {\"O\": 1}, \"6\": {\"O\": 1}, \"7\": {\"O\": 1}, \"8\": {\"O\": 1}, \"9\": {\"O\": 1}}" n_minim_iter=3 energy=-11288.831223490142 stress="0.0047166865153269255 0.000505845238606904 0.00034927902936209866 0.000505845238606904 0.0040526514005913275 0.0001885419327359261 0.00034927902936209866 0.0001885419327359261 0.003909780084344684" free_energy=-11288.831223490142 pbc="T T T"
In      10.86443735       5.86465789       4.04946386        0      -0.49068136      -0.26487136      -0.18288995
In       8.16838445       4.40931995       3.04457346        1       0.49068136       0.26487136       0.18288995
In       4.52016342       2.43999862       1.68478476        2      -0.49068136      -0.26487136      -0.18288995
In       1.82411052       0.98466067       0.67989436        3       0.49068136       0.26487136       0.18288995
O        6.17495163       2.38785480       0.26289747        4       0.00000000       0.01823242      -0.02640519
O        7.30395851       5.23867980       1.22036501        5      -0.01524239       0.02823694       0.00000000
O        8.38740402       2.28616392       2.58955112        6       0.01524239      -0.01000452      -0.02640519
O        4.30114385       4.56315465       2.13980710        7      -0.01524239       0.01000452       0.02640519
O        6.51359625       4.46146377       4.46646075        8       0.00000000      -0.01823242       0.02640519
O        5.38458937       1.61063877       3.50899321        9       0.01524239      -0.02823694      -0.00000000
10
Lattice="6.02138108678912 0.0847204338842642 0.05849826910791431 3.3748900494676093 4.987416655771181 0.05849826910791447 3.374890049467609 1.8217763988697708 4.643153852531003" Properties=species:S:1:pos:R:3:spacegroup_kinds:I:1:forces:R:3 spacegroup="P 1" unit_cell=conventional occupancy="_JSON {\"0\": {\"In\": 1}, \"1\": {\"In\": 1}, \"2\": {\"In\": 1}, \"3\": {\"In\": 1}, \"4\": {\"O\": 1}, \"5\": {\"O\": 1}, \"6\": {\"O\": 1}, \"7\": {\"O\": 1}, \"8\": {\"O\": 1}, \"9\": {\"O\": 1}}" n_minim_iter=4 energy=-11288.874694984674 stress="0.004822553798021851 0.0034935308984636137 0.0024122339943794917 0.0034935308984636137 0.0002365124320752428 0.0013021315939321417 0.0024122339943794917 0.0013021315939321417 -0.0007502031066457827" free_energy=-11288.874694984674 pbc="T T T"
In      10.91303319       5.89089008       4.06757682        0      -0.24670011      -0.13316950      -0.09195167
In       8.24370860       4.44998016       3.07264877        1       0.24670011       0.13316950       0.09195167
In       4.52745260       2.44393334       1.68750163        2      -0.24670011      -0.13316950      -0.09195167
In       1.85812800       1.00302342       0.69257357        3       0.24670011       0.13316950       0.09195167
O        6.20348084       2.41006186       0.28628692        4      -0.00000000      -0.03996264       0.05787610
O        7.35235201       5.25726957       1.24853587        5       0.03340896      -0.06189101      -0.00000000
O        8.42949973       2.32322742       2.60786384        6      -0.03340896       0.02192837       0.05787610
O        4.34166147       4.57068608       2.15228655        7       0.03340896      -0.02192837      -0.05787610
O        6.56768035       4.48385164       4.47386348        8      -0.00000000       0.03996264      -0.05787610
O        5.41880919       1.63664393       3.51161453        9      -0.03340896       0.06189101      -0.00000000
10
Lattice="5.992727343521709 0.07034185594 0.04857006308477579 3.347146551725163 4.971351823374022 0.04857006308477601 3.347146551725163 1.8068003704159663 4.631648780321863" Properties=species:S:1:pos:R:3:spacegroup_kinds:I:1:forces:R:3 spacegroup="P 1" unit_cell=conventional occupancy="_JSON {\"0\": {\"In\": 1}, \"1\": {\"In\": 1}, \"2\": {\"In\": 1}, \"3\": {\"In\": 1}, \"4\": {\"O\": 1}, \"5\": {\"O\": 1}, \"6\": {\"O\": 1}, \"7\": {\"O\": 1}, \"8\": {\"O\": 1}, \"9\": {\"O\": 1}}" n_minim_iter=5 energy=-11288.894531491875 stress="0.0008273408929346203 0.001832044948087526 0.0012650012929343718 0.001832044948087526 -0.00157762822314046 0.0006828517272617101 0.0012650012929343718 0.0006828517272617101 -0.0020950723995163947" free_energy=-11288.894531491875 pbc="T T T"
In      10.82427886       5.84298021       4.03449573        0      -0.07013769      -0.03786055      -0.02614218
In       8.20625182       4.42976087       3.05868764        1       0.07013769       0.03786055       0.02614218
In       4.48076864       2.41873319       1.67010128        2      -0.07013769      -0.03786055      -0.02614218
In       1.86274160       1.00551385       0.69429318        3       0.07013769       0.03786055       0.02614218
O        6.16811879       2.39076162       0.27457746        4      -0.00000000      -0.08342954       0.12082728
O        7.30375030       5.22952202       1.23076729        5       0.06974751      -0.12920915       0.00000000
O        8.37963383       2.29761014       2.59040185        6      -0.06974751       0.04577961       0.12082728
O        4.30738663       4.55088392       2.13838706        7       0.06974751      -0.04577961      -0.12082728
O        6.51890167       4.45773245       4.45421145        8       0.00000000       0.08342954      -0.12082728
O        5.38327015       1.61897204       3.49802162        9      -0.06974751       0.12920915      -0.00000000
10
Lattice="5.974837706749955 0.055929830774051406 0.03861876222506328 3.3252815923235897 4.964304190893762 0.03861876222506372 3.3252815923235906 1.7949975956837005 4.628584139886723" Properties=species:S:1:pos:R:3:spacegroup_kinds:I:1:forces:R:3 spacegroup="P 1" unit_cell=conventional occupancy="_JSON {\"0\": {\"In\": 1}, \"1\": {\"In\": 1}, \"2\": {\"In\": 1}, \"3\": {\"In\": 1}, \"4\": {\"O\": 1}, \"5\": {\"O\": 1}, \"6\": {\"O\": 1}, \"7\": {\"O\": 1}, \"8\": {\"O\": 1}, \"9\": {\"O\": 1}}" n_minim_iter=6 energy=-11288.9002792909 stress="-0.0003381210364142354 0.00038526611890851205 0.00026602084126063294 0.00038526611890851205 -0.0008438690629417853 0.0001435988973857838 0.00026602084126063294 0.0001435988973857838 -0.0009526839201812826" free_energy=-11288.9002792909 pbc="T T T"
In      10.76435290       5.81063198       4.01215973        0      -0.01557728      -0.00840866      -0.00580606
In       8.17374845       4.41221545       3.04657277        1       0.01557728       0.00840866       0.00580606
In       4.45165245       2.40301618       1.65924890        2      -0.01557728      -0.00840866      -0.00580606
In       1.86104801       1.00459964       0.69366194        3       0.01557728       0.00840866       0.00580606
O        6.14376908       2.37457863       0.26481782        4       0.00000000      -0.08321378       0.12051481
O        7.26902102       5.20945232       1.21507418        5       0.06956714      -0.12887501       0.00000000
O        8.34379874       2.27655003       2.57910989        6      -0.06956714       0.04566122       0.12051481
O        4.28160217       4.53868159       2.12671178        7       0.06956714      -0.04566122      -0.12051481
O        6.48163182       4.44065300       4.44100385        8       0.00000000       0.08321378      -0.12051481
O        5.35637988       1.60577931       3.49074749        9      -0.06956714       0.12887501       0.00000000
10
Lattice="5.962656212151774 0.04594684692006484 0.03172565215449589 3.3102515158498713 4.959598282005073 0.031725652154496416 3.3102515158498713 1.7868843125273064 4.6266257779850894" Properties=species:S:1:pos:R:3:spacegroup_kinds:I:1:forces:R:3 spacegroup="P 1" unit_cell=conventional occupancy="_JSON {\"0\": {\"In\": 1}, \"1\": {\"In\": 1}, \"2\": {\"In\": 1}, \"3\": {\"In\": 1}, \"4\": {\"O\": 1}, \"5\": {\"O\": 1}, \"6\": {\"O\": 1}, \"7\": {\"O\": 1}, \"8\": {\"O\": 1}, \"9\": {\"O\": 1}}" n_minim_iter=7 energy=-11288.903953564492 stress="5.845164461167151e-05 -0.0003408589229731613 -0.00023535829665385894 -0.0003408589229731613 0.0005059052857689794 -0.0001270471581720855 -0.00023535829665385894 -0.0001270471581720855 0.0006021777406943885" free_energy=-11288.903953564492 pbc="T T T"
In      10.72174467       5.78763193       3.99627852        0       0.02040915       0.01101692       0.00760703
In       8.15299421       4.40101225       3.03883711        1      -0.02040915      -0.01101692      -0.00760703
In       4.43016505       2.39141721       1.65123998        2       0.02040915       0.01101692       0.00760703
In       1.86141459       1.00479753       0.69379857        3      -0.02040915      -0.01101692      -0.00760703
O        6.12711792       2.36177136       0.26049852        4      -0.00000000      -0.06298864       0.09122364
O        7.24662317       5.19313142       1.20424493        5       0.05265882      -0.09755189      -0.00000000
O        8.31786419       2.26296203       2.57381141        6      -0.05265882       0.03456325       0.09122364
O        4.26529506       4.52946742       2.11626568        7       0.05265882      -0.03456325      -0.09122364
O        6.45604133       4.43065809       4.42957857        8      -0.00000000       0.06298864      -0.09122364
O        5.33653609       1.59929803       3.48583216        9      -0.05265882       0.09755189      -0.00000000
10
Lattice="5.952292478937017 0.03994575483790264 0.027581982398941204 3.29954776613102 4.95422707969261 0.02758198239894165 3.2995477661310186 1.781106394334004 4.623071136698542" Properties=species:S:1:pos:R:3:spacegroup_kinds:I:1:forces:R:3 spacegroup="P 1" unit_cell=conventional occupancy="_JSON {\"0\": {\"In\": 1}, \"1\": {\"In\": 1}, \"2\": {\"In\": 1}, \"3\": {\"In\": 1}, \"4\": {\"O\": 1}, \"5\": {\"O\": 1}, \"6\": {\"O\": 1}, \"7\": {\"O\": 1}, \"8\": {\"O\": 1}, \"9\": {\"O\": 1}}" n_minim_iter=8 energy=-11288.906169752086 stress="0.00014373882631448797 -0.0005524580539556081 -0.00038146452315220144 -0.0005524580539556081 0.0008689636958056038 -0.0002059157646810397 -0.00038146452315220144 -0.0002059157646810397 0.0010250003707448943" free_energy=-11288.906169752086 pbc="T T T"
In      10.69044939       5.77073863       3.98461394        0       0.02301404       0.01242305       0.00857794
In       8.13663264       4.39218022       3.03273872        1      -0.02301404      -0.01242305      -0.00857794
In       4.41475538       2.38309902       1.64549638        2       0.02301404       0.01242305       0.00857794
In       1.86093863       1.00454061       0.69362117        3      -0.02301404      -0.01242305      -0.00857794
O        6.11399325       2.35130057       0.26007554        4       0.00000000      -0.03165802       0.04584890
O        7.23080736       5.17822861       1.19714076        5       0.02646626      -0.04902946       0.00000000
O        8.29672690       2.25453139       2.57161111        6      -0.02646626       0.01737145       0.04584890
O        4.25466112       4.52074785       2.10662400        7       0.02646626      -0.01737145      -0.04584890
O        6.43739477       4.42397867       4.41815957        8       0.00000000       0.03165802      -0.04584890
O        5.32058066       1.59705063       3.48109435        9      -0.02646626       0.04902946       0.00000000
10
Lattice="5.947971950459526 0.039659517358674456 0.02738433944173517 3.296937701810216 4.950772161103031 0.027384339441735607 3.2969377018102137 1.779697473299695 4.619910366741992" Properties=species:S:1:pos:R:3:spacegroup_kinds:I:1:forces:R:3 spacegroup="P 1" unit_cell=conventional occupancy="_JSON {\"0\": {\"In\": 1}, \"1\": {\"In\": 1}, \"2\": {\"In\": 1}, \"3\": {\"In\": 1}, \"4\": {\"O\": 1}, \"5\": {\"O\": 1}, \"6\": {\"O\": 1}, \"7\": {\"O\": 1}, \"8\": {\"O\": 1}, \"9\": {\"O\": 1}}" n_minim_iter=9 energy=-11288.906928814591 stress="-0.00014046381158416672 -0.0003460220606529785 -0.00023892337033643937 -0.0003460220606529785 0.0003137676028509606 -0.00012897159639321112 -0.00023892337033643937 -0.00012897159639321112 0.0004114983386052763" free_energy=-11288.906928814591 pbc="T T T"
In      10.68077501       5.76551638       3.98100804        0       0.01217343       0.00657126       0.00453736
In       8.13199603       4.38967736       3.03101053        1      -0.01217343      -0.00657126      -0.00453736
In       4.40985134       2.38045180       1.64366852        2       0.01217343       0.00657126       0.00453736
In       1.86107235       1.00461279       0.69367101        3      -0.01217343      -0.00657126      -0.00453736
O        6.10944782       2.34727054       0.26285229        4       0.00000000      -0.00799386       0.01157714
O        7.22713001       5.17104478       1.19605410        5       0.00668290      -0.01238026       0.00000000
O        8.28870333       2.25382263       2.57280748        6      -0.00668290       0.00438640       0.01157714
O        4.25314403       4.51630653       2.10187158        7       0.00668290      -0.00438640      -0.01157714
O        6.43239955       4.42285862       4.41182676        8       0.00000000       0.00799386      -0.01157714
O        5.31471735       1.59908439       3.47862495        9      -0.00668290       0.01238026      -0.00000000
10
Lattice="5.949669583091747 0.041896249737370335 0.028928771718723757 3.299739149341699 4.950964046527796 0.0289287717187242 3.2997391493416957 1.7812097036007477 4.619542602427495" Properties=species:S:1:pos:R:3:spacegroup_kinds:I:1:forces:R:3 spacegroup="P 1" unit_cell=conventional occupancy="_JSON {\"0\": {\"In\": 1}, \"1\": {\"In\": 1}, \"2\": {\"In\": 1}, \"3\": {\"In\": 1}, \"4\": {\"O\": 1}, \"5\": {\"O\": 1}, \"6\": {\"O\": 1}, \"7\": {\"O\": 1}, \"8\": {\"O\": 1}, \"9\": {\"O\": 1}}" n_minim_iter=10 energy=-11288.907047945106 stress="-0.0002041993868383295 -0.00013854368251861653 -9.56624660246172e-05 -0.00013854368251861653 -2.2329788956004506e-05 -5.163890392612102e-05 -9.56624660246172e-05 -5.163890392612102e-05 1.6800594713887604e-05" free_energy=-11288.907047945106 pbc="T T T"
In      10.68751580       5.76915508       3.98352051        0       0.00519384       0.00280365       0.00193588
In       8.13620603       4.39194994       3.03257971        1      -0.00519384      -0.00280365      -0.00193588
In       4.41294186       2.38212008       1.64482044        2       0.00519384       0.00280365       0.00193588
In       1.86163209       1.00491494       0.69387964        3      -0.00519384      -0.00280365      -0.00193588
O        6.11212177       2.34873882       0.26522486        4      -0.00000000      -0.00167328       0.00242333
O        7.23173580       5.17226039       1.19827881        5       0.00139887      -0.00259144       0.00000000
O        8.29224689       2.25703093       2.57499616        6      -0.00139887       0.00091816       0.00242333
O        4.25690100       4.51703908       2.10240399        7       0.00139887      -0.00091816      -0.00242333
O        6.43702612       4.42533119       4.41217529        8      -0.00000000       0.00167328      -0.00242333
O        5.31741210       1.60180962       3.47912134        9      -0.00139887       0.00259144       0.00000000
