10
Lattice="5.899669995811004 0.04154416376583323 0.02868566130288422 3.2720089378909534 4.909357339548357 0.02868566130288378 3.2720089378909503 1.7662408471295268 4.580721081278896" Properties=species:S:1:pos:R:3:spacegroup_kinds:I:1:forces:R:3 spacegroup="P 1" unit_cell=conventional occupancy="_JSON {\"0\": {\"In\": 1}, \"1\": {\"In\": 1}, \"2\": {\"In\": 1}, \"3\": {\"In\": 1}, \"4\": {\"O\": 1}, \"5\": {\"O\": 1}, \"6\": {\"O\": 1}, \"7\": {\"O\": 1}, \"8\": {\"O\": 1}, \"9\": {\"O\": 1}}" n_minim_iter=1 energy=-11288.9070479451 stress="-0.00020419938709345675 -0.00013854368273270742 -9.566246597352827e-05 -0.00013854368273270742 -2.2329789006575097e-05 -5.1638904086014416e-05 -9.566246597352827e-05 -5.1638904086014416e-05 1.6800594715405972e-05" free_energy=-11288.9070479451 pbc="T T T"
In      10.59770050       5.72067249       3.95004396        0       0.00519384       0.00280365       0.00193588
In       8.06783132       4.35504105       3.00709465        1      -0.00519384      -0.00280365      -0.00193588
In       4.37585656       2.36210131       1.63099776        2       0.00519384       0.00280365       0.00193588
In       1.84598739       0.99646987       0.68804844        3      -0.00519384      -0.00280365      -0.00193588
O        6.06075697       2.32900058       0.26299597        4      -0.00000000      -0.00167328       0.00242333
O        7.17096203       5.12879397       1.18820876        5       0.00139887      -0.00259144       0.00000000
O        8.22256085       2.23806339       2.55335652        6      -0.00139887       0.00091816       0.00242333
O        4.22112704       4.47907898       2.08473589        7       0.00139887      -0.00091816      -0.00242333
O        6.38293091       4.38814178       4.37509643        8      -0.00000000       0.00167328      -0.00242333
O        5.27272585       1.58834840       3.44988364        9      -0.00139887       0.00259144       0.00000000
