80
Lattice="11.764506402117998 0.01526581519990899 0.0105466801006875 6.468203969902034 9.826808643969605 0.010547149196541481 6.46820852014741 3.4915597599805444 9.185611645176913" Properties=species:S:1:pos:R:3:spacegroup_kinds:I:1:forces:R:3 spacegroup="P 1" unit_cell=conventional occupancy="_JSON {\"0\": {\"In\": 1}, \"1\": {\"In\": 1}, \"2\": {\"In\": 1}, \"3\": {\"In\": 1}, \"4\": {\"O\": 1}, \"5\": {\"O\": 1}, \"6\": {\"O\": 1}, \"7\": {\"O\": 1}, \"8\": {\"O\": 1}, \"9\": {\"O\": 1}}" n_minim_iter=4 energy=-90314.91551395903 stress="-0.0017208932493594253 0.0010274720857450777 0.0006865678571888151 0.0010274720857450777 -0.0029880043367780523 0.0003580980479671806 0.0006865678571888151 0.0003580980479671806 -0.0033227909427328245" pbc="T T T"
In      10.58603397       5.71437697       3.94568595        0       0.00965494       0.00517096       0.00392568
In      16.46828717       5.72200988       3.95095929        0       0.00964513       0.00516035       0.00390850
In      13.82013595      10.62778129       3.95095952        0       0.00922735       0.00498618       0.00344622
In      19.70238916      10.63541420       3.95623286        0       0.00964831       0.00517320       0.00390955
In      13.82013823       7.46015685       8.53849177        0      -0.00533208      -0.01492936       0.01024208
In      19.70239143       7.46778976       8.54376511        0       0.00988451       0.00505843       0.00395177
In      17.05424022      12.37356117       8.54376535        0       0.01210882       0.00946077       0.00522461
In      22.93649342      12.38119408       8.54903869        0       0.00964004       0.00515849       0.00390712
In       7.93967373       4.28583926       2.95931508        1      -0.00834315      -0.00353544      -0.00054467
In      13.82192693       4.29347217       2.96458842        1      -0.00996890      -0.00501586      -0.00340364
In      11.17377571       9.19924358       2.96458865        1      -0.00926024      -0.00321027      -0.00544137
In      17.05602892       9.20687649       2.96986199        1      -0.00995936      -0.00500045      -0.00340351
In      11.17377799       6.03161914       7.55212090        1      -0.01771290      -0.01242915      -0.00697971
In      17.05603119       6.03925205       7.55739424        1      -0.00934600      -0.00501440      -0.00365083
In      14.40787998      10.94502346       7.55739448        1      -0.00992800      -0.00491718      -0.00343403
In      20.29013318      10.95265637       7.56266782        1      -0.00996377      -0.00501415      -0.00340294
In       4.41078572       2.38097786       1.64403766        2      -0.00467683      -0.00115668       0.01240951
In      10.29303892       2.38861077       1.64931100        2       0.01186926       0.00493969       0.00406787
In       7.64488770       7.29438218       1.64931123        2       0.01000920       0.00510613       0.00345841
In      13.52714091       7.30201509       1.65458457        2       0.00995738       0.00495867       0.00341228
In       7.64488998       4.12675774       6.23684348        2       0.00995977       0.00500228       0.00340355
In      13.52714318       4.13439065       6.24211682        2       0.00883088       0.00510915       0.00520192
In      10.87899197       9.04016206       6.24211706        2       0.00997051       0.00487173       0.00349548
In      16.76124517       9.04779497       6.24739040        2       0.00995995       0.00500432       0.00340459
In       1.76442549       0.95244015       0.65766679        3      -0.00674529      -0.00435510      -0.00419843
In       7.64667869       0.96007306       0.66294013        3      -0.01111640      -0.01416277      -0.00309221
In       4.99852747       5.86584447       0.66294036        3      -0.01183313      -0.00026877      -0.00320600
In      10.88078068       5.87347738       0.66821370        3      -0.00965106      -0.00517171      -0.00390606
In       4.99852975       2.69822003       5.25047261        3      -0.00965761      -0.00518084      -0.00390762
In      10.88078295       2.70585294       5.25574595        3      -0.00962099      -0.00513385      -0.00384010
In       8.23263174       7.61162435       5.25574619        3      -0.00964920      -0.00517151      -0.00390703
In      14.11488494       7.61925726       5.26101953        3      -0.00973851      -0.00526788      -0.00373976
O        6.02292027       2.30630955       0.21988025        4       0.05947551       0.06218146      -0.02713967
O       11.91099237       2.32278281       0.22516308        4      -0.00005319       0.00326964      -0.00467504
O        9.26284115       7.22855422       0.22516331        4      -0.00013310       0.00301647      -0.00469332
O       15.14509436       7.23618713       0.23043665        4       0.00005600       0.00316530      -0.00468962
O        9.26284343       4.06092978       4.81269556        4      -0.00005847       0.00318700      -0.00480993
O       15.14509663       4.06856269       4.81796890        4       0.00000828       0.00325137      -0.00468855
O       12.49694542       8.97433410       4.81796914        4       0.00001992       0.00319879      -0.00464261
O       18.37919862       8.98196701       4.82324248        4       0.00000797       0.00324245      -0.00469138
O        7.10688217       5.12556915       1.15611094        5      -0.00696786      -0.00747023      -0.00493540
O       12.98913537       5.13320206       1.16138428        5      -0.00270747       0.00507897       0.00001635
O       10.34098415      10.03897347       1.16138451        5      -0.01273110      -0.00372560       0.00493465
O       16.22323736      10.04660638       1.16665785        5      -0.00293377       0.00496128      -0.00001314
O       10.34098643       6.87134903       5.74891676        5      -0.00286486       0.00491770      -0.00010119
O       16.22323963       6.87898194       5.75419010        5      -0.00272708       0.00506209       0.00003399
O       13.57508842      11.78475335       5.75419034        5      -0.00269296       0.00506966      -0.00002396
O       19.45734162      11.79238626       5.75946368        5      -0.00271668       0.00505672      -0.00001405
O        8.18470379       2.18968875       2.51629286        6      -0.00013271       0.00053247      -0.00913001
O       14.06695699       2.19732166       2.52156620        6       0.00168392      -0.00198250      -0.00413854
O       11.41880577       7.10309307       2.52156643        6       0.00272492      -0.00193439      -0.00468818
O       17.30105898       7.11072598       2.52683977        6       0.00272529      -0.00181577      -0.00475716
O       11.41880805       3.93546863       7.10909868        6      -0.00007794      -0.00693520      -0.01363613
O       17.30106125       3.94310154       7.11437202        6       0.00272487      -0.00176862      -0.00473148
O       14.65291004       8.84887295       7.11437226        6       0.00171206      -0.00330098      -0.00374049
O       20.53516324       8.85650586       7.11964560        6       0.00272614      -0.00178802      -0.00475470
O        4.16575567       4.47712837       2.08705988        7      -0.00048584       0.00076518       0.00301978
O       10.04800887       4.48476128       2.09233322        7      -0.00196680       0.00222234       0.00511850
O        7.39985765       9.39053269       2.09233345        7      -0.00274903       0.00175977       0.00476270
O       13.28211086       9.39816560       2.09760679        7      -0.00046960      -0.00310482       0.00865442
O        7.39985993       6.22290825       6.67986570        7      -0.00276507       0.00180974       0.00473309
O       13.28211313       6.23054116       6.68513904        7      -0.00196683       0.00448567       0.00975872
O       10.63396192      11.13631257       6.68513928        7      -0.00270617       0.00179132       0.00473824
O       16.51621512      11.14394548       6.69041262        7      -0.00276577       0.00173070       0.00469749
O        6.32172028       4.35166723       4.38346300        8      -0.00005943      -0.00295975       0.00563775
O       12.20397348       4.35930014       4.38873634        8      -0.00000610      -0.00322500       0.00474109
O        9.55582226       9.26507155       4.38873657        8      -0.00005776      -0.00328676       0.00478230
O       15.43807547       9.27270446       4.39400991        8       0.00001335      -0.00322129       0.00470820
O        9.55582454       6.09744711       8.97626882        8      -0.00782995       0.00031526       0.00329337
O       15.43807774       6.10508002       8.98154216        8      -0.01129091      -0.00177808       0.00644832
O       12.78992653      11.01085143       8.98154240        8       0.00001306      -0.00318368       0.00471008
O       18.67217973      11.01848434       8.98681574        8       0.00001413      -0.00127736       0.00488573
O        5.24357729       1.54124797       3.44724180        9       0.00230345      -0.00513851       0.00406333
O       11.12583049       1.54888088       3.45251514        9       0.00270095      -0.00505381      -0.00002311
O        8.47767927       6.45465229       3.45251537        9       0.00268403      -0.00515295      -0.00003775
O       14.35993248       6.46228520       3.45778871        9       0.00271496      -0.00502882      -0.00001001
O        8.47768155       3.28702785       8.04004762        9       0.00375316      -0.00436870       0.00030870
O       14.35993475       3.29466076       8.04532096        9       0.00553680      -0.00725954      -0.00162416
O       11.71178354       8.20043217       8.04532120        9       0.00782216      -0.01041591       0.00500161
O       17.59403674       8.20806508       8.05059454        9       0.00263282      -0.00512003       0.00002997
