80
Lattice="11.764506402117998 0.01526581519990899 0.0105466801006875 6.468203969902034 9.826808643969605 0.010547149196541481 6.46820852014741 3.4915597599805444 9.185611645176913" Properties=species:S:1:pos:R:3:spacegroup_kinds:I:1:forces:R:3 spacegroup="P 1" unit_cell=conventional occupancy="_JSON {\"0\": {\"In\": 1}, \"1\": {\"In\": 1}, \"2\": {\"In\": 1}, \"3\": {\"In\": 1}, \"4\": {\"O\": 1}, \"5\": {\"O\": 1}, \"6\": {\"O\": 1}, \"7\": {\"O\": 1}, \"8\": {\"O\": 1}, \"9\": {\"O\": 1}}" n_minim_iter=4 energy=-90314.91514835655 stress="-0.0017325087743002288 0.0009765670442736176 0.0006888522421103614 0.0009765670442736176 -0.0030122818684009236 0.0003371803169011694 0.0006888522421103614 0.0003371803169011694 -0.0033039929647979177" pbc="T T T"
In      10.57545044       5.71436324       3.94567646        0       0.14694506      -0.00350467      -0.00223320
In      16.46828717       5.72200988       3.95095929        0       0.00964175       0.00517208       0.00390693
In      13.82013595      10.62778129       3.95095952        0       0.00964055       0.00517282       0.00390599
In      19.70238916      10.63541420       3.95623286        0       0.00964411       0.00518539       0.00390637
In      13.82013823       7.46015685       8.53849177        0       0.00964808       0.00516647       0.00390447
In      19.70239143       7.46778976       8.54376511        0       0.00964278       0.00517598       0.00392065
In      17.05424022      12.37356117       8.54376535        0       0.00964464       0.00517594       0.00390829
In      22.93649342      12.38119408       8.54903869        0       0.00965041       0.00517223       0.00390703
In       7.93967373       4.28583926       2.95931508        1      -0.02383179      -0.01580322      -0.01086217
In      13.82192693       4.29347217       2.96458842        1      -0.02392194       0.00196306       0.00139921
In      11.17377571       9.19924358       2.96458865        1      -0.00855677      -0.00818200      -0.00250885
In      17.05602892       9.20687649       2.96986199        1      -0.00996001      -0.00500885      -0.00340165
In      11.17377799       6.03161914       7.55212090        1      -0.00855687      -0.00530221      -0.00669645
In      17.05603119       6.03925205       7.55739424        1      -0.00996005      -0.00499960      -0.00340091
In      14.40787998      10.94502346       7.55739448        1      -0.00996156      -0.00499861      -0.00340448
In      20.29013318      10.95265637       7.56266782        1      -0.00996411      -0.00500545      -0.00340636
In       4.41078572       2.38097786       1.64403766        2       0.00995668       0.00499739       0.00340076
In      10.29303892       2.38861077       1.64931100        2       0.01062530       0.00431431       0.00293207
In       7.64488770       7.29438218       1.64931123        2       0.00468148       0.00825357      -0.00130039
In      13.52714091       7.30201509       1.65458457        2       0.00462590       0.00173814       0.00810437
In       7.64488998       4.12675774       6.23684348        2       0.00467191       0.00175144       0.00810796
In      13.52714318       4.13439065       6.24211682        2       0.00461599       0.00824472      -0.00129758
In      10.87899197       9.04016206       6.24211706        2       0.01061878       0.00431185       0.00291584
In      16.76124517       9.04779497       6.24739040        2       0.00995656       0.00499741       0.00340078
In       1.76442549       0.95244015       0.65766679        3      -0.00964616      -0.00517039      -0.00390581
In       7.64667869       0.96007306       0.66294013        3      -0.00965442      -0.00516820      -0.00391341
In       4.99852747       5.86584447       0.66294036        3      -0.00965740      -0.00517474      -0.00390288
In      10.88078068       5.87347738       0.66821370        3      -0.00501420      -0.00530072      -0.00119042
In       4.99852975       2.69822003       5.25047261        3      -0.00964741      -0.00517579      -0.00390632
In      10.88078295       2.70585294       5.25574595        3      -0.00502261      -0.00269282      -0.00497836
In       8.23263174       7.61162435       5.25574619        3      -0.02038861       0.00744126       0.00478041
In      14.11488494       7.61925726       5.26101953        3      -0.01798540      -0.00978188      -0.00709006
O        6.02873917       2.31514990       0.21988974        4       0.00001895       0.00324144      -0.00465859
O       11.91099237       2.32278281       0.22516308        4      -0.00000542       0.00324577      -0.00469047
O        9.26284115       7.22855422       0.22516331        4      -0.00004756       0.00276925      -0.00356632
O       15.14509436       7.23618713       0.23043665        4       0.00001042       0.00323912      -0.00469241
O        9.26284343       4.06092978       4.81269556        4      -0.01584855      -0.00482858      -0.00044919
O       15.14509663       4.06856269       4.81796890        4       0.00107035       0.00286279      -0.00448165
O       12.49694542       8.97433410       4.81796914        4       0.00073595       0.00564801      -0.00403369
O       18.37919862       8.98196701       4.82324248        4       0.00000433       0.00323359      -0.00469836
O        7.10688217       5.12556915       1.15611094        5      -0.00043536       0.00549428       0.00196122
O       12.98913537       5.13320206       1.16138428        5       0.00018886       0.00413378      -0.00450965
O       10.34098415      10.03897347       1.16138451        5      -0.00272391       0.00505881       0.00000177
O       16.22323736      10.04660638       1.16665785        5      -0.00271136       0.00506140       0.00000353
O       10.34098643       6.87134903       5.74891676        5      -0.01103543       0.00706113       0.00307833
O       16.22323963       6.87898194       5.75419010        5      -0.00271248       0.00506029       0.00000433
O       13.57508842      11.78475335       5.75419034        5      -0.00266334       0.00514737      -0.00003812
O       19.45734162      11.79238626       5.75946368        5      -0.00284034       0.00519048      -0.00006222
O        8.18470379       2.18968875       2.51629286        6       0.00376107      -0.00010712      -0.00406500
O       14.06695699       2.19732166       2.52156620        6       0.00269761      -0.00177643      -0.00474408
O       11.41880577       7.10309307       2.52156643        6      -0.01055778      -0.01068132       0.00432209
O       17.30105898       7.11072598       2.52683977        6       0.00284421      -0.00184355      -0.00470923
O       11.41880805       3.93546863       7.10909868        6       0.00221574      -0.00280687      -0.00296365
O       17.30106125       3.94310154       7.11437202        6       0.00273399      -0.00180042      -0.00475026
O       14.65291004       8.84887295       7.11437226        6       0.00273219      -0.00180108      -0.00474911
O       20.53516324       8.85650586       7.11964560        6       0.00262832      -0.00170786      -0.00464026
O        4.16575567       4.47712837       2.08705988        7      -0.00264373       0.00177694       0.00471791
O       10.04800887       4.48476128       2.09233322        7      -0.01319731      -0.00064183       0.00109172
O        7.39985765       9.39053269       2.09233345        7      -0.00274444       0.00179063       0.00475413
O       13.28211086       9.39816560       2.09760679        7      -0.00240636       0.00231266       0.00450990
O        7.39985993       6.22290825       6.67986570        7      -0.00085004       0.00142151       0.00273574
O       13.28211313       6.23054116       6.68513904        7      -0.00061964       0.00234961       0.00760341
O       10.63396192      11.13631257       6.68513928        7      -0.00273051       0.00180165       0.00474993
O       16.51621512      11.14394548       6.69041262        7      -0.00274846       0.00180752       0.00474652
O        6.32172028       4.35166723       4.38346300        8       0.00352647      -0.00207622       0.00432285
O       12.20397348       4.35930014       4.38873634        8      -0.02779294       0.01320843      -0.00067708
O        9.55582226       9.26507155       4.38873657        8      -0.00030549      -0.00568834       0.00438484
O       15.43807547       9.27270446       4.39400991        8      -0.00001071      -0.00324205       0.00469420
O        9.55582454       6.09744711       8.97626882        8      -0.00002830      -0.00323841       0.00470157
O       15.43807774       6.10508002       8.98154216        8      -0.00001947      -0.00319935       0.00474678
O       12.78992653      11.01085143       8.98154240        8      -0.00000987      -0.00324044       0.00469319
O       18.67217973      11.01848434       8.98681574        8      -0.00010959      -0.00328197       0.00479273
O        5.24357729       1.54124797       3.44724180        9       0.00271413      -0.00503848      -0.00000605
O       11.12583049       1.54888088       3.45251514        9       0.00232935      -0.00562202      -0.00007986
O        8.47767927       6.45465229       3.45251537        9      -0.02323736       0.00081024      -0.00384780
O       14.35993248       6.46228520       3.45778871        9       0.00748555      -0.00396883      -0.00071926
O        8.47768155       3.28702785       8.04004762        9       0.00269914      -0.00505755      -0.00001163
O       14.35993475       3.29466076       8.04532096        9       0.00271230      -0.00505928      -0.00000429
O       11.71178354       8.20043217       8.04532120        9       0.00275070      -0.00492367       0.00022680
O       17.59403674       8.20806508       8.05059454        9       0.00269540      -0.00505992       0.00000295
