80
Lattice="11.764506402117998 0.01526581519990899 0.0105466801006875 6.468203969902034 9.826808643969605 0.010547149196541481 6.46820852014741 3.4915597599805444 9.185611645176913" Properties=species:S:1:pos:R:3:spacegroup_kinds:I:1:forces:R:3 spacegroup="P 1" unit_cell=conventional occupancy="_JSON {\"0\": {\"In\": 1}, \"1\": {\"In\": 1}, \"2\": {\"In\": 1}, \"3\": {\"In\": 1}, \"4\": {\"O\": 1}, \"5\": {\"O\": 1}, \"6\": {\"O\": 1}, \"7\": {\"O\": 1}, \"8\": {\"O\": 1}, \"9\": {\"O\": 1}}" n_minim_iter=4 energy=-90314.91556783998 stress="-0.001696649368768351 0.0009757378990412114 0.0006900824579774578 0.0009757378990412114 -0.0030668124829061265 0.0003769027196732027 0.0006900824579774578 0.0003769027196732027 -0.003275670566277343" pbc="T T T"
In      10.58603397       5.71437697       3.94568595        0       0.00804471       0.00499546       0.00256643
In      16.46828717       5.72200988       3.95095929        0       0.00881964       0.00633442       0.00548807
In      13.82013595      10.62778129       3.95095952        0       0.00965834       0.00520866       0.00389178
In      19.70238916      10.63541420       3.95623286        0       0.00964899       0.00517118       0.00390803
In      13.82013823       7.46015685       8.53849177        0       0.01254348       0.01917009       0.01533204
In      19.70239143       7.46778976       8.54376511        0       0.00965059       0.00517232       0.00390671
In      17.05424022      12.37356117       8.54376535        0       0.00955215       0.00510467       0.00394051
In      22.93649342      12.38119408       8.54903869        0       0.00961041       0.00532369       0.00386249
In       7.93967373       4.28583926       2.95931508        1      -0.00716584       0.00318590      -0.00670912
In      13.82192693       4.29347217       2.96458842        1      -0.01004114      -0.00500930      -0.00338316
In      11.17377571       9.19924358       2.96458865        1      -0.00996017      -0.00500233      -0.00340266
In      17.05602892       9.20687649       2.96986199        1      -0.01001664      -0.00481005      -0.00332262
In      11.17377799       6.03161914       7.55212090        1      -0.01148757      -0.00658788      -0.00525637
In      17.05603119       6.03925205       7.55739424        1      -0.00995264      -0.00499360      -0.00340279
In      14.40787998      10.94502346       7.55739448        1      -0.01076945      -0.00799222       0.00115603
In      20.29013318      10.95265637       7.56266782        1      -0.00996045      -0.00500349      -0.00340437
In       4.41078572       2.38097786       1.64403766        2       0.00643058       0.00160931       0.00412460
In      10.29303892       2.38861077       1.64931100        2       0.01061522       0.00503025       0.00347723
In       7.64488770       7.29438218       1.64931123        2       0.01936373       0.02986934       0.00729823
In      13.52714091       7.30201509       1.65458457        2       0.00994285       0.00501176       0.00340609
In       7.64488998       4.12675774       6.23684348        2       0.00996947       0.00501682       0.00340479
In      13.52714318       4.13439065       6.24211682        2       0.00995852       0.00500369       0.00340672
In      10.87899197       9.04016206       6.24211706        2       0.00982071       0.00504776       0.00316549
In      16.76124517       9.04779497       6.24739040        2       0.00996588       0.00501461       0.00340087
In       1.76442549       0.95244015       0.65766679        3      -0.00966983      -0.00526898      -0.00389830
In       7.64667869       0.96007306       0.66294013        3      -0.00896857      -0.00797319      -0.00426669
In       4.99852747       5.86584447       0.66294036        3      -0.00037344       0.00130790      -0.00292042
In      10.88078068       5.87347738       0.66821370        3      -0.01328576      -0.00536514      -0.00339337
In       4.99852975       2.69822003       5.25047261        3      -0.00964683      -0.00516291      -0.00390630
In      10.88078295       2.70585294       5.25574595        3      -0.00965135      -0.00517388      -0.00390605
In       8.23263174       7.61162435       5.25574619        3      -0.00977121      -0.00543157      -0.00441861
In      14.11488494       7.61925726       5.26101953        3      -0.00964159      -0.00515882      -0.00390658
O        6.02873917       2.31514990       0.21988974        4       0.00427085       0.01577435       0.00033174
O       11.91099237       2.32278281       0.22516308        4       0.00001889       0.00321396      -0.00471420
O        9.26284115       7.22855422       0.22516331        4       0.00996349       0.01207669      -0.00959423
O       15.14509436       7.23618713       0.23043665        4       0.00022296       0.00334671      -0.00468488
O        9.26284343       4.06092978       4.81269556        4       0.00017197       0.00337849      -0.00458235
O       15.14509663       4.06856269       4.81796890        4       0.00002882       0.00323677      -0.00469968
O       12.49694542       8.97433410       4.81796914        4      -0.00000763       0.00323119      -0.00468274
O       18.37919862       8.98196701       4.82324248        4      -0.00000453       0.00325726      -0.00467311
O        7.11270107       5.13440950       1.15612043        5      -0.03562265      -0.07257034      -0.02451941
O       12.98913537       5.13320206       1.16138428        5      -0.00256684       0.00506529      -0.00001095
O       10.34098415      10.03897347       1.16138451        5      -0.00256778       0.00528456       0.00000156
O       16.22323736      10.04660638       1.16665785        5      -0.00274476       0.00511776      -0.00000713
O       10.34098643       6.87134903       5.74891676        5      -0.00269965       0.00506400       0.00007490
O       16.22323963       6.87898194       5.75419010        5      -0.00271833       0.00505611       0.00001233
O       13.57508842      11.78475335       5.75419034        5      -0.00271847       0.00511023      -0.00006785
O       19.45734162      11.79238626       5.75946368        5      -0.00271335       0.00506178       0.00000750
O        8.18470379       2.18968875       2.51629286        6      -0.00006785       0.00347394      -0.00762983
O       14.06695699       2.19732166       2.52156620        6       0.00281142      -0.00176324      -0.00477832
O       11.41880577       7.10309307       2.52156643        6       0.00169821      -0.00226747      -0.00506505
O       17.30105898       7.11072598       2.52683977        6      -0.00237567      -0.00170538      -0.00223033
O       11.41880805       3.93546863       7.10909868        6       0.00274433      -0.00175528      -0.00475346
O       17.30106125       3.94310154       7.11437202        6       0.00272992      -0.00180560      -0.00478023
O       14.65291004       8.84887295       7.11437226        6       0.00313949      -0.00253759      -0.00762380
O       20.53516324       8.85650586       7.11964560        6       0.00276170      -0.00180691      -0.00472563
O        4.16575567       4.47712837       2.08705988        7       0.00727420       0.00227561       0.00117761
O       10.04800887       4.48476128       2.09233322        7       0.00151145      -0.00150833       0.00662130
O        7.39985765       9.39053269       2.09233345        7      -0.00251602       0.00390305       0.00515425
O       13.28211086       9.39816560       2.09760679        7      -0.00273763       0.00194181       0.00470867
O        7.39985993       6.22290825       6.67986570        7      -0.00275168       0.00178697       0.00477756
O       13.28211313       6.23054116       6.68513904        7      -0.00257973       0.00256364       0.00567474
O       10.63396192      11.13631257       6.68513928        7      -0.00272758       0.00178927       0.00476182
O       16.51621512      11.14394548       6.69041262        7      -0.00271936       0.00181069       0.00474676
O        6.32172028       4.35166723       4.38346300        8       0.00037492      -0.00311404       0.00077164
O       12.20397348       4.35930014       4.38873634        8       0.00000861      -0.00325335       0.00469993
O        9.55582226       9.26507155       4.38873657        8       0.00002412      -0.00315269       0.00473736
O       15.43807547       9.27270446       4.39400991        8      -0.00001706      -0.00327020       0.00470611
O        9.55582454       6.09744711       8.97626882        8      -0.00081567      -0.00381403       0.00441962
O       15.43807774       6.10508002       8.98154216        8      -0.00292980      -0.00094608       0.00641627
O       12.78992653      11.01085143       8.98154240        8      -0.00515802       0.00196311      -0.00022595
O       18.67217973      11.01848434       8.98681574        8       0.00006039      -0.00317579       0.00465621
O        5.24357729       1.54124797       3.44724180        9       0.00190591      -0.00666825       0.00112224
O       11.12583049       1.54888088       3.45251514        9       0.00268296      -0.00507638      -0.00000713
O        8.47767927       6.45465229       3.45251537        9       0.00704231      -0.00206874       0.01019651
O       14.35993248       6.46228520       3.45778871        9       0.00266869      -0.00505118       0.00001742
O        8.47768155       3.28702785       8.04004762        9       0.00266737      -0.00511004       0.00001532
O       14.35993475       3.29466076       8.04532096        9       0.00268213      -0.00496513       0.00004099
O       11.71178354       8.20043217       8.04532120        9       0.00711128      -0.00625341       0.00747159
O       17.59403674       8.20806508       8.05059454        9       0.00195092      -0.00478827       0.00049563
