80
Lattice="11.758812762970885 0.0 0.0 6.452317444010323 9.830426094342354 0.0 6.452317444010323 3.4829815090918417 9.192720870539437" Properties=species:S:1:pos:R:3:initial_magmoms:R:1:forces:R:3 uid=supercell-004.xyz_R3c type=Bulk energy=-90301.48683853236 stress="0.0020909681153324497 -0.0007776318953474382 -0.0005457185273389249 -0.0007776318953474382 0.003164171558814309 -0.0002931648894737586 -0.0005457185273389249 -0.0002931648894737586 0.0033677417954587866" virial="-2.0693926224628905e-06 7.819625567135347e-07 5.313889197556067e-07 7.819625567135347e-07 -3.1304423679261176e-06 2.955040822055568e-07 5.313889197556067e-07 2.955040822055568e-07 -3.3196686661805538e-06" pbc="T T T"
In      10.57093864       5.70622635       3.94006911      10.00000000       0.00285622       0.00204398       0.00142065
In      16.45034502       5.70622635       3.94006911      10.00000000       0.00144808       0.00167363       0.00126767
In      13.79709736      10.62143940       3.94006911      10.00000000       0.00111128       0.00004226       0.00005699
In      19.67650374      10.62143940       3.94006911      10.00000000       0.00308273       0.00149262       0.00087620
In      13.79709736       7.44771711       8.53642955      10.00000000      -0.00826986      -0.01254057       0.00263824
In      19.67650374       7.44771711       8.53642955      10.00000000       0.00421285       0.00027166       0.00142442
In      17.02325608      12.36293015       8.53642955      10.00000000       0.00516202       0.00694332       0.00281174
In      22.90266246      12.36293015       8.53642955      10.00000000       0.00124584       0.00175301       0.00056180
In       7.92664710       4.27882935       2.95447155      10.00000000      -0.00078949      -0.00158097       0.00408673
In      13.80605348       4.27882935       2.95447155      10.00000000      -0.00291565      -0.00193886      -0.00097589
In      11.15280582       9.19404240       2.95447155      10.00000000      -0.00281646       0.00109841      -0.00546588
In      17.03221221       9.19404240       2.95447155      10.00000000      -0.00189904      -0.00118929      -0.00098693
In      11.15280582       6.02032010       7.55083198      10.00000000      -0.01055252      -0.00967943      -0.00077517
In      17.03221221       6.02032010       7.55083198      10.00000000       0.00198959      -0.00110522      -0.00289405
In      14.37896455      10.93553315       7.55083198      10.00000000      -0.00187626       0.00084360      -0.00108173
In      20.25837093      10.93553315       7.55083198      10.00000000      -0.00339885      -0.00033509      -0.00130453
In       4.40507673       2.37787445       1.64188889      10.00000000      -0.01521538      -0.00274280       0.01465537
In      10.28448311       2.37787445       1.64188889      10.00000000       0.00496080       0.00065203       0.00290504
In       7.63123545       7.29308750       1.64188889      10.00000000       0.00371450       0.00612382       0.00100538
In      13.51064183       7.29308750       1.64188889      10.00000000       0.00147452       0.00291990       0.00041258
In       7.63123545       4.11936520       6.23824933      10.00000000       0.00302268       0.00085605       0.00179159
In      13.51064183       4.11936520       6.23824933      10.00000000       0.00017400      -0.00150684       0.00200080
In      10.85739417       9.03457825       6.23824933      10.00000000       0.00087730       0.00205045      -0.00221761
In      16.73680055       9.03457825       6.23824933      10.00000000       0.00298881       0.00157940       0.00054021
In       1.76078518       0.95047746       0.65629133      10.00000000       0.00187584      -0.00207709      -0.00093043
In       7.64019156       0.95047746       0.65629133      10.00000000      -0.00571769      -0.01055277       0.00242163
In       4.98694390       5.86569050       0.65629133      10.00000000      -0.00671502       0.00163170      -0.00004043
In      10.86635028       5.86569050       0.65629133      10.00000000      -0.00161806      -0.00025606      -0.00117062
In       4.98694390       2.69196821       5.25265176      10.00000000      -0.00310416      -0.00294762      -0.00159635
In      10.86635028       2.69196821       5.25265176      10.00000000      -0.00154490      -0.00001898       0.00233603
In       8.21310263       7.60718126       5.25265176      10.00000000      -0.00193469      -0.00053979      -0.00039956
In      14.09250901       7.60718126       5.25265176      10.00000000      -0.00123327      -0.00032009      -0.00368729
O        6.01682673       2.30047915       0.21474656       4.00000000       0.06266151       0.05867498      -0.03922732
O       11.90204053       2.30932705       0.21474656       4.00000000      -0.00285219       0.00827841      -0.01199383
O        9.24879287       7.22454010       0.21474656       4.00000000      -0.00289590       0.00388210      -0.01222056
O       15.12819925       7.22454010       0.21474656       4.00000000      -0.00147430       0.00847913      -0.01256037
O        9.24879287       4.05081780       4.81110699       4.00000000      -0.00200396       0.00830550      -0.01454488
O       15.12819925       4.05081780       4.81110699       4.00000000      -0.00116771       0.00749246      -0.01241979
O       12.47495159       8.96603085       4.81110699       4.00000000      -0.00061585       0.00707213      -0.01088596
O       18.35435798       8.96603085       4.81110699       4.00000000      -0.00117299       0.00784518      -0.01242280
O        7.09636398       5.12094207       1.14909010       4.00000000      -0.01144759       0.00211592      -0.00447908
O       12.97577036       5.12094207       1.14909010       4.00000000      -0.00692915       0.01370017       0.00061031
O       10.32252270      10.03615511       1.14909010       4.00000000      -0.01532863       0.00444306       0.00217816
O       16.20192908      10.03615511       1.14909010       4.00000000      -0.00608409       0.01407184       0.00021711
O       10.32252270       6.86243282       5.74545054       4.00000000      -0.00718008       0.01480383      -0.00085709
O       16.20192908       6.86243282       5.74545054       4.00000000      -0.00742882       0.01299917      -0.00012139
O       13.54868142      11.77764587       5.74545054       4.00000000      -0.00684092       0.01364297      -0.00036171
O       19.42808780      11.77764587       5.74545054       4.00000000      -0.00666024       0.01245239      -0.00127588
O        8.17506304       2.18091283       2.51292678       4.00000000       0.00589838      -0.00187224      -0.01824698
O       14.05446942       2.18091283       2.51292678       4.00000000       0.00687522      -0.00454686      -0.01228059
O       11.40122176       7.09612588       2.51292678       4.00000000       0.00649035      -0.00723842      -0.01066747
O       17.28062814       7.09612588       2.51292678       4.00000000       0.00853990      -0.00647190      -0.01306658
O       11.40122176       3.92240358       7.10928721       4.00000000       0.00595153      -0.00899059      -0.02040348
O       17.28062814       3.92240358       7.10928721       4.00000000       0.00649756      -0.00320716      -0.01209989
O       14.62738048       8.83761663       7.10928721       4.00000000       0.00672246      -0.00455470      -0.01078152
O       20.50678687       8.83761663       7.10928721       4.00000000       0.00852764      -0.00530495      -0.01250045
O        4.15666079       4.47579097       2.08343366       4.00000000      -0.00524462       0.00597280       0.01151069
O       10.03606717       4.47579097       2.08343366       4.00000000      -0.00959377       0.00508297       0.01228459
O        7.38281951       9.39100402       2.08343366       4.00000000      -0.00748502       0.00487841       0.01368260
O       13.26222589       9.39100402       2.08343366       4.00000000      -0.00526932       0.00192144       0.01614252
O        7.38281951       6.21728172       6.67979410       4.00000000      -0.00712603       0.00409959       0.01246609
O       13.26222589       6.21728172       6.67979410       4.00000000      -0.00717341       0.00750476       0.02021749
O       10.60897823      11.13249477       6.67979410       4.00000000      -0.00546198       0.00399716       0.01351472
O       16.48838462      11.13249477       6.67979410       4.00000000      -0.00711336       0.00435735       0.01200931
O        6.30908968       4.34737676       4.38161388       4.00000000       0.00013019      -0.00850232       0.01166842
O       12.18849606       4.34737676       4.38161388       4.00000000       0.00056765      -0.00753467       0.01283139
O        9.53524840       9.26258981       4.38161388       4.00000000      -0.00219978      -0.00975461       0.01494375
O       15.41465478       9.26258981       4.38161388       4.00000000       0.00031957      -0.00804250       0.01254188
O        9.53524840       6.08886751       8.97797431       4.00000000      -0.01000200      -0.00363506       0.01037829
O       15.41465478       6.08886751       8.97797431       4.00000000      -0.01253414      -0.00685715       0.01323352
O       12.76140712      11.00408056       8.97797431       4.00000000       0.00010264      -0.00997092       0.01410596
O       18.64081350      11.00408056       8.97797431       4.00000000       0.00015452      -0.00938893       0.01189493
O        5.23535984       1.53576173       3.44727032       4.00000000       0.00790808      -0.01174113       0.00403422
O       11.11476623       1.53576173       3.44727032       4.00000000       0.00802553      -0.01372696      -0.00045464
O        8.46151857       6.45097478       3.44727032       4.00000000       0.00701816      -0.01400057      -0.00124466
O       14.34092495       6.45097478       3.44727032       4.00000000       0.00874847      -0.01290022       0.00160047
O        8.46151857       3.27725249       8.04363076       4.00000000       0.00653830      -0.01279288      -0.00110699
O       14.34092495       3.27725249       8.04363076       4.00000000       0.01029337      -0.01327106      -0.00250669
O       11.68767729       8.19246553       8.04363076       4.00000000       0.01405219      -0.02060578       0.00641424
O       17.56708367       8.19246553       8.04363076       4.00000000       0.00666690      -0.01380647       0.00056330
