40
Lattice="5.507194205701297 8.626009136856586e-43 0.0 -8.850960499527641e-43 5.650812282312575 0.0 0.0 0.0 15.736387874637405" Properties=species:S:1:pos:R:3:spacegroup_kinds:I:1:forces:R:3 spacegroup="P 1" unit_cell=conventional occupancy="_JSON {\"0\": {\"In\": 1}, \"1\": {\"In\": 1}, \"2\": {\"In\": 1}, \"3\": {\"In\": 1}, \"4\": {\"In\": 1}, \"5\": {\"In\": 1}, \"6\": {\"In\": 1}, \"7\": {\"In\": 1}, \"8\": {\"In\": 1}, \"9\": {\"In\": 1}, \"10\": {\"In\": 1}, \"11\": {\"In\": 1}, \"12\": {\"In\": 1}, \"13\": {\"In\": 1}, \"14\": {\"In\": 1}, \"15\": {\"In\": 1}, \"16\": {\"O\": 1}, \"17\": {\"O\": 1}, \"18\": {\"O\": 1}, \"19\": {\"O\": 1}, \"20\": {\"O\": 1}, \"21\": {\"O\": 1}, \"22\": {\"O\": 1}, \"23\": {\"O\": 1}, \"24\": {\"O\": 1}, \"25\": {\"O\": 1}, \"26\": {\"O\": 1}, \"27\": {\"O\": 1}, \"28\": {\"O\": 1}, \"29\": {\"O\": 1}, \"30\": {\"O\": 1}, \"31\": {\"O\": 1}, \"32\": {\"O\": 1}, \"33\": {\"O\": 1}, \"34\": {\"O\": 1}, \"35\": {\"O\": 1}, \"36\": {\"O\": 1}, \"37\": {\"O\": 1}, \"38\": {\"O\": 1}, \"39\": {\"O\": 1}}" n_minim_iter=1 energy=-45150.221884059596 stress="-0.005181428281696253 9.279276996764177e-14 1.2567848112400728e-12 9.279276996764177e-14 -9.617890224181288e-05 6.807615424664522e-14 1.2567848112400728e-12 6.807615424664522e-14 0.0010518411874972545" free_energy=-45150.221884059596 pbc="T T T"
In       2.76684220       4.48843565       8.98296233        0       0.04570616      -0.06412960      -0.01994490
In       0.01324510       3.98778277       6.75342555        1       0.04570616       0.06412960       0.01994490
In       2.74035201       1.66302951      14.62161949        2      -0.04570616      -0.06412960       0.01994490
In       5.49394911       1.16237663       1.11476839        3      -0.04570616       0.06412960      -0.01994490
In       2.74035201       1.16237663       6.75342555        4      -0.04570616       0.06412960       0.01994490
In       5.49394911       1.66302951       8.98296233        5      -0.04570616      -0.06412960      -0.01994490
In       2.76684220       3.98778277       1.11476839        6       0.04570616       0.06412960      -0.01994490
In       0.01324510       4.48843565      14.62161949        7       0.04570616      -0.06412960       0.01994490
In       2.75610486       4.17853679      12.85441971        8      -0.00044977       0.03698054      -0.09505546
In       5.50970197       4.29768163       2.88196817        9      -0.00044977      -0.03698054       0.09505546
In       2.75108934       1.35313065      10.75016211       10       0.00044977       0.03698054       0.09505546
In      -0.00250776       1.47227549       4.98622577       11       0.00044977      -0.03698054      -0.09505546
In       2.75108934       1.47227549       2.88196817       12       0.00044977      -0.03698054       0.09505546
In      -0.00250776       1.35313065      12.85441971       13       0.00044977       0.03698054      -0.09505546
In       2.75610486       4.29768163       4.98622577       14      -0.00044977      -0.03698054      -0.09505546
In       5.50970197       4.17853679      10.75016211       15      -0.00044977       0.03698054       0.09505546
O        4.73719337       4.91388705      12.56543322       16      -0.01278924      -0.08427139      -0.07914242
O        1.98359627       3.56233137       3.17095465       17      -0.01278924       0.08427139       0.07914242
O        0.77000084       2.08848091      11.03914859       18       0.01278924      -0.08427139       0.07914242
O        3.52359794       0.73692523       4.69723928       19       0.01278924       0.08427139      -0.07914242
O        0.77000084       0.73692523       3.17095465       20       0.01278924       0.08427139       0.07914242
O        3.52359794       2.08848091      12.56543322       21       0.01278924      -0.08427139      -0.07914242
O        4.73719337       3.56233137       4.69723928       22      -0.01278924       0.08427139      -0.07914242
O        1.98359627       4.91388705      11.03914859       23      -0.01278924      -0.08427139       0.07914242
O        3.88487343       2.95823587       9.87299324       24      -0.08567421      -0.00088039       0.11444988
O        1.13127633       5.51798255       5.86339463       25      -0.08567421       0.00088039      -0.11444988
O        1.62232077       0.13282973      13.73158857       26       0.08567421      -0.00088039      -0.11444988
O        4.37591788       2.69257641       2.00479931       27       0.08567421       0.00088039       0.11444988
O        1.62232077       2.69257641       5.86339463       28       0.08567421       0.00088039      -0.11444988
O        4.37591788       0.13282973       9.87299324       29       0.08567421      -0.00088039       0.11444988
O        3.88487343       5.51798255       2.00479931       30      -0.08567421       0.00088039       0.11444988
O        1.13127633       2.95823587      13.73158857       31      -0.08567421      -0.00088039      -0.11444988
O        3.57122466       3.70153238      14.90880796       32       0.03236190       0.04353089       0.00841298
O        0.81762755       4.77468605       0.82757992       33       0.03236190      -0.04353089      -0.00841298
O        1.93596955       0.87612624       8.69577386       34      -0.03236190       0.04353089      -0.00841298
O        4.68956665       1.94927990       7.04061402       35      -0.03236190      -0.04353089       0.00841298
O        1.93596955       1.94927990       0.82757992       36      -0.03236190      -0.04353089      -0.00841298
O        4.68956665       0.87612624      14.90880796       37      -0.03236190       0.04353089       0.00841298
O        3.57122466       4.77468605       7.04061402       38       0.03236190      -0.04353089       0.00841298
O        0.81762755       3.70153238       8.69577386       39       0.03236190       0.04353089      -0.00841298
40
Lattice="5.518893845343443 8.57423038951348e-43 0.0 -8.755262931805559e-43 5.646642312743145 0.0 0.0 0.0 15.714624391924147" Properties=species:S:1:pos:R:3:spacegroup_kinds:I:1:forces:R:3 spacegroup="P 1" unit_cell=conventional occupancy="_JSON {\"0\": {\"In\": 1}, \"1\": {\"In\": 1}, \"2\": {\"In\": 1}, \"3\": {\"In\": 1}, \"4\": {\"In\": 1}, \"5\": {\"In\": 1}, \"6\": {\"In\": 1}, \"7\": {\"In\": 1}, \"8\": {\"In\": 1}, \"9\": {\"In\": 1}, \"10\": {\"In\": 1}, \"11\": {\"In\": 1}, \"12\": {\"In\": 1}, \"13\": {\"In\": 1}, \"14\": {\"In\": 1}, \"15\": {\"In\": 1}, \"16\": {\"O\": 1}, \"17\": {\"O\": 1}, \"18\": {\"O\": 1}, \"19\": {\"O\": 1}, \"20\": {\"O\": 1}, \"21\": {\"O\": 1}, \"22\": {\"O\": 1}, \"23\": {\"O\": 1}, \"24\": {\"O\": 1}, \"25\": {\"O\": 1}, \"26\": {\"O\": 1}, \"27\": {\"O\": 1}, \"28\": {\"O\": 1}, \"29\": {\"O\": 1}, \"30\": {\"O\": 1}, \"31\": {\"O\": 1}, \"32\": {\"O\": 1}, \"33\": {\"O\": 1}, \"34\": {\"O\": 1}, \"35\": {\"O\": 1}, \"36\": {\"O\": 1}, \"37\": {\"O\": 1}, \"38\": {\"O\": 1}, \"39\": {\"O\": 1}}" n_minim_iter=2 energy=-45150.22536128844 stress="-0.000977631494058726 2.1277263268709766e-13 -1.6945871316996269e-12 2.1277263268709766e-13 -0.0008370763073300915 5.479233991152173e-13 -1.6945871316996269e-12 5.479233991152173e-13 -0.0012571695836242273" free_energy=-45150.22536128844 pbc="T T T"
In       2.77277277       4.48504984       8.97051598        0       0.02782397      -0.07671647      -0.02854583
In       0.01332585       3.98491362       6.74410841        1       0.02782397       0.07671647       0.02854583
In       2.74612108       1.66172869      14.60142061        2      -0.02782397      -0.07671647       0.02854583
In       5.50556800       1.16159247       1.11320378        3      -0.02782397       0.07671647      -0.02854583
In       2.74612108       1.16159247       6.74410841        4      -0.02782397       0.07671647       0.02854583
In       5.50556800       1.66172869       8.97051598        5      -0.02782397      -0.07671647      -0.02854583
In       2.77277277       3.98491362       1.11320378        6       0.02782397       0.07671647      -0.02854583
In       0.01332585       4.48504984      14.60142061        7       0.02782397      -0.07671647       0.02854583
In       2.76195949       4.17549572      12.83653297        8       0.01706472       0.03549055      -0.10201139
In       5.52140642       4.29446775       2.87809143        9       0.01706472      -0.03549055       0.10201139
In       2.75693435       1.35217456      10.73540362       10      -0.01706472       0.03549055       0.10201139
In      -0.00251257       1.47114659       4.97922077       11      -0.01706472      -0.03549055      -0.10201139
In       2.75693435       1.47114659       2.87809143       12      -0.01706472      -0.03549055       0.10201139
In      -0.00251257       1.35217456      12.83653297       13      -0.01706472       0.03549055      -0.10201139
In       2.76195949       4.29446775       4.97922077       14       0.01706472      -0.03549055      -0.10201139
In       5.52140642       4.17549572      10.73540362       15       0.01706472       0.03549055       0.10201139
O        4.74724248       4.91016417      12.54796440       16      -0.01824550      -0.08543802      -0.06747476
O        1.98779555       3.55979930       3.16665999       17      -0.01824550       0.08543802       0.06747476
O        0.77165137       2.08684301      11.02397218       18       0.01824550      -0.08543802       0.06747476
O        3.53109829       0.73647814       4.69065221       19       0.01824550       0.08543802      -0.06747476
O        0.77165137       0.73647814       3.16665999       20       0.01824550       0.08543802       0.06747476
O        3.53109829       2.08684301      12.54796440       21       0.01824550      -0.08543802      -0.06747476
O        4.74724248       3.55979930       4.69065221       22      -0.01824550       0.08543802      -0.06747476
O        1.98779555       4.91016417      11.02397218       23      -0.01824550      -0.08543802       0.06747476
O        3.89302795       2.95605186       9.85947013       24      -0.08173147       0.00016467       0.10854504
O        1.13358103       5.51391161       5.85515426       25      -0.08173147      -0.00016467      -0.10854504
O        1.62586589       0.13273070      13.71246646       26       0.08173147       0.00016467      -0.10854504
O        4.38531282       2.69059045       2.00215794       27       0.08173147      -0.00016467       0.10854504
O        1.62586589       2.69059045       5.85515426       28       0.08173147      -0.00016467      -0.10854504
O        4.38531282       0.13273070       9.85947013       29       0.08173147       0.00016467       0.10854504
O        3.89302795       5.51391161       2.00215794       30      -0.08173147      -0.00016467       0.10854504
O        1.13358103       2.95605186      13.71246646       31      -0.08173147       0.00016467      -0.10854504
O        3.57884872       3.69885083      14.88819867       32       0.04703629       0.04505299      -0.00828523
O        0.81940179       4.77111264       0.82642572       33       0.04703629      -0.04505299       0.00828523
O        1.94004513       0.87552967       8.68373792       34      -0.04703629       0.04505299       0.00828523
O        4.69949205       1.94779149       7.03088647       35      -0.04703629      -0.04505299      -0.00828523
O        1.94004513       1.94779149       0.82642572       36      -0.04703629      -0.04505299       0.00828523
O        4.69949205       0.87552967      14.88819867       37      -0.04703629       0.04505299      -0.00828523
O        3.57884872       4.77111264       7.03088647       38       0.04703629      -0.04505299      -0.00828523
O        0.81940179       3.69885083       8.68373792       39       0.04703629       0.04505299       0.00828523
40
Lattice="5.521955294007909 8.342138432307291e-43 0.0 -8.657740279514823e-43 5.6370877788216545 0.0 0.0 0.0 15.732532587787443" Properties=species:S:1:pos:R:3:spacegroup_kinds:I:1:forces:R:3 spacegroup="P 1" unit_cell=conventional occupancy="_JSON {\"0\": {\"In\": 1}, \"1\": {\"In\": 1}, \"2\": {\"In\": 1}, \"3\": {\"In\": 1}, \"4\": {\"In\": 1}, \"5\": {\"In\": 1}, \"6\": {\"In\": 1}, \"7\": {\"In\": 1}, \"8\": {\"In\": 1}, \"9\": {\"In\": 1}, \"10\": {\"In\": 1}, \"11\": {\"In\": 1}, \"12\": {\"In\": 1}, \"13\": {\"In\": 1}, \"14\": {\"In\": 1}, \"15\": {\"In\": 1}, \"16\": {\"O\": 1}, \"17\": {\"O\": 1}, \"18\": {\"O\": 1}, \"19\": {\"O\": 1}, \"20\": {\"O\": 1}, \"21\": {\"O\": 1}, \"22\": {\"O\": 1}, \"23\": {\"O\": 1}, \"24\": {\"O\": 1}, \"25\": {\"O\": 1}, \"26\": {\"O\": 1}, \"27\": {\"O\": 1}, \"28\": {\"O\": 1}, \"29\": {\"O\": 1}, \"30\": {\"O\": 1}, \"31\": {\"O\": 1}, \"32\": {\"O\": 1}, \"33\": {\"O\": 1}, \"34\": {\"O\": 1}, \"35\": {\"O\": 1}, \"36\": {\"O\": 1}, \"37\": {\"O\": 1}, \"38\": {\"O\": 1}, \"39\": {\"O\": 1}}" n_minim_iter=3 energy=-45150.230394152444 stress="0.00021048103748433337 6.257030434968109e-13 9.373756916247845e-14 6.257030434968109e-13 -0.0022502901535246447 -8.873822685066207e-13 9.373756916247845e-14 -8.873822685066207e-13 0.0008465041404551042" free_energy=-45150.230394152444 pbc="T T T"
In       2.77475515       4.47627540       8.98029880        0       0.03392779      -0.05521709      -0.02265280
In       0.01377750       3.97935627       6.75223379        1       0.03392779       0.05521709       0.02265280
In       2.74720014       1.65773151      14.61850008        2      -0.03392779      -0.05521709       0.02265280
In       5.50817779       1.16081238       1.11403251        3      -0.03392779       0.05521709      -0.02265280
In       2.74720014       1.16081238       6.75223379        4      -0.03392779       0.05521709       0.02265280
In       5.50817779       1.65773151       8.98029880        5      -0.03392779      -0.05521709      -0.02265280
In       2.77475515       3.97935627       1.11403251        6       0.03392779       0.05521709      -0.02265280
In       0.01377750       4.47627540      14.61850008        7       0.03392779      -0.05521709       0.02265280
In       2.76375022       4.16898241      12.84957786        8       0.01498520       0.02490091      -0.08856127
In       5.52472787       4.28664926       2.88295473        9       0.01498520      -0.02490091       0.08856127
In       2.75820507       1.35043852      10.74922102       10      -0.01498520       0.02490091       0.08856127
In      -0.00277257       1.46810537       4.98331156       11      -0.01498520      -0.02490091      -0.08856127
In       2.75820507       1.46810537       2.88295473       12      -0.01498520      -0.02490091       0.08856127
In      -0.00277257       1.35043852      12.84957786       13      -0.01498520       0.02490091      -0.08856127
In       2.76375022       4.28664926       4.98331156       14       0.01498520      -0.02490091      -0.08856127
In       5.52472787       4.16898241      10.74922102       15       0.01498520       0.02490091       0.08856127
O        4.74959291       4.90052941      12.56120864       16      -0.00435233      -0.07678638      -0.04314991
O        1.98861527       3.55510226       3.17132395       17      -0.00435233       0.07678638       0.04314991
O        0.77236238       2.08198552      11.03759024       18       0.00435233      -0.07678638       0.04314991
O        3.53334003       0.73655837       4.69494235       19       0.00435233       0.07678638      -0.04314991
O        0.77236238       0.73655837       3.17132395       20       0.00435233       0.07678638       0.04314991
O        3.53334003       2.08198552      12.56120864       21       0.00435233      -0.07678638      -0.04314991
O        4.74959291       3.55510226       4.69494235       22      -0.00435233       0.07678638      -0.04314991
O        1.98861527       4.90052941      11.03759024       23      -0.00435233      -0.07678638       0.04314991
O        3.89390614       2.95105205       9.87239721       24      -0.05342443      -0.00762274       0.10348169
O        1.13292850       5.50457962       5.86013538       25      -0.05342443       0.00762274      -0.10348169
O        1.62804915       0.13250816      13.72640167       26       0.05342443      -0.00762274      -0.10348169
O        4.38902680       2.68603573       2.00613091       27       0.05342443       0.00762274       0.10348169
O        1.62804915       2.68603573       5.86013538       28       0.05342443       0.00762274      -0.10348169
O        4.38902680       0.13250816       9.87239721       29       0.05342443      -0.00762274       0.10348169
O        3.89390614       5.50457962       2.00613091       30      -0.05342443       0.00762274       0.10348169
O        1.13292850       2.95105205      13.72640167       31      -0.05342443      -0.00762274      -0.10348169
O        3.58156315       3.69329109      14.90504430       32       0.02303185       0.03803650      -0.00691976
O        0.82058550       4.76234058       0.82748828       33       0.02303185      -0.03803650       0.00691976
O        1.94039214       0.87474720       8.69375458       34      -0.02303185       0.03803650       0.00691976
O        4.70136979       1.94379669       7.03877801       35      -0.02303185      -0.03803650      -0.00691976
O        1.94039214       1.94379669       0.82748828       36      -0.02303185      -0.03803650       0.00691976
O        4.70136979       0.87474720      14.90504430       37      -0.02303185       0.03803650      -0.00691976
O        3.58156315       4.76234058       7.03877801       38       0.02303185      -0.03803650      -0.00691976
O        0.82058550       3.69329109       8.69375458       39       0.02303185       0.03803650       0.00691976
40
Lattice="5.521766964736376 8.26267953436964e-43 0.0 -8.754383795363586e-43 5.647045047378239 0.0 0.0 0.0 15.705327514167227" Properties=species:S:1:pos:R:3:spacegroup_kinds:I:1:forces:R:3 spacegroup="P 1" unit_cell=conventional occupancy="_JSON {\"0\": {\"In\": 1}, \"1\": {\"In\": 1}, \"2\": {\"In\": 1}, \"3\": {\"In\": 1}, \"4\": {\"In\": 1}, \"5\": {\"In\": 1}, \"6\": {\"In\": 1}, \"7\": {\"In\": 1}, \"8\": {\"In\": 1}, \"9\": {\"In\": 1}, \"10\": {\"In\": 1}, \"11\": {\"In\": 1}, \"12\": {\"In\": 1}, \"13\": {\"In\": 1}, \"14\": {\"In\": 1}, \"15\": {\"In\": 1}, \"16\": {\"O\": 1}, \"17\": {\"O\": 1}, \"18\": {\"O\": 1}, \"19\": {\"O\": 1}, \"20\": {\"O\": 1}, \"21\": {\"O\": 1}, \"22\": {\"O\": 1}, \"23\": {\"O\": 1}, \"24\": {\"O\": 1}, \"25\": {\"O\": 1}, \"26\": {\"O\": 1}, \"27\": {\"O\": 1}, \"28\": {\"O\": 1}, \"29\": {\"O\": 1}, \"30\": {\"O\": 1}, \"31\": {\"O\": 1}, \"32\": {\"O\": 1}, \"33\": {\"O\": 1}, \"34\": {\"O\": 1}, \"35\": {\"O\": 1}, \"36\": {\"O\": 1}, \"37\": {\"O\": 1}, \"38\": {\"O\": 1}, \"39\": {\"O\": 1}}" n_minim_iter=4 energy=-45150.24017918052 stress="0.0020120791025688314 6.086701333332938e-13 8.799818893543595e-13 6.086701333332938e-13 0.0025784537196344936 -7.879411614092902e-13 8.799818893543595e-13 -7.879411614092902e-13 5.664545962370282e-05" free_energy=-45150.24017918052 pbc="T T T"
In       2.77611031       4.48058590       8.96342514        0       0.02474654       0.02432649       0.02506285
In       0.01522683       3.98998167       6.74190237        1       0.02474654      -0.02432649      -0.02506285
In       2.74565665       1.65706337      14.59456613        2      -0.02474654       0.02432649      -0.02506285
In       5.50654013       1.16645915       1.11076139        3      -0.02474654      -0.02432649       0.02506285
In       2.74565665       1.16645915       6.74190237        4      -0.02474654      -0.02432649      -0.02506285
In       5.50654013       1.65706337       8.96342514        5      -0.02474654       0.02432649       0.02506285
In       2.77611031       3.98998167       1.11076139        6       0.02474654      -0.02432649       0.02506285
In       0.01522683       4.48058590      14.59456613        7       0.02474654       0.02432649      -0.02506285
In       2.76445639       4.17801752      12.82245927        8       0.03509186      -0.05132762      -0.04185371
In       5.52533987       4.29255005       2.88286824        9       0.03509186       0.05132762       0.04185371
In       2.75731058       1.35449499      10.73553200       10      -0.03509186      -0.05132762       0.04185371
In      -0.00357291       1.46902753       4.96979552       11      -0.03509186       0.05132762      -0.04185371
In       2.75731058       1.46902753       2.88286824       12      -0.03509186       0.05132762       0.04185371
In      -0.00357291       1.35449499      12.82245927       13      -0.03509186      -0.05132762      -0.04185371
In       2.76445639       4.29255005       4.96979552       14       0.03509186       0.05132762      -0.04185371
In       5.52533987       4.17801752      10.73553200       15       0.03509186      -0.05132762       0.04185371
O        4.74863760       4.90504997      12.53633122       16       0.00627359      -0.03701131       0.05615564
O        1.98775412       3.56551760       3.16899629       17       0.00627359       0.03701131      -0.05615564
O        0.77312937       2.08152745      11.02166005       18      -0.00627359      -0.03701131      -0.05615564
O        3.53401285       0.74199507       4.68366746       19      -0.00627359       0.03701131       0.05615564
O        0.77312937       0.74199507       3.16899629       20      -0.00627359       0.03701131      -0.05615564
O        3.53401285       2.08152745      12.53633122       21      -0.00627359      -0.03701131       0.05615564
O        4.74863760       3.56551760       4.68366746       22       0.00627359       0.03701131       0.05615564
O        1.98775412       4.90504997      11.02166005       23       0.00627359      -0.03701131      -0.05615564
O        3.88992811       2.95621538       9.86062615       24       0.01329819       0.01157085       0.07014837
O        1.12904463       5.51435219       5.84470136       25       0.01329819      -0.01157085      -0.07014837
O        1.63183885       0.13269286      13.69736512       26      -0.01329819       0.01157085      -0.07014837
O        4.39272233       2.69082966       2.00796239       27      -0.01329819      -0.01157085       0.07014837
O        1.63183885       2.69082966       5.84470136       28      -0.01329819      -0.01157085      -0.07014837
O        4.39272233       0.13269286       9.86062615       29      -0.01329819       0.01157085       0.07014837
O        3.88992811       5.51435219       2.00796239       30       0.01329819      -0.01157085       0.07014837
O        1.12904463       2.95621538      13.69736512       31       0.01329819       0.01157085      -0.07014837
O        3.58357044       3.70197662      14.87890056       32      -0.01937272      -0.02736435      -0.04734723
O        0.82268696       4.76859095       0.82642695       33      -0.01937272       0.02736435       0.04734723
O        1.93819652       0.87845410       8.67909071       34       0.01937272      -0.02736435       0.04734723
O        4.69908000       1.94506843       7.02623680       35       0.01937272       0.02736435      -0.04734723
O        1.93819652       1.94506843       0.82642695       36       0.01937272       0.02736435       0.04734723
O        4.69908000       0.87845410      14.87890056       37       0.01937272      -0.02736435      -0.04734723
O        3.58357044       4.76859095       7.02623680       38      -0.01937272       0.02736435      -0.04734723
O        0.82268696       3.70197662       8.67909071       39      -0.01937272      -0.02736435       0.04734723
40
Lattice="5.520897494128004 8.820068463091594e-43 0.0 -8.72487433254014e-43 5.629672717671882 0.0 0.0 0.0 15.756272830990588" Properties=species:S:1:pos:R:3:spacegroup_kinds:I:1:forces:R:3 spacegroup="P 1" unit_cell=conventional occupancy="_JSON {\"0\": {\"In\": 1}, \"1\": {\"In\": 1}, \"2\": {\"In\": 1}, \"3\": {\"In\": 1}, \"4\": {\"In\": 1}, \"5\": {\"In\": 1}, \"6\": {\"In\": 1}, \"7\": {\"In\": 1}, \"8\": {\"In\": 1}, \"9\": {\"In\": 1}, \"10\": {\"In\": 1}, \"11\": {\"In\": 1}, \"12\": {\"In\": 1}, \"13\": {\"In\": 1}, \"14\": {\"In\": 1}, \"15\": {\"In\": 1}, \"16\": {\"O\": 1}, \"17\": {\"O\": 1}, \"18\": {\"O\": 1}, \"19\": {\"O\": 1}, \"20\": {\"O\": 1}, \"21\": {\"O\": 1}, \"22\": {\"O\": 1}, \"23\": {\"O\": 1}, \"24\": {\"O\": 1}, \"25\": {\"O\": 1}, \"26\": {\"O\": 1}, \"27\": {\"O\": 1}, \"28\": {\"O\": 1}, \"29\": {\"O\": 1}, \"30\": {\"O\": 1}, \"31\": {\"O\": 1}, \"32\": {\"O\": 1}, \"33\": {\"O\": 1}, \"34\": {\"O\": 1}, \"35\": {\"O\": 1}, \"36\": {\"O\": 1}, \"37\": {\"O\": 1}, \"38\": {\"O\": 1}, \"39\": {\"O\": 1}}" n_minim_iter=5 energy=-45150.24516877035 stress="0.002563124069582519 5.19985737932858e-13 -2.494621269389901e-15 5.19985737932858e-13 0.0008794897354303568 6.62725002780312e-13 -2.494621269389901e-15 6.62725002780312e-13 0.0060474195446011195" free_energy=-45150.24516877035 pbc="T T T"
In       2.77867353       4.46481792       8.99248739        0       0.03713813       0.05886990       0.03688822
In       0.01822479       3.97969116       6.76378544        1       0.03713813      -0.05886990      -0.03688822
In       2.74222396       1.64998156      14.64192186        2      -0.03713813       0.05886990      -0.03688822
In       5.50267271       1.16485480       1.11435097        3      -0.03713813      -0.05886990       0.03688822
In       2.74222396       1.16485480       6.76378544        4      -0.03713813      -0.05886990      -0.03688822
In       5.50267271       1.64998156       8.99248739        5      -0.03713813       0.05886990       0.03688822
In       2.77867353       3.97969116       1.11435097        6       0.03713813      -0.05886990       0.03688822
In       0.01822479       4.46481792      14.64192186        7       0.03713813       0.05886990      -0.03688822
In       2.76630989       4.16426162      12.85731876        8       0.00476220      -0.06574388      -0.02290463
In       5.52675864       4.28024745       2.89895407        9       0.00476220       0.06574388       0.02290463
In       2.75458760       1.34942527      10.77709049       10      -0.00476220      -0.06574388       0.02290463
In      -0.00586115       1.46541109       4.97918234       11      -0.00476220       0.06574388      -0.02290463
In       2.75458760       1.46541109       2.89895407       12      -0.00476220       0.06574388       0.02290463
In      -0.00586115       1.34942527      12.85731876       13      -0.00476220      -0.06574388      -0.02290463
In       2.76630989       4.28024745       4.97918234       14       0.00476220       0.06574388      -0.02290463
In       5.52675864       4.16426162      10.77709049       15       0.00476220      -0.06574388       0.02290463
O        4.74774064       4.88412675      12.57679810       16       0.03791646      -0.01421897       0.07649756
O        1.98729189       3.56038232       3.17947473       17       0.03791646       0.01421897      -0.07649756
O        0.77315686       2.06929039      11.05761115       18      -0.03791646      -0.01421897      -0.07649756
O        3.53360560       0.74554597       4.69866168       19      -0.03791646       0.01421897       0.07649756
O        0.77315686       0.74554597       3.17947473       20      -0.03791646       0.01421897      -0.07649756
O        3.53360560       2.06929039      12.57679810       21      -0.03791646      -0.01421897       0.07649756
O        4.74774064       3.56038232       4.69866168       22       0.03791646       0.01421897       0.07649756
O        1.98729189       4.88412675      11.05761115       23       0.03791646      -0.01421897      -0.07649756
O        3.88656483       2.94741771       9.90141974       24       0.05426068       0.00099663       0.04846813
O        1.12611608       5.49709137       5.85485309       25       0.05426068      -0.00099663      -0.04846813
O        1.63433267       0.13258135      13.73298951       26      -0.05426068       0.00099663      -0.04846813
O        4.39478141       2.68225501       2.02328332       27      -0.05426068      -0.00099663       0.04846813
O        1.63433267       2.68225501       5.85485309       28      -0.05426068      -0.00099663      -0.04846813
O        4.39478141       0.13258135       9.90141974       29      -0.05426068       0.00099663       0.04846813
O        3.88656483       5.49709137       2.02328332       30       0.05426068      -0.00099663       0.04846813
O        1.12611608       2.94741771      13.73298951       31       0.05426068       0.00099663      -0.04846813
O        3.58360580       3.69137850      14.92473321       32      -0.06402007      -0.03429680      -0.00171898
O        0.82315705       4.75313058       0.83153962       33      -0.06402007       0.03429680       0.00171898
O        1.93729170       0.87654214       8.70967604       34       0.06402007      -0.03429680       0.00171898
O        4.69774044       1.93829422       7.04659679       35       0.06402007       0.03429680      -0.00171898
O        1.93729170       1.93829422       0.83153962       36       0.06402007       0.03429680       0.00171898
O        4.69774044       0.87654214      14.92473321       37       0.06402007      -0.03429680      -0.00171898
O        3.58360580       4.75313058       7.04659679       38      -0.06402007       0.03429680      -0.00171898
O        0.82315705       3.69137850       8.70967604       39      -0.06402007      -0.03429680       0.00171898
40