20
Lattice="5.688829432289863 -3.0753916037755056e-61 -9.948633419183938e-44 -5.7931761411681e-62 5.761214498006999 1.4193917424545516e-17 1.5657442290700962e-43 1.8737657736183097e-17 8.230959543312862" Properties=species:S:1:pos:R:3:spacegroup_kinds:I:1:forces:R:3 spacegroup="P 1" unit_cell=conventional occupancy="_JSON {\"0\": {\"In\": 1}, \"1\": {\"In\": 1}, \"2\": {\"In\": 1}, \"3\": {\"In\": 1}, \"4\": {\"In\": 1}, \"5\": {\"In\": 1}, \"6\": {\"In\": 1}, \"7\": {\"In\": 1}, \"8\": {\"O\": 1}, \"9\": {\"O\": 1}, \"10\": {\"O\": 1}, \"11\": {\"O\": 1}, \"12\": {\"O\": 1}, \"13\": {\"O\": 1}, \"14\": {\"O\": 1}, \"15\": {\"O\": 1}, \"16\": {\"O\": 1}, \"17\": {\"O\": 1}, \"18\": {\"O\": 1}, \"19\": {\"O\": 1}}" n_minim_iter=6 energy=-22574.912353489442 stress="0.015026508241709516 2.388163557052328e-13 3.1669603344202815e-13 2.388163557052328e-13 0.015045035964329264 1.762575103359204e-14 3.1669603344202815e-13 1.762575103359204e-14 0.015031115112308882" free_energy=-22574.912353489442 pbc="T T T"
In       1.40958977       3.03550909       0.94749369        0      -0.00152588      -0.00189972      -0.00347137
In       1.43482495       0.15490184       3.16798609        1       0.00152588      -0.00189972       0.00347137
In       1.43482495       2.72570541       5.06297346        2       0.00152588       0.00189972      -0.00347137
In       1.40958977       5.60631265       7.28346586        3      -0.00152588       0.00189972       0.00347137
In       4.27923966       2.72570541       7.28346586        4       0.00152588       0.00189972       0.00347137
In       4.25400449       5.60631265       5.06297346        5      -0.00152588       0.00189972      -0.00347137
In       4.25400449       3.03550909       3.16798609        6      -0.00152588      -0.00189972       0.00347137
In       4.27923966       0.15490184       0.94749369        7       0.00152588      -0.00189972      -0.00347137
O        2.22067708       3.47929988       6.99073611        8      -0.00021142       0.00336450      -0.00349714
O        0.62373764       0.59869263       5.35570321        9       0.00021142       0.00336450       0.00349714
O        0.62373764       2.28191462       2.87525633       10       0.00021142      -0.00336450      -0.00349714
O        2.22067708       5.16252186       1.24022344       11      -0.00021142      -0.00336450       0.00349714
O        3.46815235       2.28191462       1.24022344       12       0.00021142      -0.00336450       0.00349714
O        5.06509179       5.16252186       2.87525633       13      -0.00021142      -0.00336450      -0.00349714
O        5.06509179       3.47929988       5.35570321       14      -0.00021142       0.00336450       0.00349714
O        3.46815235       0.59869263       6.99073611       15       0.00021142       0.00336450      -0.00349714
O        5.45184522       4.32091087      -0.00000000       16       0.00156543       0.00000000      -0.00000000
O        3.08139893       1.44030362       4.11547977       17      -0.00156543       0.00000000      -0.00000000
O        0.23698421       1.44030362      -0.00000000       18      -0.00156543       0.00000000       0.00000000
O        2.60743050       4.32091087       4.11547977       19       0.00156543       0.00000000      -0.00000000
