20
Lattice="5.42422364445996 -4.777431777239979e-59 2.845001777104761e-43 6.750478393792119e-59 5.254439089998622 -2.7831025033049267e-16 -2.755834078597457e-43 4.038951746528238e-16 7.4368346323233885" Properties=species:S:1:pos:R:3:spacegroup_kinds:I:1:forces:R:3 spacegroup="P 1" unit_cell=conventional occupancy="_JSON {\"0\": {\"In\": 1}, \"1\": {\"In\": 1}, \"2\": {\"In\": 1}, \"3\": {\"In\": 1}, \"4\": {\"In\": 1}, \"5\": {\"In\": 1}, \"6\": {\"In\": 1}, \"7\": {\"In\": 1}, \"8\": {\"O\": 1}, \"9\": {\"O\": 1}, \"10\": {\"O\": 1}, \"11\": {\"O\": 1}, \"12\": {\"O\": 1}, \"13\": {\"O\": 1}, \"14\": {\"O\": 1}, \"15\": {\"O\": 1}, \"16\": {\"O\": 1}, \"17\": {\"O\": 1}, \"18\": {\"O\": 1}, \"19\": {\"O\": 1}}" n_minim_iter=9 energy=-22571.83890309248 stress="-0.21263631987744167 1.915701911697469e-13 4.1286157726632515e-13 1.915701911697469e-13 -0.21265254514785767 -6.177404251478859e-13 4.1286157726632515e-13 -6.177404251478859e-13 -0.21271174413918012" free_energy=-22571.83890309248 pbc="T T T"
In       1.35433734       2.77820636       0.90564525        0       0.00162635      -0.00505389       0.00015851
In       1.35777449       0.15098682       2.81277206        1      -0.00162635      -0.00505389      -0.00015851
In       1.35777449       2.47623273       4.62406257        2      -0.00162635       0.00505389       0.00015851
In       1.35433734       5.10345227       6.53118938        3       0.00162635       0.00505389      -0.00015851
In       4.06988631       2.47623273       6.53118938        4      -0.00162635       0.00505389      -0.00015851
In       4.06644916       5.10345227       4.62406257        5       0.00162635       0.00505389       0.00015851
In       4.06644916       2.77820636       2.81277206        6       0.00162635      -0.00505389      -0.00015851
In       4.06988631       0.15098682       0.90564525        7      -0.00162635      -0.00505389       0.00015851
O        2.11737921       3.15772942       6.38765551        8      -0.00170739       0.00154861      -0.00335710
O        0.59473261       0.53050988       4.76759644        9       0.00170739       0.00154861       0.00335710
O        0.59473261       2.09670967       2.66923820       10       0.00170739      -0.00154861      -0.00335710
O        2.11737921       4.72392921       1.04917912       11      -0.00170739      -0.00154861       0.00335710
O        3.30684443       2.09670967       1.04917912       12       0.00170739      -0.00154861       0.00335710
O        4.82949103       4.72392921       2.66923820       13      -0.00170739      -0.00154861      -0.00335710
O        4.82949103       3.15772942       4.76759644       14      -0.00170739       0.00154861       0.00335710
O        3.30684443       0.53050988       6.38765551       15       0.00170739       0.00154861      -0.00335710
O        5.21460540       3.94082932      -0.00000000       16       0.00761124      -0.00000000       0.00000000
O        2.92173007       1.31360977       3.71841732       17      -0.00761124      -0.00000000      -0.00000000
O        0.20961825       1.31360977      -0.00000000       18      -0.00761124      -0.00000000       0.00000000
O        2.50249358       3.94082932       3.71841732       19       0.00761124      -0.00000000      -0.00000000
