20
Lattice="5.4289623922237205 -5.91454377698441e-60 3.4889315846290473e-43 5.46317627229814e-60 5.517102081449953 -1.0878682443285836e-16 -4.263080654045678e-43 2.252920379801228e-16 7.719919683037341" Properties=species:S:1:pos:R:3:spacegroup_kinds:I:1:forces:R:3 spacegroup="P 1" unit_cell=conventional occupancy="_JSON {\"0\": {\"In\": 1}, \"1\": {\"In\": 1}, \"2\": {\"In\": 1}, \"3\": {\"In\": 1}, \"4\": {\"In\": 1}, \"5\": {\"In\": 1}, \"6\": {\"In\": 1}, \"7\": {\"In\": 1}, \"8\": {\"O\": 1}, \"9\": {\"O\": 1}, \"10\": {\"O\": 1}, \"11\": {\"O\": 1}, \"12\": {\"O\": 1}, \"13\": {\"O\": 1}, \"14\": {\"O\": 1}, \"15\": {\"O\": 1}, \"16\": {\"O\": 1}, \"17\": {\"O\": 1}, \"18\": {\"O\": 1}, \"19\": {\"O\": 1}}" n_minim_iter=7 energy=-22574.53459274199 stress="-0.046153341361167256 4.183200375156067e-13 -1.9134634155707485e-13 4.183200375156067e-13 -0.0464424662260844 -1.4447080074722063e-13 -1.9134634155707485e-13 -1.4447080074722063e-13 -0.046281981726858594" free_energy=-22574.53459274199 pbc="T T T"
In       1.35378641       2.92865553       0.89414678        0      -0.00308432       0.00430859       0.00652225
In       1.36069479       0.17010449       2.96581306        1       0.00308432       0.00430859      -0.00652225
In       1.36069479       2.58844655       4.75410662        2       0.00308432      -0.00430859       0.00652225
In       1.35378641       5.34699759       6.82577290        3      -0.00308432      -0.00430859      -0.00652225
In       4.07517598       2.58844655       6.82577290        4       0.00308432      -0.00430859      -0.00652225
In       4.06826761       5.34699759       4.75410662        5      -0.00308432      -0.00430859       0.00652225
In       4.06826761       2.92865553       2.96581306        6      -0.00308432       0.00430859      -0.00652225
In       4.07517598       0.17010449       0.89414678        7       0.00308432       0.00430859       0.00652225
O        2.10995034       3.32804250       6.57013018        8       0.00345086      -0.00730789      -0.00505576
O        0.60453086       0.56949146       5.00974934        9      -0.00345086      -0.00730789       0.00505576
O        0.60453086       2.18905958       2.71017034       10      -0.00345086       0.00730789      -0.00505576
O        2.10995034       4.94761062       1.14978950       11       0.00345086       0.00730789       0.00505576
O        3.31901205       2.18905958       1.14978950       12      -0.00345086       0.00730789       0.00505576
O        4.82443154       4.94761062       2.71017034       13       0.00345086       0.00730789      -0.00505576
O        4.82443154       3.32804250       5.00974934       14       0.00345086      -0.00730789       0.00505576
O        3.31901205       0.56949146       6.57013018       15      -0.00345086      -0.00730789      -0.00505576
O        5.20476218       4.13782656      -0.00000000       16      -0.00369345       0.00000000      -0.00000000
O        2.93868141       1.37927552       3.85995984       17       0.00369345       0.00000000       0.00000000
O        0.22420021       1.37927552      -0.00000000       18       0.00369345      -0.00000000       0.00000000
O        2.49028098       4.13782656       3.85995984       19      -0.00369345       0.00000000      -0.00000000
