20
Lattice="5.500720430857514 -1.0707214655595265e-59 -1.7434499794444181e-43 4.488937236558458e-60 5.614839461994259 1.1251915216192158e-17 4.535320023340524e-43 1.4738938313598394e-17 7.902505637096338" Properties=species:S:1:pos:R:3:spacegroup_kinds:I:1:forces:R:3 spacegroup="P 1" unit_cell=conventional occupancy="_JSON {\"0\": {\"In\": 1}, \"1\": {\"In\": 1}, \"2\": {\"In\": 1}, \"3\": {\"In\": 1}, \"4\": {\"In\": 1}, \"5\": {\"In\": 1}, \"6\": {\"In\": 1}, \"7\": {\"In\": 1}, \"8\": {\"O\": 1}, \"9\": {\"O\": 1}, \"10\": {\"O\": 1}, \"11\": {\"O\": 1}, \"12\": {\"O\": 1}, \"13\": {\"O\": 1}, \"14\": {\"O\": 1}, \"15\": {\"O\": 1}, \"16\": {\"O\": 1}, \"17\": {\"O\": 1}, \"18\": {\"O\": 1}, \"19\": {\"O\": 1}}" n_minim_iter=6 energy=-22574.912068510766 stress="-0.014026395866444986 9.014419082507781e-13 -2.4225236650894796e-13 9.014419082507781e-13 -0.013986973810715151 6.564174859542806e-14 -2.4225236650894796e-13 6.564174859542806e-14 -0.013880182902085252" free_energy=-22574.912068510766 pbc="T T T"
In       1.36755101       2.97465665       0.90397213        0      -0.00755566       0.00073995      -0.00081897
In       1.38280921       0.16723692       3.04728068        1       0.00755566       0.00073995       0.00081897
In       1.38280921       2.64018281       4.85522495        2       0.00755566      -0.00073995      -0.00081897
In       1.36755101       5.44760255       6.99853350        3      -0.00755566      -0.00073995       0.00081897
In       4.13316942       2.64018281       6.99853350        4       0.00755566      -0.00073995       0.00081897
In       4.11791122       5.44760255       4.85522495        5      -0.00755566      -0.00073995      -0.00081897
In       4.11791122       2.97465665       3.04728068        6      -0.00755566       0.00073995       0.00081897
In       4.13316942       0.16723692       0.90397213        7       0.00755566       0.00073995      -0.00081897
O        2.14471098       3.39199126       6.71304745        8      -0.00479263      -0.00428811      -0.00020240
O        0.60564924       0.58457153       5.14071101        9       0.00479263      -0.00428811       0.00020240
O        0.60564924       2.22284821       2.76179463       10       0.00479263       0.00428811      -0.00020240
O        2.14471098       5.03026794       1.18945819       11      -0.00479263       0.00428811       0.00020240
O        3.35600945       2.22284821       1.18945819       12       0.00479263       0.00428811       0.00020240
O        4.89507120       5.03026794       2.76179463       13      -0.00479263       0.00428811      -0.00020240
O        4.89507120       3.39199126       5.14071101       14      -0.00479263      -0.00428811       0.00020240
O        3.35600945       0.58457153       6.71304745       15       0.00479263      -0.00428811      -0.00020240
O        5.26774293       4.21112960      -0.00000000       16       0.00413947      -0.00000000      -0.00000000
O        2.98333771       1.40370987       3.95125282       17      -0.00413947      -0.00000000       0.00000000
O        0.23297750       1.40370987      -0.00000000       18      -0.00413947       0.00000000       0.00000000
O        2.51738272       4.21112960       3.95125282       19       0.00413947      -0.00000000      -0.00000000
