20
Lattice="5.462278011451524 -3.5092129194365844e-60 2.9211193481829034e-43 1.0876061828169514e-59 5.576467137733892 -1.3638286595660797e-16 -4.172366130131531e-43 1.9081283131390988e-16 7.802017326857792" Properties=species:S:1:pos:R:3:spacegroup_kinds:I:1:forces:R:3 spacegroup="P 1" unit_cell=conventional occupancy="_JSON {\"0\": {\"In\": 1}, \"1\": {\"In\": 1}, \"2\": {\"In\": 1}, \"3\": {\"In\": 1}, \"4\": {\"In\": 1}, \"5\": {\"In\": 1}, \"6\": {\"In\": 1}, \"7\": {\"In\": 1}, \"8\": {\"O\": 1}, \"9\": {\"O\": 1}, \"10\": {\"O\": 1}, \"11\": {\"O\": 1}, \"12\": {\"O\": 1}, \"13\": {\"O\": 1}, \"14\": {\"O\": 1}, \"15\": {\"O\": 1}, \"16\": {\"O\": 1}, \"17\": {\"O\": 1}, \"18\": {\"O\": 1}, \"19\": {\"O\": 1}}" n_minim_iter=1 energy=-22574.52927077616 stress="-0.0503663202927875 -4.838647819280181e-14 2.4840262946624583e-13 -4.838647819280181e-14 -0.0481725385665121 1.4720651945110294e-13 2.4840262946624583e-13 1.4720651945110294e-13 -0.04683709524750273" free_energy=-22574.52927077616 pbc="T T T"
In       1.36033002       2.95945491       0.89480605        0       0.03055402       0.04121605       0.05317027
In       1.37080899       0.17122134       3.00620261        1      -0.03055402       0.04121605      -0.05317027
In       1.37080899       2.61701223       4.79581471        2      -0.03055402      -0.04121605       0.05317027
In       1.36033002       5.40524579       6.90721128        3       0.03055402      -0.04121605      -0.05317027
In       4.10194799       2.61701223       6.90721128        4      -0.03055402      -0.04121605      -0.05317027
In       4.09146903       5.40524579       4.79581471        5       0.03055402      -0.04121605       0.05317027
In       4.09146903       2.95945491       3.00620261        6       0.03055402       0.04121605      -0.05317027
In       4.10194799       0.17122134       0.89480605        7      -0.03055402       0.04121605       0.05317027
O        2.12634679       3.36514497       6.63139792        8      -0.04049321       0.01842267       0.03363660
O        0.60479222       0.57691140       5.07162807        9       0.04049321       0.01842267      -0.03363660
O        0.60479222       2.21132217       2.73038926       10       0.04049321      -0.01842267       0.03363660
O        2.12634679       4.99955574       1.17061941       11      -0.04049321      -0.01842267      -0.03363660
O        3.33593122       2.21132217       1.17061941       12       0.04049321      -0.01842267      -0.03363660
O        4.85748579       4.99955574       2.73038926       13      -0.04049321      -0.01842267       0.03363660
O        4.85748579       3.36514497       5.07162807       14      -0.04049321       0.01842267      -0.03363660
O        3.33593122       0.57691140       6.63139792       15       0.04049321       0.01842267       0.03363660
O        5.23203166       4.18235035      -0.00000000       16       0.05990050       0.00000000       0.00000000
O        2.96138536       1.39411678       3.90100866       17      -0.05990050      -0.00000000      -0.00000000
O        0.23024635       1.39411678      -0.00000000       18      -0.05990050      -0.00000000       0.00000000
O        2.50089265       4.18235035       3.90100866       19       0.05990050       0.00000000      -0.00000000
20
Lattice="5.473503798173453 -3.53586972693445e-60 2.934539424756681e-43 1.0823923243204381e-59 5.5747503220561985 -1.3614506861440127e-16 -4.15452005019016e-43 1.9075408615282254e-16 7.788413719313955" Properties=species:S:1:pos:R:3:spacegroup_kinds:I:1:forces:R:3 spacegroup="P 1" unit_cell=conventional occupancy="_JSON {\"0\": {\"In\": 1}, \"1\": {\"In\": 1}, \"2\": {\"In\": 1}, \"3\": {\"In\": 1}, \"4\": {\"In\": 1}, \"5\": {\"In\": 1}, \"6\": {\"In\": 1}, \"7\": {\"In\": 1}, \"8\": {\"O\": 1}, \"9\": {\"O\": 1}, \"10\": {\"O\": 1}, \"11\": {\"O\": 1}, \"12\": {\"O\": 1}, \"13\": {\"O\": 1}, \"14\": {\"O\": 1}, \"15\": {\"O\": 1}, \"16\": {\"O\": 1}, \"17\": {\"O\": 1}, \"18\": {\"O\": 1}, \"19\": {\"O\": 1}}" n_minim_iter=2 energy=-22574.530270276133 stress="-0.04769046400116483 -3.589641111657004e-13 5.032683711032909e-14 -3.589641111657004e-13 -0.04816864004433038 -6.551794026656266e-13 5.032683711032909e-14 -6.551794026656266e-13 -0.048472327257043236" free_energy=-22574.530270276133 pbc="T T T"
In       1.36326435       2.95873038       0.89348623        0       0.05174525       0.02811771       0.05101509
In       1.37348755       0.17135522       3.00072063        1      -0.05174525       0.02811771      -0.05101509
In       1.37348755       2.61601994       4.78769309        2      -0.05174525      -0.02811771       0.05101509
In       1.36326435       5.40339510       6.89492749        3       0.05174525      -0.02811771      -0.05101509
In       4.11023945       2.61601994       6.89492749        4      -0.05174525      -0.02811771      -0.05101509
In       4.10001625       5.40339510       4.78769309        5       0.05174525      -0.02811771       0.05101509
In       4.10001625       2.95873038       3.00072063        6       0.05174525       0.02811771      -0.05101509
In       4.11023945       0.17135522       0.89348623        7      -0.05174525       0.02811771       0.05101509
O        2.13053299       3.36419235       6.61998746        8      -0.01821958       0.01343437       0.04522570
O        0.60621891       0.57681719       5.06263311        9       0.01821958       0.01343437      -0.04522570
O        0.60621891       2.21055797       2.72578061       10       0.01821958      -0.01343437       0.04522570
O        2.13053299       4.99793314       1.16842625       11      -0.01821958      -0.01343437      -0.04522570
O        3.34297081       2.21055797       1.16842625       12       0.01821958      -0.01343437      -0.04522570
O        4.86728489       4.99793314       2.72578061       13      -0.01821958      -0.01343437       0.04522570
O        4.86728489       3.36419235       5.06263311       14      -0.01821958       0.01343437      -0.04522570
O        3.34297081       0.57681719       6.61998746       15       0.01821958       0.01343437       0.04522570
O        5.24305607       4.18106274      -0.00000000       16       0.06526348       0.00000000      -0.00000000
O        2.96719962       1.39368758       3.89420686       17      -0.06526348      -0.00000000      -0.00000000
O        0.23044772       1.39368758      -0.00000000       18      -0.06526348       0.00000000      -0.00000000
O        2.50630417       4.18106274       3.89420686       19       0.06526348       0.00000000      -0.00000000
20
Lattice="5.475506666133127 -4.2704056802877975e-60 2.8794317143730416e-43 9.870101431263222e-60 5.574090032261138 -1.304592805221662e-16 -4.213201442153086e-43 1.9864029066830285e-16 7.786487074917236" Properties=species:S:1:pos:R:3:spacegroup_kinds:I:1:forces:R:3 spacegroup="P 1" unit_cell=conventional occupancy="_JSON {\"0\": {\"In\": 1}, \"1\": {\"In\": 1}, \"2\": {\"In\": 1}, \"3\": {\"In\": 1}, \"4\": {\"In\": 1}, \"5\": {\"In\": 1}, \"6\": {\"In\": 1}, \"7\": {\"In\": 1}, \"8\": {\"O\": 1}, \"9\": {\"O\": 1}, \"10\": {\"O\": 1}, \"11\": {\"O\": 1}, \"12\": {\"O\": 1}, \"13\": {\"O\": 1}, \"14\": {\"O\": 1}, \"15\": {\"O\": 1}, \"16\": {\"O\": 1}, \"17\": {\"O\": 1}, \"18\": {\"O\": 1}, \"19\": {\"O\": 1}}" n_minim_iter=3 energy=-22574.533133393652 stress="-0.04698515343718657 1.1251071184649088e-13 -1.173047951098299e-13 1.1251071184649088e-13 -0.04734914229648378 -3.757343329014677e-13 -1.173047951098299e-13 -3.757343329014677e-13 -0.046912759801773986" free_energy=-22574.533133393652 pbc="T T T"
In       1.36703990       2.96047157       0.89676977        0      -0.01854081      -0.03026792       0.03529028
In       1.37071343       0.17342655       2.99647377        1       0.01854081      -0.03026792      -0.03529028
In       1.37071343       2.61361847       4.79001331        2       0.01854081       0.03026792       0.03529028
In       1.36703990       5.40066348       6.88971731        3      -0.01854081       0.03026792      -0.03529028
In       4.10846676       2.61361847       6.88971731        4       0.01854081       0.03026792      -0.03529028
In       4.10479324       5.40066348       4.79001331        5      -0.01854081       0.03026792       0.03529028
In       4.10479324       2.96047157       2.99647377        6      -0.01854081      -0.03026792      -0.03529028
In       4.10846676       0.17342655       0.89676977        7       0.01854081      -0.03026792       0.03529028
O        2.12977137       3.36477674       6.62128156        8      -0.00896830      -0.01710248       0.01080741
O        0.60798197       0.57773172       5.05844905        9       0.00896830      -0.01710248      -0.01080741
O        0.60798197       2.20931329       2.72803802       10       0.00896830       0.01710248       0.01080741
O        2.12977137       4.99635831       1.16520551       11      -0.00896830       0.01710248      -0.01080741
O        3.34573530       2.20931329       1.16520551       12       0.00896830       0.01710248      -0.01080741
O        4.86752470       4.99635831       2.72803802       13      -0.00896831       0.01710248       0.01080741
O        4.86752470       3.36477674       5.05844905       14      -0.00896830      -0.01710248      -0.01080741
O        3.34573530       0.57773172       6.62128156       15       0.00896830      -0.01710248       0.01080741
O        5.24938577       4.18056752      -0.00000000       16      -0.01255038       0.00000000      -0.00000000
O        2.96387423       1.39352251       3.89324354       17       0.01255038      -0.00000000      -0.00000000
O        0.22612090       1.39352251      -0.00000000       18       0.01255038       0.00000000       0.00000000
O        2.51163243       4.18056752       3.89324354       19      -0.01255038       0.00000000      -0.00000000
20
Lattice="5.473743788873769 -5.543535642696067e-60 2.9095396053974374e-43 7.851370458300906e-60 5.579106247877701 -1.1807554893346045e-16 -4.166472992678717e-43 2.1604682422315797e-16 7.781991652963332" Properties=species:S:1:pos:R:3:spacegroup_kinds:I:1:forces:R:3 spacegroup="P 1" unit_cell=conventional occupancy="_JSON {\"0\": {\"In\": 1}, \"1\": {\"In\": 1}, \"2\": {\"In\": 1}, \"3\": {\"In\": 1}, \"4\": {\"In\": 1}, \"5\": {\"In\": 1}, \"6\": {\"In\": 1}, \"7\": {\"In\": 1}, \"8\": {\"O\": 1}, \"9\": {\"O\": 1}, \"10\": {\"O\": 1}, \"11\": {\"O\": 1}, \"12\": {\"O\": 1}, \"13\": {\"O\": 1}, \"14\": {\"O\": 1}, \"15\": {\"O\": 1}, \"16\": {\"O\": 1}, \"17\": {\"O\": 1}, \"18\": {\"O\": 1}, \"19\": {\"O\": 1}}" n_minim_iter=4 energy=-22574.533341194525 stress="-0.047293560568010165 5.586529151169882e-13 -2.2494224541918535e-13 5.586529151169882e-13 -0.046294564398986895 1.1474489989074192e-12 -2.2494224541918535e-13 1.1474489989074192e-12 -0.0474817283557581" free_energy=-22574.533341194525 pbc="T T T"
In       1.36658529       2.96286319       0.89702185        0      -0.01793367      -0.01253004       0.01895581
In       1.37028661       0.17331006       2.99397397        1       0.01793367      -0.01253004      -0.01895581
In       1.37028661       2.61624306       4.78801768        2       0.01793367       0.01253004       0.01895581
In       1.36658529       5.40579619       6.88496980        3      -0.01793367       0.01253004      -0.01895581
In       4.10715850       2.61624306       6.88496980        4       0.01793367       0.01253004      -0.01895581
In       4.10345718       5.40579619       4.78801768        5      -0.01793367       0.01253004       0.01895581
In       4.10345718       2.96286319       2.99397397        6      -0.01793367      -0.01253004      -0.01895581
In       4.10715850       0.17331006       0.89702185        7       0.01793367      -0.01253004       0.01895581
O        2.12883985       3.36763559       6.61783724        8      -0.00781964      -0.00932874       0.01728028
O        0.60803204       0.57808247       5.05515024        9       0.00781964      -0.00932874      -0.01728028
O        0.60803204       2.21147065       2.72684141       10       0.00781964       0.00932874       0.01728028
O        2.12883985       5.00102378       1.16415441       11      -0.00781964       0.00932874      -0.01728028
O        3.34490394       2.21147065       1.16415441       12       0.00781964       0.00932874      -0.01728028
O        4.86571175       5.00102378       2.72684141       13      -0.00781964       0.00932874       0.01728028
O        4.86571175       3.36763559       5.05515024       14      -0.00781964      -0.00932874      -0.01728028
O        3.34490394       0.57808247       6.61783724       15       0.00781964      -0.00932874       0.01728028
O        5.24785340       4.18432969      -0.00000000       16      -0.01584750       0.00000000       0.00000000
O        2.96276229       1.39477656       3.89099583       17       0.01584750       0.00000000       0.00000000
O        0.22589039       1.39477656      -0.00000000       18       0.01584750       0.00000000      -0.00000000
O        2.51098150       4.18432969       3.89099583       19      -0.01584750      -0.00000000      -0.00000000
20
Lattice="5.478031865910587 -6.678373681602567e-60 2.9015287703676038e-43 6.061280246502646e-60 5.567981037746536 -1.0584602302301168e-16 -4.191339763761103e-43 2.3289616229740864e-16 7.79143687400202" Properties=species:S:1:pos:R:3:spacegroup_kinds:I:1:forces:R:3 spacegroup="P 1" unit_cell=conventional occupancy="_JSON {\"0\": {\"In\": 1}, \"1\": {\"In\": 1}, \"2\": {\"In\": 1}, \"3\": {\"In\": 1}, \"4\": {\"In\": 1}, \"5\": {\"In\": 1}, \"6\": {\"In\": 1}, \"7\": {\"In\": 1}, \"8\": {\"O\": 1}, \"9\": {\"O\": 1}, \"10\": {\"O\": 1}, \"11\": {\"O\": 1}, \"12\": {\"O\": 1}, \"13\": {\"O\": 1}, \"14\": {\"O\": 1}, \"15\": {\"O\": 1}, \"16\": {\"O\": 1}, \"17\": {\"O\": 1}, \"18\": {\"O\": 1}, \"19\": {\"O\": 1}}" n_minim_iter=5 energy=-22574.53421735008 stress="-0.04643814591596576 -1.8816798314018178e-13 -1.8239204760890947e-13 -1.8816798314018178e-13 -0.04660626218210866 4.591158249000671e-13 -1.8239204760890947e-13 4.591158249000671e-13 -0.04646590952436367" free_energy=-22574.53421735008 pbc="T T T"
In       1.36700019       2.95544787       0.90180439        0      -0.00807702       0.00542762      -0.01310734
In       1.37201574       0.17145735       2.99391405        1       0.00807702       0.00542762       0.01310734
In       1.37201574       2.61253317       4.79752282        2       0.00807702      -0.00542762      -0.01310734
In       1.36700019       5.39652369       6.88963249        3      -0.00807702      -0.00542762       0.01310734
In       4.11103167       2.61253317       6.88963249        4       0.00807702      -0.00542762       0.01310734
In       4.10601613       5.39652369       4.79752282        5      -0.00807702      -0.00542762      -0.01310734
In       4.10601613       2.95544787       2.99391405        6      -0.00807702       0.00542762       0.01310734
In       4.11103167       0.17145735       0.90180439        7       0.00807702       0.00542762      -0.01310734
O        2.12927108       3.35993594       6.62793710        8       0.00330716      -0.00859569       0.02713376
O        0.60974485       0.57594542       5.05921821        9      -0.00330716      -0.00859569      -0.02713376
O        0.60974485       2.20804510       2.73221866       10      -0.00330716       0.00859569       0.02713376
O        2.12927108       4.99203562       1.16349977       11       0.00330716       0.00859569      -0.02713376
O        3.34876079       2.20804510       1.16349977       12      -0.00330716       0.00859569      -0.02713376
O        4.86828701       4.99203562       2.73221866       13       0.00330716       0.00859569       0.02713376
O        4.86828701       3.35993594       5.05921821       14       0.00330716      -0.00859569      -0.02713376
O        3.34876079       0.57594542       6.62793710       15      -0.00330716      -0.00859569       0.02713376
O        5.25206434       4.17598578      -0.00000000       16      -0.00429280      -0.00000000       0.00000000
O        2.96498345       1.39199526       3.89571844       17       0.00429280       0.00000000       0.00000000
O        0.22596752       1.39199526      -0.00000000       18       0.00429280      -0.00000000      -0.00000000
O        2.51304841       4.17598578       3.89571844       19      -0.00429280      -0.00000000      -0.00000000
20
Lattice="5.477263869179508 -7.260627209950768e-60 3.4765641412585532e-43 5.588980951141016e-60 5.569266783676415 -1.0544080556780201e-16 -4.27202964118624e-43 2.335019493527201e-16 7.790730335114171" Properties=species:S:1:pos:R:3:spacegroup_kinds:I:1:forces:R:3 spacegroup="P 1" unit_cell=conventional occupancy="_JSON {\"0\": {\"In\": 1}, \"1\": {\"In\": 1}, \"2\": {\"In\": 1}, \"3\": {\"In\": 1}, \"4\": {\"In\": 1}, \"5\": {\"In\": 1}, \"6\": {\"In\": 1}, \"7\": {\"In\": 1}, \"8\": {\"O\": 1}, \"9\": {\"O\": 1}, \"10\": {\"O\": 1}, \"11\": {\"O\": 1}, \"12\": {\"O\": 1}, \"13\": {\"O\": 1}, \"14\": {\"O\": 1}, \"15\": {\"O\": 1}, \"16\": {\"O\": 1}, \"17\": {\"O\": 1}, \"18\": {\"O\": 1}, \"19\": {\"O\": 1}}" n_minim_iter=6 energy=-22574.534550666285 stress="-0.04654027143064199 3.269458049543148e-13 3.720950531525218e-13 3.269458049543148e-13 -0.04618286224401188 -2.4002287738952785e-13 3.720950531525218e-13 -2.4002287738952785e-13 -0.0463888328913838" free_energy=-22574.534550666285 pbc="T T T"
In       1.36586434       2.95588900       0.90221578        0      -0.00307385       0.01497895       0.00131753
In       1.37276759       0.17125561       2.99314939        1       0.00307385       0.01497895      -0.00131753
In       1.37276759       2.61337778       4.79758094        2       0.00307385      -0.01497895       0.00131753
In       1.36586434       5.39801118       6.88851456        3      -0.00307385      -0.01497895      -0.00131753
In       4.11139952       2.61337778       6.88851456        4       0.00307385      -0.01497895      -0.00131753
In       4.10449628       5.39801118       4.79758094        5      -0.00307385      -0.01497895       0.00131753
In       4.10449628       2.95588900       2.99314939        6      -0.00307385       0.01497895      -0.00131753
In       4.11139952       0.17125561       0.90221578        7       0.00307385       0.01497895       0.00131753
O        2.12871452       3.35969150       6.63005939        8       0.00109556      -0.00370094      -0.00061910
O        0.60991742       0.57505811       5.05603612        9      -0.00109556      -0.00370094       0.00061910
O        0.60991742       2.20957528       2.73469422       10      -0.00109556       0.00370094      -0.00061910
O        2.12871452       4.99420868       1.16067095       11       0.00109556       0.00370094       0.00061910
O        3.34854935       2.20957528       1.16067095       12      -0.00109556       0.00370094       0.00061910
O        4.86734645       4.99420868       2.73469422       13       0.00109556       0.00370094      -0.00061910
O        4.86734645       3.35969150       5.05603612       14       0.00109556      -0.00370094       0.00061910
O        3.34854935       0.57505811       6.63005939       15      -0.00109556      -0.00370094      -0.00061910
O        5.25094464       4.17695009      -0.00000000       16      -0.00029370      -0.00000000       0.00000000
O        2.96495116       1.39231670       3.89536517       17       0.00029370       0.00000000       0.00000000
O        0.22631923       1.39231670      -0.00000000       18       0.00029370       0.00000000       0.00000000
O        2.51231271       4.17695009       3.89536517       19      -0.00029370       0.00000000      -0.00000000
20
Lattice="5.478772168947103 -5.968808677653872e-60 3.5209419193262358e-43 5.513299955363882e-60 5.567720524346289 -1.0978492444607783e-16 -4.302193670528522e-43 2.273590528714802e-16 7.7907485906542595" Properties=species:S:1:pos:R:3:spacegroup_kinds:I:1:forces:R:3 spacegroup="P 1" unit_cell=conventional occupancy="_JSON {\"0\": {\"In\": 1}, \"1\": {\"In\": 1}, \"2\": {\"In\": 1}, \"3\": {\"In\": 1}, \"4\": {\"In\": 1}, \"5\": {\"In\": 1}, \"6\": {\"In\": 1}, \"7\": {\"In\": 1}, \"8\": {\"O\": 1}, \"9\": {\"O\": 1}, \"10\": {\"O\": 1}, \"11\": {\"O\": 1}, \"12\": {\"O\": 1}, \"13\": {\"O\": 1}, \"14\": {\"O\": 1}, \"15\": {\"O\": 1}, \"16\": {\"O\": 1}, \"17\": {\"O\": 1}, \"18\": {\"O\": 1}, \"19\": {\"O\": 1}}" n_minim_iter=7 energy=-22574.53459274199 stress="-0.046153341361167256 4.183200375156067e-13 -1.9134634155707485e-13 4.183200375156067e-13 -0.0464424662260844 -1.4447080074722063e-13 -1.9134634155707485e-13 -1.4447080074722063e-13 -0.046281981726858594" free_energy=-22574.53459274199 pbc="T T T"
In       1.36620716       2.95552543       0.90235042        0      -0.00308432       0.00430859       0.00652225
In       1.37317892       0.17166517       2.99302388        1       0.00308432       0.00430859      -0.00652225
In       1.37317892       2.61219509       4.79772471        2       0.00308432      -0.00430859       0.00652225
In       1.36620716       5.39605536       6.88839817        3      -0.00308432      -0.00430859      -0.00652225
In       4.11256501       2.61219509       6.88839817        4       0.00308432      -0.00430859      -0.00652225
In       4.10559325       5.39605536       4.79772471        5      -0.00308432      -0.00430859       0.00652225
In       4.10559325       2.95552543       2.99302388        6      -0.00308432       0.00430859      -0.00652225
In       4.11256501       0.17166517       0.90235042        7       0.00308432       0.00430859       0.00652225
O        2.12930876       3.35857671       6.63040997        8       0.00345086      -0.00730789      -0.00505576
O        0.61007732       0.57471645       5.05571291        9      -0.00345086      -0.00730789       0.00505576
O        0.61007732       2.20914381       2.73503568       10      -0.00345086       0.00730789      -0.00505576
O        2.12930876       4.99300408       1.16033862       11       0.00345086       0.00730789       0.00505576
O        3.34946340       2.20914381       1.16033862       12      -0.00345086       0.00730789       0.00505576
O        4.86869485       4.99300408       2.73503568       13       0.00345086       0.00730789      -0.00505576
O        4.86869485       3.35857671       5.05571291       14       0.00345086      -0.00730789       0.00505576
O        3.34946340       0.57471645       6.63040997       15      -0.00345086      -0.00730789      -0.00505576
O        5.25251496       4.17579039      -0.00000000       16      -0.00369345       0.00000000      -0.00000000
O        2.96564330       1.39193013       3.89537430       17       0.00369345       0.00000000       0.00000000
O        0.22625721       1.39193013      -0.00000000       18       0.00369345      -0.00000000       0.00000000
O        2.51312887       4.17579039       3.89537430       19      -0.00369345       0.00000000      -0.00000000
