20
Lattice="5.694488969578597 -5.9149122761053944e-61 -2.7010115844404174e-43 1.227750806839925e-61 5.750428416897382 -2.5616194455691815e-18 -7.557334519656193e-44 3.3778894456116e-17 8.238202574200152" Properties=species:S:1:pos:R:3:spacegroup_kinds:I:1:forces:R:3 spacegroup="P 1" unit_cell=conventional occupancy="_JSON {\"0\": {\"In\": 1}, \"1\": {\"In\": 1}, \"2\": {\"In\": 1}, \"3\": {\"In\": 1}, \"4\": {\"In\": 1}, \"5\": {\"In\": 1}, \"6\": {\"In\": 1}, \"7\": {\"In\": 1}, \"8\": {\"O\": 1}, \"9\": {\"O\": 1}, \"10\": {\"O\": 1}, \"11\": {\"O\": 1}, \"12\": {\"O\": 1}, \"13\": {\"O\": 1}, \"14\": {\"O\": 1}, \"15\": {\"O\": 1}, \"16\": {\"O\": 1}, \"17\": {\"O\": 1}, \"18\": {\"O\": 1}, \"19\": {\"O\": 1}}" n_minim_iter=6 energy=-22574.76894130635 stress="0.02936862128744258 -6.28714542213383e-14 1.0541578076224587e-13 -6.28714542213383e-14 0.029375603511909796 5.643060955214384e-13 1.0541578076224587e-13 5.643060955214384e-13 0.029379222271640255" free_energy=-22574.76894130635 pbc="T T T"
In       1.41018814       3.02135517       0.95264372        0      -0.00304658      -0.00193344      -0.00297474
In       1.43705635       0.14614096       3.16645757        1       0.00304658      -0.00193344       0.00297474
In       1.43705635       2.72907325       5.07174501        2       0.00304658       0.00193344      -0.00297474
In       1.41018814       5.60428746       7.28555885        3      -0.00304658       0.00193344       0.00297474
In       4.28430083       2.72907325       7.28555885        4       0.00304658       0.00193344       0.00297474
In       4.25743262       5.60428746       5.07174501        5      -0.00304658       0.00193344      -0.00297474
In       4.25743262       3.02135517       3.16645757        6      -0.00304658      -0.00193344       0.00297474
In       4.28430083       0.14614096       0.95264372        7       0.00304658      -0.00193344      -0.00297474
O        2.22445015       3.47095165       6.99608460        8       0.00010693       0.00371152      -0.00203569
O        0.62279433       0.59573744       5.36121926        9      -0.00010693       0.00371152       0.00203569
O        0.62279433       2.27947676       2.87698331       10      -0.00010693      -0.00371152      -0.00203569
O        2.22445015       5.15469097       1.24211798       11       0.00010693      -0.00371152       0.00203569
O        3.47003882       2.27947676       1.24211798       12      -0.00010693      -0.00371152       0.00203569
O        5.07169464       5.15469097       2.87698331       13       0.00010693      -0.00371152      -0.00203569
O        5.07169464       3.47095165       5.36121926       14       0.00010693       0.00371152       0.00203569
O        3.47003882       0.59573744       6.99608460       15      -0.00010693       0.00371152      -0.00203569
O        5.45477383       4.31282131      -0.00000000       16       0.00022078       0.00000000      -0.00000000
O        3.08695963       1.43760710       4.11910129       17      -0.00022078      -0.00000000       0.00000000
O        0.23971514       1.43760710      -0.00000000       18      -0.00022078      -0.00000000      -0.00000000
O        2.60752934       4.31282131       4.11910129       19       0.00022078      -0.00000000       0.00000000
