20
Lattice="5.643316847089188 -3.0507874169110152e-61 -9.869040942118117e-44 -5.746828746533471e-62 5.7151228074719285 1.408036122044327e-17 1.5532177386073062e-43 1.858775005230377e-17 8.16510904595535" Properties=species:S:1:pos:R:3:spacegroup_kinds:I:1:forces:R:3 spacegroup="P 1" unit_cell=conventional occupancy="_JSON {\"0\": {\"In\": 1}, \"1\": {\"In\": 1}, \"2\": {\"In\": 1}, \"3\": {\"In\": 1}, \"4\": {\"In\": 1}, \"5\": {\"In\": 1}, \"6\": {\"In\": 1}, \"7\": {\"In\": 1}, \"8\": {\"O\": 1}, \"9\": {\"O\": 1}, \"10\": {\"O\": 1}, \"11\": {\"O\": 1}, \"12\": {\"O\": 1}, \"13\": {\"O\": 1}, \"14\": {\"O\": 1}, \"15\": {\"O\": 1}, \"16\": {\"O\": 1}, \"17\": {\"O\": 1}, \"18\": {\"O\": 1}, \"19\": {\"O\": 1}}" n_minim_iter=6 energy=-22574.912353489442 stress="0.015026508241709516 2.388163557052328e-13 3.1669603344202815e-13 2.388163557052328e-13 0.015045035964329264 1.762575103359204e-14 3.1669603344202815e-13 1.762575103359204e-14 0.015031115112308882" free_energy=-22574.912353489442 pbc="T T T"
In       1.39831257       3.01122398       0.93991341        0      -0.00152588      -0.00189972      -0.00347137
In       1.42334586       0.15366258       3.14264111        1       0.00152588      -0.00189972       0.00347137
In       1.42334586       2.70389883       5.02246794        2       0.00152588       0.00189972      -0.00347137
In       1.39831257       5.56146023       7.22519563        3      -0.00152588       0.00189972       0.00347137
In       4.24500428       2.70389883       7.22519563        4       0.00152588       0.00189972       0.00347137
In       4.21997099       5.56146023       5.02246794        5      -0.00152588       0.00189972      -0.00347137
In       4.21997099       3.01122398       3.14264111        6      -0.00152588      -0.00189972       0.00347137
In       4.24500428       0.15366258       0.93991341        7       0.00152588      -0.00189972      -0.00347137
O        2.20291090       3.45146429       6.93480782        8      -0.00021142       0.00336450      -0.00349714
O        0.61874752       0.59390289       5.31285575        9       0.00021142       0.00336450       0.00349714
O        0.61874752       2.26365852       2.85225330       10       0.00021142      -0.00336450      -0.00349714
O        2.20291090       5.12121992       1.23030123       11      -0.00021142      -0.00336450       0.00349714
O        3.44040595       2.26365852       1.23030123       12       0.00021142      -0.00336450       0.00349714
O        5.02456932       5.12121992       2.85225330       13      -0.00021142      -0.00336450      -0.00349714
O        5.02456932       3.45146429       5.31285575       14      -0.00021142       0.00336450       0.00349714
O        3.44040595       0.59390289       6.93480782       15       0.00021142       0.00336450      -0.00349714
O        5.40822859       4.28634211      -0.00000000       16       0.00156543       0.00000000      -0.00000000
O        3.05674668       1.42878070       4.08255452       17      -0.00156543       0.00000000      -0.00000000
O        0.23508826       1.42878070      -0.00000000       18      -0.00156543       0.00000000       0.00000000
O        2.58657016       4.28634211       4.08255452       19       0.00156543       0.00000000      -0.00000000
