20
Lattice="5.698701568346655 1.661311028048865e-58 1.6255807835672414e-43 -1.5780410367735649e-58 5.971132687595592 4.509190693669009e-16 -6.506753747360079e-44 -6.004188458145936e-16 9.249144785115561" Properties=species:S:1:pos:R:3:spacegroup_kinds:I:1:forces:R:3 spacegroup="P 1" unit_cell=conventional occupancy="_JSON {\"0\": {\"In\": 1}, \"1\": {\"In\": 1}, \"2\": {\"In\": 1}, \"3\": {\"In\": 1}, \"4\": {\"In\": 1}, \"5\": {\"In\": 1}, \"6\": {\"In\": 1}, \"7\": {\"In\": 1}, \"8\": {\"O\": 1}, \"9\": {\"O\": 1}, \"10\": {\"O\": 1}, \"11\": {\"O\": 1}, \"12\": {\"O\": 1}, \"13\": {\"O\": 1}, \"14\": {\"O\": 1}, \"15\": {\"O\": 1}, \"16\": {\"O\": 1}, \"17\": {\"O\": 1}, \"18\": {\"O\": 1}, \"19\": {\"O\": 1}}" n_minim_iter=10 energy=-22572.611299136668 stress="0.08143141384550387 8.13016745124702e-14 -4.4960329401538463e-13 8.13016745124702e-14 0.08168710499002137 6.638803036029837e-13 -4.4960329401538463e-13 6.638803036029837e-13 0.08170404084730405" free_energy=-22572.611299136668 pbc="T T T"
In       1.34575313       3.20377900       1.15764153        0      -0.00071044      -0.00076946      -0.00906361
In       1.50359766       0.21821265       3.46693086        1       0.00071044      -0.00076946       0.00906361
In       1.50359766       2.76735369       5.78221393        2       0.00071044       0.00076946      -0.00906361
In       1.34575313       5.75292003       8.09150325        3      -0.00071044       0.00076946       0.00906361
In       4.35294844       2.76735369       8.09150325        4       0.00071044       0.00076946       0.00906361
In       4.19510391       5.75292003       5.78221393        5      -0.00071044       0.00076946      -0.00906361
In       4.19510391       3.20377900       3.46693086        6      -0.00071044      -0.00076946       0.00906361
In       4.35294844       0.21821265       1.15764153        7       0.00071044      -0.00076946      -0.00906361
O        2.27913898       3.58693895       7.71548633        8       0.00592843      -0.00375091       0.00114154
O        0.57021181       0.60137261       6.15823085        9      -0.00592843      -0.00375091      -0.00114154
O        0.57021181       2.38419373       3.09091394       10      -0.00592843       0.00375091       0.00114154
O        2.27913898       5.36976008       1.53365845       11       0.00592843       0.00375091      -0.00114154
O        3.41956259       2.38419373       1.53365845       12      -0.00592843       0.00375091      -0.00114154
O        5.12848976       5.36976008       3.09091394       13       0.00592843       0.00375091       0.00114154
O        5.12848976       3.58693895       6.15823085       14       0.00592843      -0.00375091      -0.00114154
O        3.41956259       0.60137261       7.71548633       15      -0.00592843      -0.00375091       0.00114154
O        5.44779089       4.47834952      -0.00000000       16      -0.00195241      -0.00000000       0.00000000
O        3.10026147       1.49278317       4.62457239       17       0.00195241      -0.00000000       0.00000000
O        0.25091068       1.49278317      -0.00000000       18       0.00195241       0.00000000      -0.00000000
O        2.59844010       4.47834952       4.62457239       19      -0.00195241      -0.00000000      -0.00000000
