20
Lattice="5.743676779781346 1.5623051313280175e-58 -5.31569684731181e-43 -1.719621019928299e-58 6.013786230407186 3.8834362564409483e-16 6.0626387359490214e-43 -6.0674842406103665e-16 9.297585048654813" Properties=species:S:1:pos:R:3:spacegroup_kinds:I:1:forces:R:3 spacegroup="P 1" unit_cell=conventional occupancy="_JSON {\"0\": {\"In\": 1}, \"1\": {\"In\": 1}, \"2\": {\"In\": 1}, \"3\": {\"In\": 1}, \"4\": {\"In\": 1}, \"5\": {\"In\": 1}, \"6\": {\"In\": 1}, \"7\": {\"In\": 1}, \"8\": {\"O\": 1}, \"9\": {\"O\": 1}, \"10\": {\"O\": 1}, \"11\": {\"O\": 1}, \"12\": {\"O\": 1}, \"13\": {\"O\": 1}, \"14\": {\"O\": 1}, \"15\": {\"O\": 1}, \"16\": {\"O\": 1}, \"17\": {\"O\": 1}, \"18\": {\"O\": 1}, \"19\": {\"O\": 1}}" n_minim_iter=9 energy=-22572.034365159467 stress="0.09789024177326544 -3.8998899401171084e-13 -3.1491569804127334e-13 -3.8998899401171084e-13 0.09790486379486242 -1.9530231796800742e-13 -3.1491569804127334e-13 -1.9530231796800742e-13 0.09789302518430329" free_energy=-22572.034365159467 pbc="T T T"
In       1.34396045       3.24437287       1.17175187        0       0.00166707      -0.00016766      -0.00019681
In       1.52787794       0.23747975       3.47704066        1      -0.00166707      -0.00016766       0.00019681
In       1.52787794       2.76941336       5.82054439        2      -0.00166707       0.00016766      -0.00019681
In       1.34396045       5.77630648       8.12583318        3       0.00166707       0.00016766       0.00019681
In       4.39971633       2.76941336       8.12583318        4      -0.00166707       0.00016766       0.00019681
In       4.21579884       5.77630648       5.82054439        5       0.00166707       0.00016766      -0.00019681
In       4.21579884       3.24437287       3.47704066        6       0.00166707      -0.00016766       0.00019681
In       4.39971633       0.23747975       1.17175187        7      -0.00166707      -0.00016766      -0.00019681
O        2.32415035       3.61496934       7.74499660        8       0.00271792      -0.00308053       0.00490619
O        0.54768804       0.60807623       6.20138097        9      -0.00271792      -0.00308053      -0.00490619
O        0.54768804       2.39881689       3.09620408       10      -0.00271792       0.00308053       0.00490619
O        2.32415035       5.40571001       1.55258844       11       0.00271792       0.00308053      -0.00490619
O        3.41952643       2.39881689       1.55258844       12      -0.00271792       0.00308053      -0.00490619
O        5.19598874       5.40571001       3.09620408       13       0.00271792       0.00308053       0.00490619
O        5.19598874       3.61496934       6.20138097       14       0.00271792      -0.00308053      -0.00490619
O        3.41952643       0.60807623       7.74499660       15      -0.00271792      -0.00308053       0.00490619
O        5.51140918       4.51033967      -0.00000000       16       0.00083646       0.00000000       0.00000000
O        3.10410599       1.50344656       4.64879252       17      -0.00083646       0.00000000      -0.00000000
O        0.23226760       1.50344656      -0.00000000       18      -0.00083646      -0.00000000       0.00000000
O        2.63957079       4.51033967       4.64879252       19       0.00083646       0.00000000      -0.00000000
