20
Lattice="5.785279897884526 7.33535910305093e-61 4.154790149585607e-44 -5.486018276999821e-61 5.834124016202936 -2.661324171650628e-17 -6.01333635023113e-44 3.819556162800457e-17 8.373186768453335" Properties=species:S:1:pos:R:3:spacegroup_kinds:I:1:forces:R:3 spacegroup="P 1" unit_cell=conventional occupancy="_JSON {\"0\": {\"In\": 1}, \"1\": {\"In\": 1}, \"2\": {\"In\": 1}, \"3\": {\"In\": 1}, \"4\": {\"In\": 1}, \"5\": {\"In\": 1}, \"6\": {\"In\": 1}, \"7\": {\"In\": 1}, \"8\": {\"O\": 1}, \"9\": {\"O\": 1}, \"10\": {\"O\": 1}, \"11\": {\"O\": 1}, \"12\": {\"O\": 1}, \"13\": {\"O\": 1}, \"14\": {\"O\": 1}, \"15\": {\"O\": 1}, \"16\": {\"O\": 1}, \"17\": {\"O\": 1}, \"18\": {\"O\": 1}, \"19\": {\"O\": 1}}" n_minim_iter=1 energy=-22574.219784116918 stress="0.055260341475604075 -1.4403674814121568e-13 -1.8824493944164603e-13 -1.4403674814121568e-13 0.0564932318268882 -4.710616182015663e-13 -1.8824493944164603e-13 -4.710616182015663e-13 0.05546708492358611" free_energy=-22574.219784116918 pbc="T T T"
In       1.43145326       3.05894968       0.97167917        0      -0.00860056      -0.03769588       0.03684764
In       1.46118669       0.14188768       3.21491422        1       0.00860056      -0.03769588      -0.03684764
In       1.46118669       2.77517433       5.15827255        2       0.00860056       0.03769588       0.03684764
In       1.43145326       5.69223634       7.40150760        3      -0.00860056       0.03769588      -0.03684764
In       4.35382664       2.77517433       7.40150760        4       0.00860056       0.03769588      -0.03684764
In       4.32409321       5.69223634       5.15827255        5      -0.00860056       0.03769588       0.03684764
In       4.32409321       3.05894968       3.21491422        6      -0.00860056      -0.03769588      -0.03684764
In       4.35382664       0.14188768       0.97167917        7       0.00860056      -0.03769588       0.03684764
O        2.26171389       3.51802233       7.10806370        8       0.01855083      -0.04229440      -0.03837887
O        0.63092606       0.60096032       5.45171645        9      -0.01855083      -0.04229440       0.03837887
O        0.63092606       2.31610169       2.92147032       10      -0.01855083       0.04229440      -0.03837887
O        2.26171389       5.23316370       1.26512307       11       0.01855083       0.04229440       0.03837887
O        3.52356601       2.31610169       1.26512307       12      -0.01855083       0.04229440       0.03837887
O        5.15435383       5.23316370       2.92147032       13       0.01855083       0.04229440      -0.03837887
O        5.15435383       3.51802233       5.45171645       14       0.01855083      -0.04229440       0.03837887
O        3.52356601       0.60096032       7.10806370       15      -0.01855083      -0.04229440      -0.03837887
O        5.53492240       4.37559301      -0.00000000       16      -0.07713778      -0.00000000      -0.00000000
O        3.14299744       1.45853100       4.18659338       17       0.07713778       0.00000000      -0.00000000
O        0.25035749       1.45853100      -0.00000000       18       0.07713778      -0.00000000       0.00000000
O        2.64228246       4.37559301       4.18659338       19      -0.07713778       0.00000000      -0.00000000
20
Lattice="5.792766242040652 7.339237134951119e-61 4.156804545834361e-44 -5.473730757711036e-61 5.822297113824877 -2.663283773974427e-17 -6.022630091317285e-44 3.81181318069389e-17 8.379352164019892" Properties=species:S:1:pos:R:3:spacegroup_kinds:I:1:forces:R:3 spacegroup="P 1" unit_cell=conventional occupancy="_JSON {\"0\": {\"In\": 1}, \"1\": {\"In\": 1}, \"2\": {\"In\": 1}, \"3\": {\"In\": 1}, \"4\": {\"In\": 1}, \"5\": {\"In\": 1}, \"6\": {\"In\": 1}, \"7\": {\"In\": 1}, \"8\": {\"O\": 1}, \"9\": {\"O\": 1}, \"10\": {\"O\": 1}, \"11\": {\"O\": 1}, \"12\": {\"O\": 1}, \"13\": {\"O\": 1}, \"14\": {\"O\": 1}, \"15\": {\"O\": 1}, \"16\": {\"O\": 1}, \"17\": {\"O\": 1}, \"18\": {\"O\": 1}, \"19\": {\"O\": 1}}" n_minim_iter=2 energy=-22574.220473908197 stress="0.056085125360243536 6.062633638270029e-13 -8.047604775469038e-14 6.062633638270029e-13 0.054747375115815546 7.283528068139706e-13 -8.047604775469038e-14 7.283528068139706e-13 0.05567205433793032" free_energy=-22574.220473908197 pbc="T T T"
In       1.43322349       3.05238988       0.97274626        0      -0.00186893      -0.04105140       0.03878192
In       1.46315963       0.14124132       3.21692982        1       0.00186893      -0.04105140      -0.03878192
In       1.46315963       2.76990723       5.16242234        2       0.00186893       0.04105140       0.03878192
In       1.43322349       5.68105579       7.40660591        3      -0.00186893       0.04105140      -0.03878192
In       4.35954275       2.76990723       7.40660591        4       0.00186893       0.04105140      -0.03878192
In       4.32960661       5.68105579       5.16242234        5      -0.00186893       0.04105140       0.03878192
In       4.32960661       3.05238988       3.21692982        6      -0.00186893      -0.04105140      -0.03878192
In       4.35954275       0.14124132       0.97274626        7       0.00186893      -0.04105140       0.03878192
O        2.26481774       3.51048813       7.11293132        8       0.01364988      -0.03910870      -0.03517530
O        0.63156538       0.59933958       5.45609692        9      -0.01364988      -0.03910870       0.03517530
O        0.63156538       2.31180898       2.92325524       10      -0.01364988       0.03910870      -0.03517530
O        2.26481774       5.22295754       1.26642084       11       0.01364988       0.03910870       0.03517530
O        3.52794850       2.31180898       1.26642084       12      -0.01364988       0.03910870       0.03517530
O        5.16120086       5.22295754       2.92325524       13       0.01364988       0.03910870      -0.03517530
O        5.16120086       3.51048813       5.45609692       14       0.01364988      -0.03910870       0.03517530
O        3.52794850       0.59933958       7.11293132       15      -0.01364988      -0.03910870      -0.03517530
O        5.54134828       4.36672284      -0.00000000       16      -0.06997207      -0.00000000      -0.00000000
O        3.14780108       1.45557428       4.18967608       17       0.06997207      -0.00000000       0.00000000
O        0.25141796       1.45557428      -0.00000000       18       0.06997207      -0.00000000      -0.00000000
O        2.64496516       4.36672284       4.18967608       19      -0.06997207      -0.00000000      -0.00000000
20
Lattice="5.783883296040329 7.331411907391048e-61 4.144260186707967e-44 -5.465553514827515e-61 5.822962104233109 -2.6670694540714188e-17 -6.040106654189247e-44 3.812248544804236e-17 8.391262853756754" Properties=species:S:1:pos:R:3:spacegroup_kinds:I:1:forces:R:3 spacegroup="P 1" unit_cell=conventional occupancy="_JSON {\"0\": {\"In\": 1}, \"1\": {\"In\": 1}, \"2\": {\"In\": 1}, \"3\": {\"In\": 1}, \"4\": {\"In\": 1}, \"5\": {\"In\": 1}, \"6\": {\"In\": 1}, \"7\": {\"In\": 1}, \"8\": {\"O\": 1}, \"9\": {\"O\": 1}, \"10\": {\"O\": 1}, \"11\": {\"O\": 1}, \"12\": {\"O\": 1}, \"13\": {\"O\": 1}, \"14\": {\"O\": 1}, \"15\": {\"O\": 1}, \"16\": {\"O\": 1}, \"17\": {\"O\": 1}, \"18\": {\"O\": 1}, \"19\": {\"O\": 1}}" n_minim_iter=3 energy=-22574.224080649114 stress="0.05412004341884637 -1.3357349022645059e-12 4.429347447295433e-13 -1.3357349022645059e-12 0.054322054407657194 -1.1326491242587827e-12 4.429347447295433e-13 -1.1326491242587827e-12 0.05484249979977668" free_energy=-22574.224080649114 pbc="T T T"
In       1.43050394       3.04881326       0.97791934        0      -0.00059112       0.00437489       0.01286048
In       1.46143770       0.13733220       3.21771209        1       0.00059112       0.00437489      -0.01286048
In       1.46143770       2.77414885       5.17355076        2       0.00059112      -0.00437489       0.01286048
In       1.43050394       5.68562990       7.41334352        3      -0.00059112      -0.00437489      -0.01286048
In       4.35337935       2.77414885       7.41334352        4       0.00059112      -0.00437489      -0.01286048
In       4.32244559       5.68562990       5.17355076        5      -0.00059112      -0.00437489       0.01286048
In       4.32244559       3.04881326       3.21771209        6      -0.00059112       0.00437489      -0.01286048
In       4.35337935       0.13733220       0.97791934        7       0.00059112       0.00437489       0.01286048
O        2.26295366       3.50683264       7.11935678        8      -0.00357928      -0.00271988      -0.00300185
O        0.62898799       0.59535159       5.46753750        9       0.00357928      -0.00271988       0.00300185
O        0.62898799       2.31612946       2.92372535       10       0.00357928       0.00271988      -0.00300185
O        2.26295366       5.22761051       1.27190608       11      -0.00357928       0.00271988       0.00300185
O        3.52092963       2.31612946       1.27190608       12       0.00357928       0.00271988       0.00300185
O        5.15489531       5.22761051       2.92372535       13      -0.00357928       0.00271988      -0.00300185
O        5.15489531       3.50683264       5.46753750       14      -0.00357928      -0.00271988       0.00300185
O        3.52092963       0.59535159       7.11935678       15       0.00357928      -0.00271988      -0.00300185
O        5.52549647       4.36722158      -0.00000000       16       0.00309307       0.00000000      -0.00000000
O        3.15032847       1.45574053       4.19563143       17      -0.00309307       0.00000000      -0.00000000
O        0.25838682       1.45574053      -0.00000000       18      -0.00309307      -0.00000000      -0.00000000
O        2.63355482       4.36722158       4.19563143       19       0.00309307      -0.00000000      -0.00000000
20
Lattice="5.786451997973743 -4.2576000040025775e-61 4.041913924029355e-45 1.840279422917832e-61 5.823864866668556 -2.515057344970566e-17 -2.150291348409753e-44 4.0286730730529196e-17 8.386237673472541" Properties=species:S:1:pos:R:3:spacegroup_kinds:I:1:forces:R:3 spacegroup="P 1" unit_cell=conventional occupancy="_JSON {\"0\": {\"In\": 1}, \"1\": {\"In\": 1}, \"2\": {\"In\": 1}, \"3\": {\"In\": 1}, \"4\": {\"In\": 1}, \"5\": {\"In\": 1}, \"6\": {\"In\": 1}, \"7\": {\"In\": 1}, \"8\": {\"O\": 1}, \"9\": {\"O\": 1}, \"10\": {\"O\": 1}, \"11\": {\"O\": 1}, \"12\": {\"O\": 1}, \"13\": {\"O\": 1}, \"14\": {\"O\": 1}, \"15\": {\"O\": 1}, \"16\": {\"O\": 1}, \"17\": {\"O\": 1}, \"18\": {\"O\": 1}, \"19\": {\"O\": 1}}" n_minim_iter=4 energy=-22574.22414477391 stress="0.05444461719788708 6.327278198026997e-13 1.3026216343277317e-13 6.327278198026997e-13 0.05442737156631984 -5.436575001381192e-13 1.3026216343277317e-13 -5.436575001381192e-13 0.05440688146197178" free_energy=-22574.22414477391 pbc="T T T"
In       1.43112686       3.04924073       0.97746884        0       0.00133791       0.00600820       0.00887240
In       1.46209914       0.13730830       3.21565000        1      -0.00133791       0.00600820      -0.00887240
In       1.46209914       2.77462414       5.17058767        2      -0.00133791      -0.00600820       0.00887240
In       1.43112686       5.68655657       7.40876884        3       0.00133791      -0.00600820      -0.00887240
In       4.35532514       2.77462414       7.40876884        4      -0.00133791      -0.00600820      -0.00887240
In       4.32435286       5.68655657       5.17058767        5       0.00133791      -0.00600820       0.00887240
In       4.32435286       3.04924073       3.21565000        6       0.00133791       0.00600820      -0.00887240
In       4.35532514       0.13730830       0.97746884        7      -0.00133791       0.00600820       0.00887240
O        2.26396773       3.50729093       7.11501281        8      -0.00081331      -0.00233217       0.00289397
O        0.62925827       0.59535849       5.46434370        9       0.00081331      -0.00233217      -0.00289397
O        0.62925827       2.31657394       2.92189397       10       0.00081331       0.00233217       0.00289397
O        2.26396773       5.22850637       1.27122487       11      -0.00081331       0.00233217      -0.00289397
O        3.52248427       2.31657394       1.27122487       12       0.00081331       0.00233217      -0.00289397
O        5.15719373       5.22850637       2.92189397       13      -0.00081331       0.00233217       0.00289397
O        5.15719373       3.50729093       5.46434370       14      -0.00081331      -0.00233217      -0.00289397
O        3.52248427       0.59535849       7.11501281       15       0.00081331      -0.00233217       0.00289397
O        5.52783834       4.36789865      -0.00000000       16       0.00264728      -0.00000000      -0.00000000
O        3.15183965       1.45596622       4.19311884       17      -0.00264728      -0.00000000      -0.00000000
O        0.25861365       1.45596622      -0.00000000       18      -0.00264728       0.00000000       0.00000000
O        2.63461235       4.36789865       4.19311884       19       0.00264728       0.00000000       0.00000000
20
Lattice="5.785911612268601 -4.634912027830579e-61 -4.951569393184944e-44 7.486871784561044e-61 5.824014962980848 -2.0666514231419002e-17 -2.152769095940638e-43 4.6725771880560804e-17 8.386804771331427" Properties=species:S:1:pos:R:3:spacegroup_kinds:I:1:forces:R:3 spacegroup="P 1" unit_cell=conventional occupancy="_JSON {\"0\": {\"In\": 1}, \"1\": {\"In\": 1}, \"2\": {\"In\": 1}, \"3\": {\"In\": 1}, \"4\": {\"In\": 1}, \"5\": {\"In\": 1}, \"6\": {\"In\": 1}, \"7\": {\"In\": 1}, \"8\": {\"O\": 1}, \"9\": {\"O\": 1}, \"10\": {\"O\": 1}, \"11\": {\"O\": 1}, \"12\": {\"O\": 1}, \"13\": {\"O\": 1}, \"14\": {\"O\": 1}, \"15\": {\"O\": 1}, \"16\": {\"O\": 1}, \"17\": {\"O\": 1}, \"18\": {\"O\": 1}, \"19\": {\"O\": 1}}" n_minim_iter=5 energy=-22574.224222298886 stress="0.054383520612418065 -5.937259752499333e-13 1.6652412788196023e-13 -5.937259752499333e-13 0.05446467558246436 2.830624988507306e-13 1.6652412788196023e-13 2.830624988507306e-13 0.054393847323424116" free_energy=-22574.224222298886 pbc="T T T"
In       1.43116567       3.05012925       0.97886662        0      -0.00514406       0.00271761      -0.00134112
In       1.46179013       0.13812177       3.21453577        1       0.00514406       0.00271761       0.00134112
In       1.46179013       2.77388571       5.17226900        2       0.00514406      -0.00271761      -0.00134112
In       1.43116567       5.68589319       7.40793815        3      -0.00514406      -0.00271761       0.00134112
In       4.35474594       2.77388571       7.40793815        4       0.00514406      -0.00271761       0.00134112
In       4.32412148       5.68589319       5.17226900        5      -0.00514406      -0.00271761      -0.00134112
In       4.32412148       3.05012925       3.21453577        6      -0.00514406       0.00271761       0.00134112
In       4.35474594       0.13812177       0.97886662        7       0.00514406       0.00271761      -0.00134112
O        2.26363911       3.50700816       7.11583679        8       0.00166111      -0.00224677       0.00159827
O        0.62931669       0.59500067       5.46437036        9      -0.00166111      -0.00224677      -0.00159827
O        0.62931669       2.31700681       2.92243441       10      -0.00166111       0.00224677       0.00159827
O        2.26363911       5.22901429       1.27096798       11       0.00166111       0.00224677      -0.00159827
O        3.52227250       2.31700681       1.27096798       12      -0.00166111       0.00224677      -0.00159827
O        5.15659492       5.22901429       2.92243441       13       0.00166111       0.00224677       0.00159827
O        5.15659492       3.50700816       5.46437036       14       0.00166111      -0.00224677      -0.00159827
O        3.52227250       0.59500067       7.11583679       15      -0.00166111      -0.00224677       0.00159827
O        5.52763297       4.36801122      -0.00000000       16      -0.00397210       0.00000000       0.00000000
O        3.15123445       1.45600374       4.19340239       17       0.00397210       0.00000000      -0.00000000
O        0.25827864       1.45600374      -0.00000000       18       0.00397210       0.00000000      -0.00000000
O        2.63467716       4.36801122       4.19340239       19      -0.00397210       0.00000000      -0.00000000
