20
Lattice="5.4289623922237205 -7.347320882620228e-60 2.9979721935040434e-43 1.6357692060309532e-59 5.517102081449952 -1.610067491252972e-16 -4.263080654045679e-43 2.2529203798012277e-16 7.719919683037342" Properties=species:S:1:pos:R:3:spacegroup_kinds:I:1:forces:R:3 spacegroup="P 1" unit_cell=conventional occupancy="_JSON {\"0\": {\"In\": 1}, \"1\": {\"In\": 1}, \"2\": {\"In\": 1}, \"3\": {\"In\": 1}, \"4\": {\"In\": 1}, \"5\": {\"In\": 1}, \"6\": {\"In\": 1}, \"7\": {\"In\": 1}, \"8\": {\"O\": 1}, \"9\": {\"O\": 1}, \"10\": {\"O\": 1}, \"11\": {\"O\": 1}, \"12\": {\"O\": 1}, \"13\": {\"O\": 1}, \"14\": {\"O\": 1}, \"15\": {\"O\": 1}, \"16\": {\"O\": 1}, \"17\": {\"O\": 1}, \"18\": {\"O\": 1}, \"19\": {\"O\": 1}}" n_minim_iter=1 energy=-22574.161823082057 stress="-0.07443134015801302 9.253493979748946e-14 1.6242241491582055e-14 9.253493979748946e-14 -0.06941272406149068 3.0920465322284904e-13 1.6242241491582055e-14 3.0920465322284904e-13 -0.06960419141806315" free_energy=-22574.161823082057 pbc="T T T"
In       1.35378641       2.92865553       0.89414678        0       0.04022138       0.01501257       0.09194717
In       1.36069479       0.17010449       2.96581306        1      -0.04022138       0.01501257      -0.09194717
In       1.36069479       2.58844655       4.75410662        2      -0.04022138      -0.01501257       0.09194717
In       1.35378641       5.34699759       6.82577290        3       0.04022138      -0.01501257      -0.09194717
In       4.07517598       2.58844655       6.82577290        4      -0.04022138      -0.01501257      -0.09194717
In       4.06826761       5.34699759       4.75410662        5       0.04022138      -0.01501257       0.09194717
In       4.06826761       2.92865553       2.96581306        6       0.04022138       0.01501257      -0.09194717
In       4.07517598       0.17010449       0.89414678        7      -0.04022138       0.01501257       0.09194717
O        2.10995034       3.32804250       6.57013018        8      -0.03779522       0.01346364       0.06117175
O        0.60453086       0.56949146       5.00974934        9       0.03779522       0.01346364      -0.06117175
O        0.60453086       2.18905958       2.71017034       10       0.03779522      -0.01346364       0.06117175
O        2.10995034       4.94761062       1.14978950       11      -0.03779522      -0.01346364      -0.06117175
O        3.31901205       2.18905958       1.14978950       12       0.03779522      -0.01346364      -0.06117175
O        4.82443154       4.94761062       2.71017034       13      -0.03779522      -0.01346364       0.06117175
O        4.82443154       3.32804250       5.00974934       14      -0.03779522       0.01346364      -0.06117175
O        3.31901205       0.56949146       6.57013018       15       0.03779522       0.01346364       0.06117175
O        5.20476218       4.13782656      -0.00000000       16       0.05647460       0.00000000      -0.00000000
O        2.93868141       1.37927552       3.85995984       17      -0.05647460       0.00000000       0.00000000
O        0.22420021       1.37927552      -0.00000000       18      -0.05647460       0.00000000       0.00000000
O        2.49028098       4.13782656       3.85995984       19       0.05647460       0.00000000       0.00000000
20
Lattice="5.445660652264401 -1.0334502054297353e-59 3.012245047817668e-43 1.236296410193928e-59 5.508143469069456 -1.4334472628691878e-16 -4.243302478267208e-43 2.4932569699063733e-16 7.708765178033855" Properties=species:S:1:pos:R:3:spacegroup_kinds:I:1:forces:R:3 spacegroup="P 1" unit_cell=conventional occupancy="_JSON {\"0\": {\"In\": 1}, \"1\": {\"In\": 1}, \"2\": {\"In\": 1}, \"3\": {\"In\": 1}, \"4\": {\"In\": 1}, \"5\": {\"In\": 1}, \"6\": {\"In\": 1}, \"7\": {\"In\": 1}, \"8\": {\"O\": 1}, \"9\": {\"O\": 1}, \"10\": {\"O\": 1}, \"11\": {\"O\": 1}, \"12\": {\"O\": 1}, \"13\": {\"O\": 1}, \"14\": {\"O\": 1}, \"15\": {\"O\": 1}, \"16\": {\"O\": 1}, \"17\": {\"O\": 1}, \"18\": {\"O\": 1}, \"19\": {\"O\": 1}}" n_minim_iter=2 energy=-22574.163849683984 stress="-0.0696731362681999 -1.4414031509135912e-12 -2.0515074609294202e-13 -1.4414031509135912e-12 -0.0702073210338092 -3.846896798410938e-15 -2.0515074609294202e-13 -3.846896798410938e-15 -0.07081126170567018" free_energy=-22574.163849683984 pbc="T T T"
In       1.35811362       2.92396067       0.89322639        0       0.06833953      -0.01760354       0.09641369
In       1.36471670       0.16988893       2.96115620        1      -0.06833953      -0.01760354      -0.09641369
In       1.36471670       2.58418280       4.74760898        2      -0.06833953       0.01760354       0.09641369
In       1.35811362       5.33825454       6.81553879        3       0.06833953       0.01760354      -0.09641369
In       4.08754703       2.58418280       6.81553879        4      -0.06833953       0.01760354      -0.09641369
In       4.08094395       5.33825454       4.74760898        5       0.06833953       0.01760354       0.09641369
In       4.08094395       2.92396067       2.96115620        6       0.06833953      -0.01760354      -0.09641369
In       4.08754703       0.16988893       0.89322639        7      -0.06833953      -0.01760354       0.09641369
O        2.11628665       3.32269286       6.56088420        8      -0.00288615      -0.00045810       0.07441120
O        0.60654368       0.56862113       5.00226356        9       0.00288615      -0.00045810      -0.07441120
O        0.60654368       2.18545061       2.70650161       10       0.00288615       0.00045810       0.07441120
O        2.11628665       4.93952234       1.14788098       11      -0.00288615       0.00045810      -0.07441120
O        3.32937400       2.18545061       1.14788098       12       0.00288615       0.00045810      -0.07441120
O        4.83911697       4.93952234       2.70650161       13      -0.00288615       0.00045810       0.07441120
O        4.83911697       3.32269286       5.00226356       14      -0.00288615      -0.00045810      -0.07441120
O        3.32937400       0.56862113       6.56088420       15       0.00288615      -0.00045810       0.07441120
O        5.22100010       4.13110760      -0.00000000       16       0.07106850      -0.00000000      -0.00000000
O        2.94749088       1.37703587       3.85438259       17      -0.07106850       0.00000000       0.00000000
O        0.22466056       1.37703587      -0.00000000       18      -0.07106850      -0.00000000      -0.00000000
O        2.49816977       4.13110760       3.85438259       19       0.07106850       0.00000000      -0.00000000
20
Lattice="5.453206057109956 -9.800880050385018e-60 3.066805584704931e-43 1.207321366505521e-59 5.486869298595125 -1.3340765865525528e-16 -4.099918910798024e-43 2.627453395140424e-16 7.727946580675636" Properties=species:S:1:pos:R:3:spacegroup_kinds:I:1:forces:R:3 spacegroup="P 1" unit_cell=conventional occupancy="_JSON {\"0\": {\"In\": 1}, \"1\": {\"In\": 1}, \"2\": {\"In\": 1}, \"3\": {\"In\": 1}, \"4\": {\"In\": 1}, \"5\": {\"In\": 1}, \"6\": {\"In\": 1}, \"7\": {\"In\": 1}, \"8\": {\"O\": 1}, \"9\": {\"O\": 1}, \"10\": {\"O\": 1}, \"11\": {\"O\": 1}, \"12\": {\"O\": 1}, \"13\": {\"O\": 1}, \"14\": {\"O\": 1}, \"15\": {\"O\": 1}, \"16\": {\"O\": 1}, \"17\": {\"O\": 1}, \"18\": {\"O\": 1}, \"19\": {\"O\": 1}}" n_minim_iter=3 energy=-22574.168385532863 stress="-0.06851471281207232 -4.0741233104728583e-13 8.557446571286004e-14 -4.0741233104728583e-13 -0.07166793640399886 -3.785236977286134e-13 8.557446571286004e-14 -3.785236977286134e-13 -0.0657335470019481" free_energy=-22574.168385532863 pbc="T T T"
In       1.36329718       2.91205761       0.90039212        0      -0.02630673      -0.07167433       0.08147380
In       1.36330584       0.16862296       2.96358117        1       0.02630673      -0.07167433      -0.08147380
In       1.36330584       2.57481169       4.76436541        2       0.02630673       0.07167433       0.08147380
In       1.36329718       5.31824634       6.82755446        3      -0.02630673       0.07167433      -0.08147380
In       4.08990887       2.57481169       6.82755446        4       0.02630673       0.07167433      -0.08147380
In       4.08990021       5.31824634       4.76436541        5      -0.02630673       0.07167433       0.08147380
In       4.08990021       2.91205761       2.96358117        6      -0.02630673      -0.07167433      -0.08147380
In       4.08990887       0.16862296       0.90039212        7       0.02630673      -0.07167433       0.08147380
O        2.11875079       3.30996158       6.58093560        8      -0.01776622      -0.04349036       0.03265345
O        0.60785224       0.56652693       5.01098427        9       0.01776622      -0.04349036      -0.03265345
O        0.60785224       2.17690772       2.71696231       10       0.01776622       0.04349036       0.03265345
O        2.11875079       4.92034237       1.14701098       11      -0.01776622       0.04349036      -0.03265345
O        3.33445527       2.17690772       1.14701098       12       0.01776622       0.04349036      -0.03265345
O        4.84535382       4.92034237       2.71696231       13      -0.01776622       0.04349036       0.03265345
O        4.84535382       3.30996158       5.01098427       14      -0.01776622      -0.04349036      -0.03265345
O        3.33445527       0.56652693       6.58093560       15       0.01776622      -0.04349036       0.03265345
O        5.23180123       4.11515197      -0.00000000       16       0.03130207      -0.00000000      -0.00000000
O        2.94800785       1.37171732       3.86397329       17      -0.03130207       0.00000000      -0.00000000
O        0.22140483       1.37171732      -0.00000000       18      -0.03130207       0.00000000      -0.00000000
O        2.50519820       4.11515197       3.86397329       19       0.03130207      -0.00000000      -0.00000000
20
Lattice="5.458642755095257 -1.0448990736408816e-59 3.028750151277591e-43 1.117298257689106e-59 5.497691020815216 -1.2971775292687684e-16 -4.052260076824745e-43 2.6787372066084197e-16 7.705053067991729" Properties=species:S:1:pos:R:3:spacegroup_kinds:I:1:forces:R:3 spacegroup="P 1" unit_cell=conventional occupancy="_JSON {\"0\": {\"In\": 1}, \"1\": {\"In\": 1}, \"2\": {\"In\": 1}, \"3\": {\"In\": 1}, \"4\": {\"In\": 1}, \"5\": {\"In\": 1}, \"6\": {\"In\": 1}, \"7\": {\"In\": 1}, \"8\": {\"O\": 1}, \"9\": {\"O\": 1}, \"10\": {\"O\": 1}, \"11\": {\"O\": 1}, \"12\": {\"O\": 1}, \"13\": {\"O\": 1}, \"14\": {\"O\": 1}, \"15\": {\"O\": 1}, \"16\": {\"O\": 1}, \"17\": {\"O\": 1}, \"18\": {\"O\": 1}, \"19\": {\"O\": 1}}" n_minim_iter=4 energy=-22574.172488403412 stress="-0.06718905488370347 -7.07144584443225e-13 -1.589494242920544e-13 -7.07144584443225e-13 -0.0668965620395225 -4.833300291003973e-14 -1.589494242920544e-13 -4.833300291003973e-14 -0.06731321898144138" free_energy=-22574.172488403412 pbc="T T T"
In       1.36743870       2.91669426       0.90281488        0      -0.07283919      -0.02929042       0.01236885
In       1.36188268       0.16784875       2.94971165        1       0.07283919      -0.02929042      -0.01236885
In       1.36188268       2.58099676       4.75534142        2       0.07283919       0.02929042       0.01236885
In       1.36743870       5.32984227       6.80223818        3      -0.07283919       0.02929042      -0.01236885
In       4.09120406       2.58099676       6.80223818        4       0.07283919       0.02929042      -0.01236885
In       4.09676007       5.32984227       4.75534142        5      -0.07283919       0.02929042       0.01236885
In       4.09676007       2.91669426       2.94971165        6      -0.07283919      -0.02929042      -0.01236885
In       4.09120406       0.16784875       0.90281488        7       0.07283919      -0.02929042       0.01236885
O        2.12030097       3.31624605       6.56505358        8      -0.01857198      -0.02500742       0.03934884
O        0.60902041       0.56740054       4.99252602        9       0.01857198      -0.02500742      -0.03934884
O        0.60902041       2.18144497       2.71252704       10       0.01857198       0.02500742       0.03934884
O        2.12030097       4.93029048       1.13999949       11      -0.01857198       0.02500742      -0.03934884
O        3.33834179       2.18144497       1.13999949       12       0.01857198       0.02500742      -0.03934884
O        4.84962234       4.93029048       2.71252704       13      -0.01857198       0.02500742       0.03934884
O        4.84962234       3.31624605       4.99252602       14      -0.01857198      -0.02500742      -0.03934884
O        3.33834179       0.56740054       6.56505358       15       0.01857198      -0.02500742       0.03934884
O        5.24049220       4.12326827      -0.00000000       16      -0.01278122       0.00000000       0.00000000
O        2.94747193       1.37442276       3.85252653       17       0.01278122      -0.00000000      -0.00000000
O        0.21815056       1.37442276      -0.00000000       18       0.01278122       0.00000000       0.00000000
O        2.51117082       4.12326827       3.85252653       19      -0.01278122       0.00000000      -0.00000000
20
Lattice="5.463236289610172 3.6520436349490424e-60 3.2315972809961445e-43 1.1362712288762642e-59 5.486351478519376 -1.2757007048313222e-16 -4.1441835481723635e-43 2.705554549911617e-16 7.71448650187141" Properties=species:S:1:pos:R:3:spacegroup_kinds:I:1:forces:R:3 spacegroup="P 1" unit_cell=conventional occupancy="_JSON {\"0\": {\"In\": 1}, \"1\": {\"In\": 1}, \"2\": {\"In\": 1}, \"3\": {\"In\": 1}, \"4\": {\"In\": 1}, \"5\": {\"In\": 1}, \"6\": {\"In\": 1}, \"7\": {\"In\": 1}, \"8\": {\"O\": 1}, \"9\": {\"O\": 1}, \"10\": {\"O\": 1}, \"11\": {\"O\": 1}, \"12\": {\"O\": 1}, \"13\": {\"O\": 1}, \"14\": {\"O\": 1}, \"15\": {\"O\": 1}, \"16\": {\"O\": 1}, \"17\": {\"O\": 1}, \"18\": {\"O\": 1}, \"19\": {\"O\": 1}}" n_minim_iter=5 energy=-22574.175996309757 stress="-0.06558568660289904 6.506494749788325e-13 -3.624624352288604e-13 6.506494749788325e-13 -0.0660065618324429 -2.6233992420316585e-13 -3.624624352288604e-13 -2.6233992420316585e-13 -0.06606756638253744" free_energy=-22574.175996309757 pbc="T T T"
In       1.36532055       2.90777663       0.90844675        0      -0.01851525       0.00576645      -0.01041784
In       1.36629760       0.16460089       2.94879651        1       0.01851525       0.00576645       0.01041784
In       1.36629760       2.57857485       4.76569000        2       0.01851525      -0.00576645      -0.01041784
In       1.36532055       5.32175059       6.80603976        3      -0.01851525      -0.00576645       0.01041784
In       4.09791574       2.57857485       6.80603976        4       0.01851525      -0.00576645       0.01041784
In       4.09693869       5.32175059       4.76569000        5      -0.01851525      -0.00576645      -0.01041784
In       4.09693869       2.90777663       2.94879651        6      -0.01851525       0.00576645       0.01041784
In       4.09791574       0.16460089       0.90844675        7       0.01851525       0.00576645      -0.01041784
O        2.12036889       3.30744152       6.57849227        8       0.00871083      -0.02104048       0.03468946
O        0.61124926       0.56426578       4.99323749        9      -0.00871083      -0.02104048      -0.03468946
O        0.61124926       2.17890996       2.72124902       10      -0.00871083       0.02104048       0.03468946
O        2.12036889       4.92208570       1.13599424       11       0.00871083       0.02104048      -0.03468946
O        3.34286740       2.17890996       1.13599424       12      -0.00871083       0.02104048      -0.03468946
O        4.85198703       4.92208570       2.72124902       13       0.00871083       0.02104048       0.03468946
O        4.85198703       3.30744152       4.99323749       14       0.00871083      -0.02104048      -0.03468946
O        3.34286740       0.56426578       6.57849227       15      -0.00871083      -0.02104048       0.03468946
O        5.24647092       4.11476361      -0.00000000       16      -0.00993460      -0.00000000       0.00000000
O        2.94838351       1.37158787       3.85724325       17       0.00993460      -0.00000000       0.00000000
O        0.21676537       1.37158787      -0.00000000       18       0.00993460      -0.00000000       0.00000000
O        2.51485278       4.11476361       3.85724325       19      -0.00993460       0.00000000       0.00000000
20
Lattice="5.463052064813944 3.8534851764123233e-60 3.2227658820425727e-43 1.156052852580187e-59 5.483371646418332 -1.2015406675378035e-16 -4.12826081510834e-43 2.8088853191631776e-16 7.718939079060278" Properties=species:S:1:pos:R:3:spacegroup_kinds:I:1:forces:R:3 spacegroup="P 1" unit_cell=conventional occupancy="_JSON {\"0\": {\"In\": 1}, \"1\": {\"In\": 1}, \"2\": {\"In\": 1}, \"3\": {\"In\": 1}, \"4\": {\"In\": 1}, \"5\": {\"In\": 1}, \"6\": {\"In\": 1}, \"7\": {\"In\": 1}, \"8\": {\"O\": 1}, \"9\": {\"O\": 1}, \"10\": {\"O\": 1}, \"11\": {\"O\": 1}, \"12\": {\"O\": 1}, \"13\": {\"O\": 1}, \"14\": {\"O\": 1}, \"15\": {\"O\": 1}, \"16\": {\"O\": 1}, \"17\": {\"O\": 1}, \"18\": {\"O\": 1}, \"19\": {\"O\": 1}}" n_minim_iter=6 energy=-22574.17661035367 stress="-0.06545582910474569 3.4433489259539607e-13 -1.404196580993655e-13 3.4433489259539607e-13 -0.06552201067887935 9.60116684565156e-13 -1.404196580993655e-13 9.60116684565156e-13 -0.06550342148767407" free_energy=-22574.17661035367 pbc="T T T"
In       1.36360781       2.90523610       0.91047606        0       0.00206870       0.02195506      -0.00857035
In       1.36791822       0.16355027       2.94899348        1      -0.00206870       0.02195506       0.00857035
In       1.36791822       2.57813555       4.76994560        2      -0.00206870      -0.02195506      -0.00857035
In       1.36360781       5.31982137       6.80846302        3       0.00206870      -0.02195506       0.00857035
In       4.09944425       2.57813555       6.80846302        4      -0.00206870      -0.02195506       0.00857035
In       4.09513384       5.31982137       4.76994560        5       0.00206870      -0.02195506      -0.00857035
In       4.09513384       2.90523610       2.94899348        6       0.00206870       0.02195506       0.00857035
In       4.09944425       0.16355027       0.91047606        7      -0.00206870       0.02195506      -0.00857035
O        2.11977847       3.30449182       6.58501041        8       0.01317476      -0.01626050       0.02123859
O        0.61174757       0.56280600       4.99339821        9      -0.01317476      -0.01626050      -0.02123859
O        0.61174757       2.17887982       2.72554087       10      -0.01317476       0.01626050       0.02123859
O        2.11977847       4.92056565       1.13392867       11       0.01317476       0.01626050      -0.02123859
O        3.34327360       2.17887982       1.13392867       12      -0.01317476       0.01626050      -0.02123859
O        4.85130450       4.92056565       2.72554087       13       0.01317476       0.01626050       0.02123859
O        4.85130450       3.30449182       4.99339821       14       0.01317476      -0.01626050      -0.02123859
O        3.34327360       0.56280600       6.58501041       15      -0.01317476      -0.01626050       0.02123859
O        5.24666439       4.11252873      -0.00000000       16      -0.00838258      -0.00000000       0.00000000
O        2.94791370       1.37084291       3.85946954       17       0.00838258       0.00000000      -0.00000000
O        0.21638767       1.37084291      -0.00000000       18       0.00838258       0.00000000      -0.00000000
O        2.51513836       4.11252873       3.85946954       19      -0.00838258      -0.00000000       0.00000000
20
Lattice="5.463255781469077 3.851144270930498e-60 3.2295882950864935e-43 1.1595764975563487e-59 5.482040523362769 -1.198837795535482e-16 -4.160948157269419e-43 2.8123780006931056e-16 7.720525457596093" Properties=species:S:1:pos:R:3:spacegroup_kinds:I:1:forces:R:3 spacegroup="P 1" unit_cell=conventional occupancy="_JSON {\"0\": {\"In\": 1}, \"1\": {\"In\": 1}, \"2\": {\"In\": 1}, \"3\": {\"In\": 1}, \"4\": {\"In\": 1}, \"5\": {\"In\": 1}, \"6\": {\"In\": 1}, \"7\": {\"In\": 1}, \"8\": {\"O\": 1}, \"9\": {\"O\": 1}, \"10\": {\"O\": 1}, \"11\": {\"O\": 1}, \"12\": {\"O\": 1}, \"13\": {\"O\": 1}, \"14\": {\"O\": 1}, \"15\": {\"O\": 1}, \"16\": {\"O\": 1}, \"17\": {\"O\": 1}, \"18\": {\"O\": 1}, \"19\": {\"O\": 1}}" n_minim_iter=7 energy=-22574.176919406775 stress="-0.06529012322955523 -1.2292342735125918e-12 -4.1462449166026135e-14 -1.2292342735125918e-12 -0.06512165121183676 -5.817581556456605e-13 -4.1462449166026135e-14 -5.817581556456605e-13 -0.06500631329841935" free_energy=-22574.176919406775 pbc="T T T"
In       1.36248870       2.90458576       0.91164989        0       0.00799984       0.02545703       0.00830293
In       1.36913919       0.16356550       2.94861284        1      -0.00799984       0.02545703      -0.00830293
In       1.36913919       2.57745476       4.77191262        2      -0.00799984      -0.02545703       0.00830293
In       1.36248870       5.31847503       6.80887557        3       0.00799984      -0.02545703      -0.00830293
In       4.10076708       2.57745476       6.80887557        4      -0.00799984      -0.02545703      -0.00830293
In       4.09411659       5.31847503       4.77191262        5       0.00799984      -0.02545703       0.00830293
In       4.09411659       2.90458576       2.94861284        6       0.00799984       0.02545703      -0.00830293
In       4.10076708       0.16356550       0.91164989        7      -0.00799984       0.02545703       0.00830293
O        2.11992128       3.30219309       6.58928797        8       0.00851646      -0.01138488      -0.00586909
O        0.61170661       0.56117282       4.99150022        9      -0.00851646      -0.01138488       0.00586909
O        0.61170661       2.17984744       2.72902524       10      -0.00851646       0.01138488      -0.00586909
O        2.11992128       4.92086770       1.13123749       11       0.00851646       0.01138488       0.00586909
O        3.34333450       2.17984744       1.13123749       12      -0.00851646       0.01138488       0.00586909
O        4.85154917       4.92086770       2.72902524       13       0.00851646       0.01138488      -0.00586909
O        4.85154917       3.30219309       4.99150022       14       0.00851646      -0.01138488       0.00586909
O        3.34333450       0.56117282       6.58928797       15      -0.00851646      -0.01138488      -0.00586909
O        5.24689199       4.11153039      -0.00000000       16      -0.00944993      -0.00000000      -0.00000000
O        2.94799168       1.37051013       3.86026273       17       0.00944993       0.00000000      -0.00000000
O        0.21636379       1.37051013      -0.00000000       18       0.00944993       0.00000000       0.00000000
O        2.51526410       4.11153039       3.86026273       19      -0.00944993      -0.00000000      -0.00000000
20
Lattice="5.4638884721214485 2.9878939826535297e-60 3.2328273777826002e-43 1.1573016308102914e-59 5.485202986864198 -1.3446200286415538e-16 -4.153988241552315e-43 2.6087535688061754e-16 7.715180748890868" Properties=species:S:1:pos:R:3:spacegroup_kinds:I:1:forces:R:3 spacegroup="P 1" unit_cell=conventional occupancy="_JSON {\"0\": {\"In\": 1}, \"1\": {\"In\": 1}, \"2\": {\"In\": 1}, \"3\": {\"In\": 1}, \"4\": {\"In\": 1}, \"5\": {\"In\": 1}, \"6\": {\"In\": 1}, \"7\": {\"In\": 1}, \"8\": {\"O\": 1}, \"9\": {\"O\": 1}, \"10\": {\"O\": 1}, \"11\": {\"O\": 1}, \"12\": {\"O\": 1}, \"13\": {\"O\": 1}, \"14\": {\"O\": 1}, \"15\": {\"O\": 1}, \"16\": {\"O\": 1}, \"17\": {\"O\": 1}, \"18\": {\"O\": 1}, \"19\": {\"O\": 1}}" n_minim_iter=8 energy=-22574.17726552061 stress="-0.06514101051067178 4.981856078442742e-13 7.047800367468538e-13 4.981856078442742e-13 -0.06527670033091308 1.1064840976731414e-12 7.047800367468538e-13 1.1064840976731414e-12 -0.06533762574680331" free_energy=-22574.17726552061 pbc="T T T"
In       1.36336173       2.90848723       0.91059135        0      -0.01253529       0.00562122       0.02386726
In       1.36858251       0.16588573       2.94699903        1       0.01253529       0.00562122      -0.02386726
In       1.36858251       2.57671576       4.76818172        2       0.01253529      -0.00562122       0.02386726
In       1.36336173       5.31931726       6.80458940        3      -0.01253529      -0.00562122      -0.02386726
In       4.10052675       2.57671576       6.80458940        4       0.01253529      -0.00562122      -0.02386726
In       4.09530596       5.31931726       4.76818172        5      -0.01253529      -0.00562122       0.02386726
In       4.09530596       2.90848723       2.94699903        6      -0.01253529       0.00562122      -0.02386726
In       4.10052675       0.16588573       0.91059135        7       0.01253529       0.00562122       0.02386726
O        2.12126410       3.30314990       6.58466349        8      -0.00567885      -0.00758361      -0.01700500
O        0.61068013       0.56054840       4.98810763        9       0.00567885      -0.00758361       0.01700500
O        0.61068013       2.18205309       2.72707312       10       0.00567885       0.00758361      -0.01700500
O        2.12126410       4.92465458       1.13051725       11      -0.00567885       0.00758361       0.01700500
O        3.34262437       2.18205309       1.13051725       12       0.00567885       0.00758361       0.01700500
O        4.85320834       4.92465458       2.72707312       13      -0.00567885       0.00758361      -0.01700500
O        4.85320834       3.30314990       4.98810763       14      -0.00567885      -0.00758361       0.01700500
O        3.34262437       0.56054840       6.58466349       15       0.00567885      -0.00758361      -0.01700500
O        5.24652777       4.11390224      -0.00000000       16      -0.01204998      -0.00000000      -0.00000000
O        2.94930493       1.37130075       3.85759037       17       0.01204998       0.00000000      -0.00000000
O        0.21736070       1.37130075      -0.00000000       18       0.01204998      -0.00000000       0.00000000
O        2.51458354       4.11390224       3.85759037       19      -0.01204998      -0.00000000       0.00000000
20
Lattice="5.461672462953091 3.1601444220499944e-60 1.837145910733843e-43 1.3769633221920784e-59 5.485462919778288 -1.1140493390763075e-16 -6.469254649684178e-43 2.9321497962569243e-16 7.717945354304535" Properties=species:S:1:pos:R:3:spacegroup_kinds:I:1:forces:R:3 spacegroup="P 1" unit_cell=conventional occupancy="_JSON {\"0\": {\"In\": 1}, \"1\": {\"In\": 1}, \"2\": {\"In\": 1}, \"3\": {\"In\": 1}, \"4\": {\"In\": 1}, \"5\": {\"In\": 1}, \"6\": {\"In\": 1}, \"7\": {\"In\": 1}, \"8\": {\"O\": 1}, \"9\": {\"O\": 1}, \"10\": {\"O\": 1}, \"11\": {\"O\": 1}, \"12\": {\"O\": 1}, \"13\": {\"O\": 1}, \"14\": {\"O\": 1}, \"15\": {\"O\": 1}, \"16\": {\"O\": 1}, \"17\": {\"O\": 1}, \"18\": {\"O\": 1}, \"19\": {\"O\": 1}}" n_minim_iter=9 energy=-22574.177771636365 stress="-0.06518361688338424 -5.494794189060108e-13 -3.461945329460507e-14 -5.494794189060108e-13 -0.06514290102699391 -6.231607905591622e-13 -3.461945329460507e-14 -6.231607905591622e-13 -0.06531265408866083" free_energy=-22574.177771636365 pbc="T T T"
In       1.36144406       2.91098272       0.91345490        0      -0.00028639       0.00843419       0.00415947
In       1.36939217       0.16825126       2.94551778        1       0.00028639       0.00843419      -0.00415947
In       1.36939217       2.57448020       4.77242758        2       0.00028639      -0.00843419       0.00415947
In       1.36144406       5.31721166       6.80449045        3      -0.00028639      -0.00843419      -0.00415947
In       4.10022840       2.57448020       6.80449045        4       0.00028639      -0.00843419      -0.00415947
In       4.09228029       5.31721166       4.77242758        5      -0.00028639      -0.00843419       0.00415947
In       4.09228029       2.91098272       2.94551778        6      -0.00028639       0.00843419      -0.00415947
In       4.10022840       0.16825126       0.91345490        7       0.00028639       0.00843419       0.00415947
O        2.12083999       3.30070228       6.58792845        8      -0.00989249       0.00583209       0.00126738
O        0.60999624       0.55797082       4.98898958        9       0.00989249       0.00583209      -0.00126738
O        0.60999624       2.18476064       2.72895578       10       0.00989249      -0.00583209       0.00126738
O        2.12083999       4.92749210       1.13001690       11      -0.00989249      -0.00583209      -0.00126738
O        3.34083247       2.18476064       1.13001690       12       0.00989249      -0.00583209      -0.00126738
O        4.85167622       4.92749210       2.72895578       13      -0.00989249      -0.00583209       0.00126738
O        4.85167622       3.30070228       4.98898958       14      -0.00989249       0.00583209      -0.00126738
O        3.34083247       0.55797082       6.58792845       15       0.00989249       0.00583209       0.00126738
O        5.24269499       4.11409719      -0.00000000       16      -0.00851470       0.00000000       0.00000000
O        2.94981371       1.37136573       3.85897268       17       0.00851470      -0.00000000       0.00000000
O        0.21897748       1.37136573      -0.00000000       18       0.00851470      -0.00000000       0.00000000
O        2.51185876       4.11409719       3.85897268       19      -0.00851470      -0.00000000      -0.00000000
20