20
Lattice="5.593732000000001 0.0 0.0 0.0 5.688408 0.0 0.0 0.0 8.082655000000003" Properties=species:S:1:pos:R:3:spacegroup_kinds:I:1:forces:R:3 spacegroup="P 1" unit_cell=conventional occupancy="_JSON {\"0\": {\"In\": 1}, \"1\": {\"In\": 1}, \"2\": {\"In\": 1}, \"3\": {\"In\": 1}, \"4\": {\"In\": 1}, \"5\": {\"In\": 1}, \"6\": {\"In\": 1}, \"7\": {\"In\": 1}, \"8\": {\"O\": 1}, \"9\": {\"O\": 1}, \"10\": {\"O\": 1}, \"11\": {\"O\": 1}, \"12\": {\"O\": 1}, \"13\": {\"O\": 1}, \"14\": {\"O\": 1}, \"15\": {\"O\": 1}, \"16\": {\"O\": 1}, \"17\": {\"O\": 1}, \"18\": {\"O\": 1}, \"19\": {\"O\": 1}}" n_minim_iter=1 energy=-22574.95867898837 stress="0.001386639863177321 -6.650278503477832e-13 -3.261556713237798e-13 -6.650278503477832e-13 0.00018674080592943277 5.245089945342544e-13 -3.261556713237798e-13 5.245089945342544e-13 -0.00035751635444415095" free_energy=-22574.95867898837 pbc="T T T"
In       1.38447664       3.00681852       0.92905270        0       0.03290627      -0.00359623      -0.00351530
In       1.41238936       0.16261452       3.11227480        1      -0.03290627      -0.00359623       0.00351530
In       1.41238936       2.68158948       4.97038020        2      -0.03290627       0.00359623      -0.00351530
In       1.38447664       5.52579348       7.15360230        3       0.03290627       0.00359623       0.00351530
In       4.20925536       2.68158948       7.15360230        4      -0.03290627       0.00359623       0.00351530
In       4.18134264       5.52579348       4.97038020        5       0.03290627       0.00359623      -0.00351530
In       4.18134264       3.00681852       3.11227480        6       0.03290627      -0.00359623       0.00351530
In       4.20925536       0.16261452       0.92905270        7      -0.03290627      -0.00359623      -0.00351530
O        2.18204773       3.43912046       6.86822800        8       0.01132116      -0.01606902      -0.02810641
O        0.61481827       0.59491646       5.25575450        9      -0.01132116      -0.01606902       0.02810641
O        0.61481827       2.24928754       2.82690050       10      -0.01132116       0.01606902      -0.02810641
O        2.18204773       5.09349154       1.21442700       11       0.01132116       0.01606902       0.02810641
O        3.41168427       2.24928754       1.21442700       12      -0.01132116       0.01606902       0.02810641
O        4.97891373       5.09349154       2.82690050       13       0.01132116       0.01606902      -0.02810641
O        4.97891373       3.43912046       5.25575450       14       0.01132116      -0.01606902       0.02810641
O        3.41168427       0.59491646       6.86822800       15      -0.01132116      -0.01606902      -0.02810641
O        5.35463352       4.26630600       0.00000000       16       0.03479712       0.00000000      -0.00000000
O        3.03596448       1.42210200       4.04132750       17      -0.03479712       0.00000000      -0.00000000
O        0.23909848       1.42210200       0.00000000       18      -0.03479712      -0.00000000      -0.00000000
O        2.55776752       4.26630600       4.04132750       19       0.03479712       0.00000000       0.00000000
20
Lattice="5.586334712060954 0.0 0.0 0.0 5.6873943552468385 0.0 0.0 0.0 8.08541315425557" Properties=species:S:1:pos:R:3:spacegroup_kinds:I:1:forces:R:3 spacegroup="P 1" unit_cell=conventional occupancy="_JSON {\"0\": {\"In\": 1}, \"1\": {\"In\": 1}, \"2\": {\"In\": 1}, \"3\": {\"In\": 1}, \"4\": {\"In\": 1}, \"5\": {\"In\": 1}, \"6\": {\"In\": 1}, \"7\": {\"In\": 1}, \"8\": {\"O\": 1}, \"9\": {\"O\": 1}, \"10\": {\"O\": 1}, \"11\": {\"O\": 1}, \"12\": {\"O\": 1}, \"13\": {\"O\": 1}, \"14\": {\"O\": 1}, \"15\": {\"O\": 1}, \"16\": {\"O\": 1}, \"17\": {\"O\": 1}, \"18\": {\"O\": 1}, \"19\": {\"O\": 1}}" n_minim_iter=2 energy=-22574.958968410858 stress="-0.00030697123746168927 5.886897596848714e-14 1.8026968809639338e-13 5.886897596848714e-14 -0.000464442279781161 -3.8301616602993634e-13 1.8026968809639338e-13 -3.8301616602993634e-13 -0.0004129894720329993" free_energy=-22574.958968410858 pbc="T T T"
In       1.38276772       3.00626938       0.92935668        0       0.02461487       0.00226128      -0.00372515
In       1.41039964       0.16257220       3.11334989        1      -0.02461487       0.00226128       0.00372515
In       1.41039964       2.68112498       4.97206326        2      -0.02461487      -0.00226128      -0.00372515
In       1.38276772       5.52482215       7.15605647        3       0.02461487      -0.00226128       0.00372515
In       4.20356700       2.68112498       7.15605647        4      -0.02461487      -0.00226128       0.00372515
In       4.17593507       5.52482215       4.97206326        5       0.02461487      -0.00226128      -0.00372515
In       4.17593507       3.00626938       3.11334989        6       0.02461487       0.00226128       0.00372515
In       4.20356700       0.16257220       0.92935668        7      -0.02461487       0.00226128      -0.00372515
O        2.17920409       3.43844801       6.87046741        8       0.00580187      -0.01305080      -0.03141444
O        0.61396327       0.59475083       5.25765232        9      -0.00580187      -0.01305080       0.03141444
O        0.61396327       2.24894634       2.82776083       10      -0.00580187       0.01305080      -0.03141444
O        2.17920409       5.09264352       1.21494574       11       0.00580187       0.01305080       0.03141444
O        3.40713062       2.24894634       1.21494574       12      -0.00580187       0.01305080       0.03141444
O        4.97237145       5.09264352       2.82776083       13       0.00580187       0.01305080      -0.03141444
O        4.97237145       3.43844801       5.25765232       14       0.00580187      -0.01305080       0.03141444
O        3.40713062       0.59475083       6.87046741       15      -0.00580187      -0.01305080      -0.03141444
O        5.34768137       4.26554577       0.00000000       16       0.03218856      -0.00000000       0.00000000
O        3.03182070       1.42184859       4.04270658       17      -0.03218856       0.00000000       0.00000000
O        0.23865334       1.42184859       0.00000000       18      -0.03218856       0.00000000      -0.00000000
O        2.55451401       4.26554577       4.04270658       19       0.03218856      -0.00000000       0.00000000
20
Lattice="5.585500681245944 0.0 0.0 0.0 5.689833506116777 0.0 0.0 0.0 8.08994728798526" Properties=species:S:1:pos:R:3:spacegroup_kinds:I:1:forces:R:3 spacegroup="P 1" unit_cell=conventional occupancy="_JSON {\"0\": {\"In\": 1}, \"1\": {\"In\": 1}, \"2\": {\"In\": 1}, \"3\": {\"In\": 1}, \"4\": {\"In\": 1}, \"5\": {\"In\": 1}, \"6\": {\"In\": 1}, \"7\": {\"In\": 1}, \"8\": {\"O\": 1}, \"9\": {\"O\": 1}, \"10\": {\"O\": 1}, \"11\": {\"O\": 1}, \"12\": {\"O\": 1}, \"13\": {\"O\": 1}, \"14\": {\"O\": 1}, \"15\": {\"O\": 1}, \"16\": {\"O\": 1}, \"17\": {\"O\": 1}, \"18\": {\"O\": 1}, \"19\": {\"O\": 1}}" n_minim_iter=3 energy=-22574.959069791643 stress="-0.00016951729018685745 -6.700187661530201e-14 -1.4871498905718707e-13 -6.700187661530201e-14 0.00027754018766191796 -8.096713551596359e-14 -1.4871498905718707e-13 -8.096713551596359e-14 0.00039788174688067877" free_energy=-22574.959069791643 pbc="T T T"
In       1.38270641       3.00756323       0.92985776        0       0.01853391       0.00034754      -0.00336654
In       1.41004393       0.16264647       3.11511589        1      -0.01853391       0.00034754       0.00336654
In       1.41004393       2.68227028       4.97483140        2      -0.01853391      -0.00034754      -0.00336654
In       1.38270641       5.52718703       7.16008953        3       0.01853391      -0.00034754       0.00336654
In       4.20279427       2.68227028       7.16008953        4      -0.01853391      -0.00034754       0.00336654
In       4.17545675       5.52718703       4.97483140        5       0.01853391      -0.00034754      -0.00336654
In       4.17545675       3.00756323       3.11511589        6       0.01853391       0.00034754       0.00336654
In       4.20279427       0.16264647       0.92985776        7      -0.01853391       0.00034754      -0.00336654
O        2.17891769       3.43984735       6.87415286        8       0.00413233      -0.01230096      -0.03264838
O        0.61383265       0.59493059       5.26076808        9      -0.00413233      -0.01230096       0.03264838
O        0.61383265       2.24998616       2.82917921       10      -0.00413233       0.01230096      -0.03264838
O        2.17891769       5.09490291       1.21579443       11       0.00413233       0.01230096       0.03264838
O        3.40658299       2.24998616       1.21579443       12      -0.00413233       0.01230096       0.03264838
O        4.97166803       5.09490291       2.82917921       13       0.00413233       0.01230096      -0.03264838
O        4.97166803       3.43984735       5.26076808       14       0.00413233      -0.01230096       0.03264838
O        3.40658299       0.59493059       6.87415286       15      -0.00413233      -0.01230096      -0.03264838
O        5.34706182       4.26737513       0.00000000       16       0.02781001       0.00000000       0.00000000
O        3.03118921       1.42245838       4.04497364       17      -0.02781001      -0.00000000       0.00000000
O        0.23843887       1.42245838       0.00000000       18      -0.02781001       0.00000000      -0.00000000
O        2.55431147       4.26737513       4.04497364       19       0.02781001       0.00000000      -0.00000000
20
Lattice="5.589258733363306 -3.064241321150647e-65 2.7746031701371665e-44 -4.976244826219721e-68 5.688455146681445 -1.0471525538322146e-20 2.806127530042078e-44 -1.487898340800224e-20 8.084862597372371" Properties=species:S:1:pos:R:3:spacegroup_kinds:I:1:forces:R:3 spacegroup="P 1" unit_cell=conventional occupancy="_JSON {\"0\": {\"In\": 1}, \"1\": {\"In\": 1}, \"2\": {\"In\": 1}, \"3\": {\"In\": 1}, \"4\": {\"In\": 1}, \"5\": {\"In\": 1}, \"6\": {\"In\": 1}, \"7\": {\"In\": 1}, \"8\": {\"O\": 1}, \"9\": {\"O\": 1}, \"10\": {\"O\": 1}, \"11\": {\"O\": 1}, \"12\": {\"O\": 1}, \"13\": {\"O\": 1}, \"14\": {\"O\": 1}, \"15\": {\"O\": 1}, \"16\": {\"O\": 1}, \"17\": {\"O\": 1}, \"18\": {\"O\": 1}, \"19\": {\"O\": 1}}" n_minim_iter=4 energy=-22574.959984315024 stress="8.943866052966355e-05 -1.1091620898414587e-13 4.723774291571856e-13 -1.1091620898414587e-13 0.00039437908713191766 -4.4938329811227694e-13 4.723774291571856e-13 -4.4938329811227694e-13 -0.0002622743583609216" free_energy=-22574.959984315024 pbc="T T T"
In       1.38597009       3.00688939       0.92890702        0      -0.00143224      -0.00384857      -0.02230680
In       1.40865928       0.16266182       3.11352428        1       0.00143224      -0.00384857       0.02230680
In       1.40865928       2.68156576       4.97133832        2       0.00143224       0.00384857      -0.02230680
In       1.38597009       5.52579333       7.15595558        3      -0.00143224       0.00384857       0.02230680
In       4.20328865       2.68156576       7.15595558        4       0.00143224       0.00384857       0.02230680
In       4.18059945       5.52579333       4.97133832        5      -0.00143224       0.00384857      -0.02230680
In       4.18059945       3.00688939       3.11352428        6      -0.00143224      -0.00384857       0.02230680
In       4.20328865       0.16266182       0.92890702        7       0.00143224      -0.00384857      -0.02230680
O        2.18096651       3.43765544       6.86652752        8      -0.00027702      -0.00416943       0.00415417
O        0.61366285       0.59342786       5.26076638        9       0.00027702      -0.00416943      -0.00415417
O        0.61366285       2.25079971       2.82409622       10       0.00027702       0.00416943       0.00415417
O        2.18096651       5.09502728       1.21833508       11      -0.00027702       0.00416943      -0.00415417
O        3.40829222       2.25079971       1.21833508       12       0.00027702       0.00416943      -0.00415417
O        4.97559588       5.09502728       2.82409622       13      -0.00027702       0.00416943       0.00415417
O        4.97559588       3.43765544       5.26076638       14      -0.00027702      -0.00416943      -0.00415417
O        3.40829222       0.59342786       6.86652752       15       0.00027702      -0.00416943       0.00415417
O        5.35380184       4.26634136      -0.00000000       16       0.00447492       0.00000000      -0.00000000
O        3.03008626       1.42211379       4.04243130       17      -0.00447492      -0.00000000       0.00000000
O        0.23545690       1.42211379      -0.00000000       18      -0.00447492      -0.00000000       0.00000000
O        2.55917247       4.26634136       4.04243130       19       0.00447492       0.00000000      -0.00000000
20
Lattice="5.590185270623457 6.991547241805405e-63 5.548208736641606e-44 -7.160922092310218e-64 5.685165574385174 7.100086332216414e-19 3.6069401199314096e-44 1.0088660985192433e-18 8.088512661927174" Properties=species:S:1:pos:R:3:spacegroup_kinds:I:1:forces:R:3 spacegroup="P 1" unit_cell=conventional occupancy="_JSON {\"0\": {\"In\": 1}, \"1\": {\"In\": 1}, \"2\": {\"In\": 1}, \"3\": {\"In\": 1}, \"4\": {\"In\": 1}, \"5\": {\"In\": 1}, \"6\": {\"In\": 1}, \"7\": {\"In\": 1}, \"8\": {\"O\": 1}, \"9\": {\"O\": 1}, \"10\": {\"O\": 1}, \"11\": {\"O\": 1}, \"12\": {\"O\": 1}, \"13\": {\"O\": 1}, \"14\": {\"O\": 1}, \"15\": {\"O\": 1}, \"16\": {\"O\": 1}, \"17\": {\"O\": 1}, \"18\": {\"O\": 1}, \"19\": {\"O\": 1}}" n_minim_iter=5 energy=-22574.960042967235 stress="0.00015718458102845643 -1.7046215262903678e-13 -2.263183997035154e-13 -1.7046215262903678e-13 -5.805707570665085e-05 4.2799345786175726e-14 -2.263183997035154e-13 4.2799345786175726e-14 9.02164059222749e-05" free_energy=-22574.960042967235 pbc="T T T"
In       1.38633662       3.00513180       0.92915044        0      -0.00285188      -0.00816259      -0.01714317
In       1.40875601       0.16254901       3.11510589        1       0.00285188      -0.00816259       0.01714317
In       1.40875601       2.68003377       4.97340677        2       0.00285188       0.00816259      -0.01714317
In       1.38633662       5.52261656       7.15936222        3      -0.00285188       0.00816259       0.01714317
In       4.20384865       2.68003377       7.15936222        4       0.00285188       0.00816259       0.01714317
In       4.18142926       5.52261656       4.97340677        5      -0.00285188       0.00816259      -0.01714317
In       4.18142926       3.00513180       3.11510589        6      -0.00285188      -0.00816259       0.01714317
In       4.20384865       0.16254901       0.92915044        7       0.00285188      -0.00816259      -0.01714317
O        2.18136061       3.43555302       6.86943988        8      -0.00198048      -0.00496542       0.00318664
O        0.61373202       0.59297024       5.26332911        9       0.00198048      -0.00496542      -0.00318664
O        0.61373202       2.24961255       2.82518355       10       0.00198048       0.00496542       0.00318664
O        2.18136061       5.09219534       1.21907278       11      -0.00198048       0.00496542      -0.00318664
O        3.40882466       2.24961255       1.21907278       12       0.00198048       0.00496542      -0.00318664
O        4.97645325       5.09219534       2.82518355       13      -0.00198048       0.00496542       0.00318664
O        4.97645325       3.43555302       5.26332911       14      -0.00198048      -0.00496542      -0.00318664
O        3.40882466       0.59297024       6.86943988       15       0.00198048      -0.00496542       0.00318664
O        5.35492205       4.26387418       0.00000000       16       0.00463929      -0.00000000      -0.00000000
O        3.03035585       1.42129139       4.04425633       17      -0.00463929       0.00000000       0.00000000
O        0.23526322       1.42129139       0.00000000       18      -0.00463929       0.00000000      -0.00000000
O        2.55982942       4.26387418       4.04425633       19       0.00463929      -0.00000000       0.00000000
20
Lattice="5.587021610838088 -7.208508834220301e-63 2.2192269325177885e-44 -8.474547337800177e-63 5.685994033829638 -5.045305942539044e-19 2.284509290885385e-43 -7.167984093052409e-19 8.087445639803832" Properties=species:S:1:pos:R:3:spacegroup_kinds:I:1:forces:R:3 spacegroup="P 1" unit_cell=conventional occupancy="_JSON {\"0\": {\"In\": 1}, \"1\": {\"In\": 1}, \"2\": {\"In\": 1}, \"3\": {\"In\": 1}, \"4\": {\"In\": 1}, \"5\": {\"In\": 1}, \"6\": {\"In\": 1}, \"7\": {\"In\": 1}, \"8\": {\"O\": 1}, \"9\": {\"O\": 1}, \"10\": {\"O\": 1}, \"11\": {\"O\": 1}, \"12\": {\"O\": 1}, \"13\": {\"O\": 1}, \"14\": {\"O\": 1}, \"15\": {\"O\": 1}, \"16\": {\"O\": 1}, \"17\": {\"O\": 1}, \"18\": {\"O\": 1}, \"19\": {\"O\": 1}}" n_minim_iter=6 energy=-22574.960194511805 stress="-0.0006360080380823854 6.768089024677164e-13 1.403958028328778e-13 6.768089024677164e-13 -0.0002300130297486141 -6.061766355629625e-13 1.403958028328778e-13 -6.061766355629625e-13 -2.39500129599726e-05" free_energy=-22574.960194511805 pbc="T T T"
In       1.38570862       3.00503241       0.92749894        0      -0.00245165      -0.00203441      -0.00632504
In       1.40780219       0.16203539       3.11622388        1       0.00245165      -0.00203441       0.00632504
In       1.40780219       2.68096163       4.97122176        2       0.00245165       0.00203441      -0.00632504
In       1.38570862       5.52395864       7.15994670        3      -0.00245165       0.00203441       0.00632504
In       4.20131299       2.68096163       7.15994670        4       0.00245165       0.00203441       0.00632504
In       4.17921943       5.52395864       4.97122176        5      -0.00245165       0.00203441      -0.00632504
In       4.17921943       3.00503241       3.11622388        6      -0.00245165      -0.00203441       0.00632504
In       4.20131299       0.16203539       0.92749894        7       0.00245165      -0.00203441      -0.00632504
O        2.18006984       3.43545367       6.86822753        8      -0.00561191      -0.00015694       0.00090199
O        0.61344096       0.59245665       5.26294093        9       0.00561191      -0.00015694      -0.00090199
O        0.61344096       2.25054036       2.82450471       10       0.00561191       0.00015694       0.00090199
O        2.18006984       5.09353738       1.21921811       11      -0.00561191       0.00015694      -0.00090199
O        3.40695177       2.25054036       1.21921811       12       0.00561191       0.00015694      -0.00090199
O        4.97358065       5.09353738       2.82450471       13      -0.00561191       0.00015694       0.00090199
O        4.97358065       3.43545367       5.26294093       14      -0.00561191      -0.00015694      -0.00090199
O        3.40695177       0.59245665       6.86822753       15       0.00561191      -0.00015694       0.00090199
O        5.35278466       4.26449553      -0.00000000       16       0.00052085      -0.00000000       0.00000000
O        3.02774776       1.42149851       4.04372282       17      -0.00052085       0.00000000      -0.00000000
O        0.23423695       1.42149851      -0.00000000       18      -0.00052085       0.00000000       0.00000000
O        2.55927385       4.26449553       4.04372282       19       0.00052085      -0.00000000       0.00000000
