20
Lattice="5.462278011451524 -2.226951780256582e-59 -4.749655344873033e-43 -6.83272390771987e-60 5.576467137733892 1.1507824781477612e-16 -4.1723661301315306e-43 1.9081283131390988e-16 7.802017326857792" Properties=species:S:1:pos:R:3:spacegroup_kinds:I:1:forces:R:3 spacegroup="P 1" unit_cell=conventional occupancy="_JSON {\"0\": {\"In\": 1}, \"1\": {\"In\": 1}, \"2\": {\"In\": 1}, \"3\": {\"In\": 1}, \"4\": {\"In\": 1}, \"5\": {\"In\": 1}, \"6\": {\"In\": 1}, \"7\": {\"In\": 1}, \"8\": {\"O\": 1}, \"9\": {\"O\": 1}, \"10\": {\"O\": 1}, \"11\": {\"O\": 1}, \"12\": {\"O\": 1}, \"13\": {\"O\": 1}, \"14\": {\"O\": 1}, \"15\": {\"O\": 1}, \"16\": {\"O\": 1}, \"17\": {\"O\": 1}, \"18\": {\"O\": 1}, \"19\": {\"O\": 1}}" n_minim_iter=7 energy=-22574.775891438774 stress="-0.028973031932529866 -5.557583874245805e-13 2.9080985996583493e-13 -5.557583874245805e-13 -0.0289892661474664 2.79635746879387e-13 2.9080985996583493e-13 2.79635746879387e-13 -0.028978514950488737" free_energy=-22574.775891438774 pbc="T T T"
In       1.36033002       2.95945491       0.89480605        0      -0.00233876       0.00294719      -0.00044277
In       1.37080899       0.17122134       3.00620261        1       0.00233876       0.00294719       0.00044277
In       1.37080899       2.61701223       4.79581471        2       0.00233876      -0.00294719      -0.00044277
In       1.36033002       5.40524579       6.90721128        3      -0.00233876      -0.00294719       0.00044277
In       4.10194799       2.61701223       6.90721128        4       0.00233876      -0.00294719       0.00044277
In       4.09146903       5.40524579       4.79581471        5      -0.00233876      -0.00294719      -0.00044277
In       4.09146903       2.95945491       3.00620261        6      -0.00233876       0.00294719       0.00044277
In       4.10194799       0.17122134       0.89480605        7       0.00233876       0.00294719      -0.00044277
O        2.12634679       3.36514497       6.63139792        8       0.00043439      -0.00054684      -0.00232446
O        0.60479222       0.57691140       5.07162807        9      -0.00043439      -0.00054684       0.00232446
O        0.60479222       2.21132217       2.73038926       10      -0.00043439       0.00054684      -0.00232446
O        2.12634679       4.99955574       1.17061941       11       0.00043439       0.00054684       0.00232446
O        3.33593122       2.21132217       1.17061941       12      -0.00043439       0.00054684       0.00232446
O        4.85748579       4.99955574       2.73038926       13       0.00043439       0.00054684      -0.00232446
O        4.85748579       3.36514497       5.07162807       14       0.00043439      -0.00054684       0.00232446
O        3.33593122       0.57691140       6.63139792       15      -0.00043439      -0.00054684      -0.00232446
O        5.23203166       4.18235035      -0.00000000       16      -0.00022855       0.00000000      -0.00000000
O        2.96138536       1.39411678       3.90100866       17       0.00022855      -0.00000000      -0.00000000
O        0.23024635       1.39411678      -0.00000000       18       0.00022855      -0.00000000       0.00000000
O        2.50089265       4.18235035       3.90100866       19      -0.00022855       0.00000000      -0.00000000
