20
Lattice="5.587021610838088 8.746154630485584e-63 -1.5781995140120209e-43 5.33443890106222e-63 5.685994033829638 5.039553476203687e-19 2.2845092908853853e-43 -7.167984093052409e-19 8.087445639803832" Properties=species:S:1:pos:R:3:spacegroup_kinds:I:1:forces:R:3 spacegroup="P 1" unit_cell=conventional occupancy="_JSON {\"0\": {\"In\": 1}, \"1\": {\"In\": 1}, \"2\": {\"In\": 1}, \"3\": {\"In\": 1}, \"4\": {\"In\": 1}, \"5\": {\"In\": 1}, \"6\": {\"In\": 1}, \"7\": {\"In\": 1}, \"8\": {\"O\": 1}, \"9\": {\"O\": 1}, \"10\": {\"O\": 1}, \"11\": {\"O\": 1}, \"12\": {\"O\": 1}, \"13\": {\"O\": 1}, \"14\": {\"O\": 1}, \"15\": {\"O\": 1}, \"16\": {\"O\": 1}, \"17\": {\"O\": 1}, \"18\": {\"O\": 1}, \"19\": {\"O\": 1}}" n_minim_iter=1 energy=-22574.96019451146 stress="-0.0006360080364862508 -3.397223728143418e-13 2.32296516058291e-15 -3.397223728143418e-13 -0.00023001303196268778 -1.7291416995347582e-13 2.32296516058291e-15 -1.7291416995347582e-13 -2.3950010904778453e-05" free_energy=-22574.96019451146 pbc="T T T"
In       1.38570862       3.00503241       0.92749894        0      -0.00245165      -0.00203441      -0.00632504
In       1.40780219       0.16203539       3.11622388        1       0.00245165      -0.00203441       0.00632504
In       1.40780219       2.68096163       4.97122176        2       0.00245165       0.00203441      -0.00632504
In       1.38570862       5.52395864       7.15994670        3      -0.00245165       0.00203441       0.00632504
In       4.20131299       2.68096163       7.15994670        4       0.00245165       0.00203441       0.00632504
In       4.17921943       5.52395864       4.97122176        5      -0.00245165       0.00203441      -0.00632504
In       4.17921943       3.00503241       3.11622388        6      -0.00245165      -0.00203441       0.00632504
In       4.20131299       0.16203539       0.92749894        7       0.00245165      -0.00203441      -0.00632504
O        2.18006984       3.43545367       6.86822753        8      -0.00561191      -0.00015694       0.00090199
O        0.61344096       0.59245665       5.26294093        9       0.00561191      -0.00015694      -0.00090199
O        0.61344096       2.25054036       2.82450471       10       0.00561191       0.00015694       0.00090199
O        2.18006984       5.09353738       1.21921811       11      -0.00561191       0.00015694      -0.00090199
O        3.40695177       2.25054036       1.21921811       12       0.00561191       0.00015694      -0.00090199
O        4.97358065       5.09353738       2.82450471       13      -0.00561191       0.00015694       0.00090199
O        4.97358065       3.43545367       5.26294093       14      -0.00561191      -0.00015694      -0.00090199
O        3.40695177       0.59245665       6.86822753       15       0.00561191      -0.00015694       0.00090199
O        5.35278466       4.26449553      -0.00000000       16       0.00052085       0.00000000       0.00000000
O        3.02774776       1.42149851       4.04372282       17      -0.00052085      -0.00000000      -0.00000000
O        0.23423695       1.42149851      -0.00000000       18      -0.00052085      -0.00000000       0.00000000
O        2.55927385       4.26449553       4.04372282       19       0.00052085       0.00000000      -0.00000000
