20
Lattice="5.40435263529611 2.038737142801393e-59 1.038744509844718e-42 -2.4115335360422995e-59 5.335095533452988 -1.674392696316171e-16 -6.176056450251238e-43 3.386766854473126e-16 7.574102384629739" Properties=species:S:1:pos:R:3:spacegroup_kinds:I:1:forces:R:3 spacegroup="P 1" unit_cell=conventional occupancy="_JSON {\"0\": {\"In\": 1}, \"1\": {\"In\": 1}, \"2\": {\"In\": 1}, \"3\": {\"In\": 1}, \"4\": {\"In\": 1}, \"5\": {\"In\": 1}, \"6\": {\"In\": 1}, \"7\": {\"In\": 1}, \"8\": {\"O\": 1}, \"9\": {\"O\": 1}, \"10\": {\"O\": 1}, \"11\": {\"O\": 1}, \"12\": {\"O\": 1}, \"13\": {\"O\": 1}, \"14\": {\"O\": 1}, \"15\": {\"O\": 1}, \"16\": {\"O\": 1}, \"17\": {\"O\": 1}, \"18\": {\"O\": 1}, \"19\": {\"O\": 1}}" n_minim_iter=12 energy=-22573.68758320557 stress="-0.09006132357673209 1.1239612911221012e-12 -4.5398406652410875e-13 1.1239612911221012e-12 -0.09013433403303237 -9.401281308804392e-13 -4.5398406652410875e-13 -9.401281308804392e-13 -0.09014782739047057" free_energy=-22573.68758320557 pbc="T T T"
In       1.34700510       2.82805896       0.92229345        0      -0.00203438      -0.00394502       0.00271336
In       1.35517121       0.16051120       2.86475775        1       0.00203438      -0.00394502      -0.00271336
In       1.35517121       2.50703657       4.70934464        2       0.00203438       0.00394502       0.00271336
In       1.34700510       5.17458434       6.65180894        3      -0.00203438       0.00394502      -0.00271336
In       4.05734753       2.50703657       6.65180894        4       0.00203438       0.00394502      -0.00271336
In       4.04918142       5.17458434       4.70934464        5      -0.00203438       0.00394502       0.00271336
In       4.04918142       2.82805896       2.86475775        6      -0.00203438      -0.00394502      -0.00271336
In       4.05734753       0.16051120       0.92229345        7       0.00203438      -0.00394502       0.00271336
O        2.09502811       3.19557196       6.49610146        8      -0.00387285       0.00136533      -0.00250698
O        0.60714821       0.52802419       4.86505212        9       0.00387285       0.00136533       0.00250698
O        0.60714821       2.13952358       2.70905027       10       0.00387285      -0.00136533      -0.00250698
O        2.09502811       4.80707134       1.07800092       11      -0.00387285      -0.00136533       0.00250698
O        3.30932452       2.13952358       1.07800092       12       0.00387285      -0.00136533       0.00250698
O        4.79720443       4.80707134       2.70905027       13      -0.00387285      -0.00136533      -0.00250698
O        4.79720443       3.19557196       4.86505212       14      -0.00387285       0.00136533       0.00250698
O        3.30932452       0.52802419       6.49610146       15       0.00387285       0.00136533      -0.00250698
O        5.19106166       4.00132165      -0.00000000       16      -0.00241160      -0.00000000       0.00000000
O        2.91546730       1.33377388       3.78705119       17       0.00241160      -0.00000000      -0.00000000
O        0.21329098       1.33377388      -0.00000000       18       0.00241160      -0.00000000       0.00000000
O        2.48888534       4.00132165       3.78705119       19      -0.00241160       0.00000000       0.00000000
