80
Lattice="11.75827116790359 0.00020599998542201946 0.0001419999899511008 6.452192543398331 9.82986030437125 0.0001419999899511008 6.452192543398331 3.482913753524988 9.192141349500645" Properties=species:S:1:pos:R:3:forces:R:3:magmoms:R:1 energy=-90301.48729458413 stress="0.0020419825362035806 -0.0008079787013755176 -0.0005490582538892722 -0.0008079787013755176 0.0031400990439821247 -0.00030482832824621796 -0.0005490582538892722 -0.00030482832824621796 0.0033338303007892094" pbc="T T T"
In      10.57064295       5.70606680       3.93995892       0.00414359       0.00191033       0.00141179      -0.00000000
In      16.44977864       5.70616960       3.94002992       0.00257625       0.00107215       0.00143853      -0.00000000
In      13.79673912      10.62099705       3.94002992       0.00099142       0.00069343       0.00030313      -0.00000000
In      19.67587471      10.62109985       3.94010092       0.00428937       0.00235307       0.00105107      -0.00000000
In      13.79673912       7.44752367       8.53602980      -0.00877312      -0.01279407       0.00344168      -0.00000000
In      19.67587471       7.44762647       8.53610080       0.00601484      -0.00020595       0.00204197      -0.00000000
In      17.02283520      12.36245403       8.53610080       0.00562429       0.00750814       0.00380883      -0.00000000
In      22.90197088      12.36255683       8.53617180       0.00187382       0.00203529       0.00063635      -0.00000000
In       7.92634884       4.27866840       2.95436039      -0.00109220      -0.00213119       0.00360314      -0.00000000
In      13.80548452       4.27877120       2.95443139      -0.00363425      -0.00287449      -0.00141616      -0.00000000
In      11.15244491       9.19359865       2.95443139      -0.00387285       0.00058158      -0.00542271      -0.00000000
In      17.03158059       9.19370145       2.95450239      -0.00279453      -0.00095928      -0.00099270       0.00000000
In      11.15244491       6.02012527       7.55043127      -0.01090045      -0.01001882      -0.00201523      -0.00000000
In      17.03158059       6.02022807       7.55050227       0.00027048      -0.00195404      -0.00371524      -0.00000000
In      14.37854108      10.93505563       7.55050227      -0.00214301       0.00016069      -0.00162777      -0.00000000
In      20.25767667      10.93515843       7.55057327      -0.00415490      -0.00070988      -0.00133595      -0.00000000
In       4.40497909       2.37782173       1.64185248      -0.01346461      -0.00470280       0.01375489      -0.00000000
In      10.28411467       2.37792453       1.64192348       0.00569037       0.00105518       0.00369133      -0.00000000
In       7.63107516       7.29275198       1.64192348       0.00508127       0.00649718       0.00170670      -0.00000000
In      13.51021074       7.29285478       1.64199448       0.00216873       0.00372887       0.00139559      -0.00000000
In       7.63107516       4.11927871       6.23792336       0.00425878       0.00163368       0.00210882      -0.00000000
In      13.51021084       4.11938151       6.23799436       0.00137117      -0.00157609       0.00257805      -0.00000000
In      10.85717123       9.03420896       6.23799436       0.00152621       0.00290200      -0.00238676       0.00000000
In      16.73630692       9.03431176       6.23806536       0.00410631       0.00290920       0.00085463       0.00000000
In       1.76068488       0.95042333       0.65625395       0.00125084      -0.00189233      -0.00116497      -0.00000000
In       7.63982056       0.95052613       0.65632495      -0.00502599      -0.01238115       0.00068083      -0.00000000
In       4.98678105       5.86535358       0.65632495      -0.00699520       0.00119685       0.00009950      -0.00000000
In      10.86591663       5.86545638       0.65639595      -0.00208002      -0.00027202      -0.00105004      -0.00000000
In       4.98678105       2.69188031       5.25232483      -0.00359903      -0.00316117      -0.00280302      -0.00000000
In      10.86591663       2.69198311       5.25239583      -0.00233353      -0.00062246       0.00124441      -0.00000000
In       8.21287712       7.60681056       5.25239583      -0.00305370      -0.00117242      -0.00065383      -0.00000000
In      14.09201280       7.60691336       5.25246683      -0.00295625      -0.00054070      -0.00341648       0.00000000
O        6.01659217       2.30057084       0.21460948       0.05461692       0.06285062      -0.03643562      -0.00000000
O       11.90153546       2.30952144       0.21468058      -0.00326916       0.00788866      -0.01125552      -0.00000000
O        9.24849595       7.22434889       0.21468058      -0.00177689       0.00573176      -0.01070813       0.00000000
O       15.12763153       7.22445169       0.21475158       0.00122410       0.00697000      -0.01118661       0.00000000
O        9.24849595       4.05087551       4.81068046      -0.00079473       0.00803187      -0.01225465       0.00000000
O       15.12763153       4.05097841       4.81075146       0.00007533       0.00837640      -0.01089608       0.00000000
O       12.47459202       8.96580587       4.81075146       0.00018795       0.00669155      -0.00924517      -0.00000000
O       18.35372770       8.96590867       4.81082246      -0.00035635       0.00730682      -0.01104057      -0.00000000
O        7.09602010       5.12094364       1.14912422      -0.00913204       0.00027922      -0.00618016       0.00000000
O       12.97515568       5.12104644       1.14919522      -0.00666558       0.01212584       0.00022934      -0.00000000
O       10.32211617      10.03587389       1.14919522      -0.01444497       0.00359157       0.00265595       0.00000000
O       16.20125185      10.03597669       1.14926622      -0.00630923       0.01285654      -0.00026894       0.00000000
O       10.32211617       6.86240051       5.74519509      -0.00589503       0.01256884       0.00023011       0.00000000
O       16.20125185       6.86250341       5.74526609      -0.00683451       0.01180702       0.00073636       0.00000000
O       13.54821234      11.77733087       5.74526609      -0.00612900       0.01176511       0.00021109       0.00000000
O       19.42734793      11.77743367       5.74533709      -0.00593565       0.01121798      -0.00043529       0.00000000
O        8.17487562       2.18084255       2.51264502       0.00524814      -0.00201086      -0.01462366      -0.00000000
O       14.05401131       2.18094535       2.51271602       0.00567211      -0.00339283      -0.01023222       0.00000000
O       11.40097169       7.09577280       2.51271602       0.00605212      -0.00563766      -0.01064102      -0.00000000
O       17.28010738       7.09587570       2.51278702       0.00735953      -0.00525662      -0.01188827       0.00000000
O       11.40097169       3.92229952       7.10871590       0.00524171      -0.00867130      -0.01883513      -0.00000000
O       17.28010738       3.92240232       7.10878690       0.00604441      -0.00349336      -0.01076187       0.00000000
O       14.62706786       8.83722977       7.10878690       0.00566003      -0.00540420      -0.01001265      -0.00000000
O       20.50620345       8.83733257       7.10885790       0.00735721      -0.00396798      -0.01125089       0.00000000
O        4.15645221       4.47564748       2.08356785      -0.00449352       0.00566440       0.01030498       0.00000000
O       10.03558789       4.47575028       2.08363875      -0.00756419       0.00338640       0.01042377       0.00000000
O        7.38254838       9.39057784       2.08363875      -0.00788506       0.00336095       0.01159002       0.00000000
O       13.26168396       9.39068064       2.08370975      -0.00447963       0.00106187       0.01436398       0.00000000
O        7.38254838       6.21710446       6.67963863      -0.00714407       0.00423049       0.01039831       0.00000000
O       13.26168396       6.21720726       6.67970963      -0.00559909       0.00748217       0.01894466       0.00000000
O       10.60864445      11.13203481       6.67970963      -0.00586931       0.00314703       0.01172140      -0.00000000
O       16.48778013      11.13213761       6.67978063      -0.00715409       0.00269837       0.01101795       0.00000000
O        6.30892805       4.34707149       4.38160319       0.00038515      -0.00718880       0.01026436      -0.00000000
O       12.18806374       4.34717429       4.38167419       0.00038695      -0.00689364       0.01072253       0.00000000
O        9.53502423       9.26200174       4.38167419      -0.00050728      -0.00832472       0.01218780       0.00000000
O       15.41415981       9.26210454       4.38174519       0.00028591      -0.00785061       0.01145889      -0.00000000
O        9.53502423       6.08852837       8.97767406      -0.00843708      -0.00332958       0.00891067       0.00000000
O       15.41415981       6.08863127       8.97774506      -0.01268248      -0.00496403       0.01254416      -0.00000000
O       12.76112030      11.00345872       8.97774506       0.00002468      -0.00918218       0.01184019       0.00000000
O       18.64025598      11.00356152       8.97781606       0.00032113      -0.00897161       0.01096087       0.00000000
O        5.23530783       1.53554649       3.44708866       0.00727082      -0.01130720       0.00485836       0.00000000
O       11.11444341       1.53564929       3.44715966       0.00572173      -0.01177231      -0.00038695       0.00000000
O        8.46140390       6.45047674       3.44715966       0.00545948      -0.01271411      -0.00154960       0.00000000
O       14.34053959       6.45057954       3.44723066       0.00689133      -0.01210090       0.00096725       0.00000000
O        8.46140390       3.27700347       8.04315953       0.00501571      -0.01259583      -0.00117345       0.00000000
O       14.34053959       3.27710627       8.04323053       0.00906597      -0.01246188      -0.00121562       0.00000000
O       11.68749997       8.19193372       8.04323053       0.01392844      -0.01911924       0.00718238      -0.00000000
O       17.56663566       8.19203652       8.04330153       0.00549805      -0.01274702      -0.00009770       0.00000000
