80
Lattice="11.75827116790359 0.00020599998542201946 0.0001419999899511008 6.452192543398331 9.82986030437125 0.0001419999899511008 6.452192543398331 3.482913753524988 9.192141349500645" Properties=species:S:1:pos:R:3:forces:R:3:magmoms:R:1 energy=-90301.48703743656 stress="0.0020557549004315725 -0.0007841066033803317 -0.0006032295531860398 -0.0007841066033803317 0.0030987819512981497 -0.0002928922792486251 -0.0006032295531860398 -0.0002928922792486251 0.0033788200239339822" pbc="T T T"
In      10.57064295       5.70606680       3.93995892       0.00270711       0.00096828       0.00005914      -0.00000000
In      16.44977864       5.70616960       3.94002992       0.00415670       0.00323445       0.00375150      -0.00000000
In      13.79673912      10.62099705       3.94002992       0.00669798       0.00324782      -0.00178023       0.00000000
In      19.67587471      10.62109985       3.94010092       0.00158740       0.00151644       0.00216847       0.00000000
In      13.79673912       7.44752367       8.53602980       0.01861273       0.00438784       0.00063326       0.00000000
In      19.67587471       7.44762647       8.53610080      -0.00290586       0.00580272      -0.00035944       0.00000000
In      17.02283520      12.36245403       8.53610080       0.00312003      -0.00273514      -0.00100350       0.00000000
In      22.90197088      12.36255683       8.53617180       0.00121202       0.00402660       0.00152826      -0.00000000
In       7.92634884       4.27866840       2.95436039      -0.00345351      -0.00553533      -0.00456808      -0.00000000
In      13.80548452       4.27877120       2.95443139      -0.00520443      -0.00074973       0.00092431      -0.00000000
In      11.15244491       9.19359865       2.95443139       0.00007019      -0.00400809       0.00109966      -0.00000000
In      17.03158059       9.19370145       2.95450239      -0.00503011      -0.00091351      -0.00196329       0.00000000
In      11.15244491       6.02012527       7.55043127       0.01179365      -0.00118142       0.00073894       0.00000000
In      17.03158059       6.02022807       7.55050227      -0.00953082      -0.00178589       0.00306527       0.00000000
In      14.37854108      10.93505563       7.55050227      -0.00386103      -0.00315937      -0.00146167       0.00000000
In      20.25767667      10.93515843       7.55057327      -0.00229291       0.00120559      -0.00065255       0.00000000
In       4.40497909       2.37782173       1.64185248       0.03799293      -0.00015118      -0.02277303      -0.00000000
In      10.28411467       2.37792453       1.64192348      -0.00262535       0.00190056      -0.00155269       0.00000000
In       7.63107516       7.29275198       1.64192348       0.00240450      -0.00094848       0.00094359       0.00000000
In      13.51021074       7.29285478       1.64199448       0.00361780       0.00435519       0.00174964       0.00000000
In       7.63107516       4.11927871       6.23792336       0.00196535       0.00116214      -0.00004499      -0.00000000
In      13.51021084       4.11938151       6.23799436       0.00598938       0.00322493       0.00415310       0.00000000
In      10.85717123       9.03420896       6.23799436       0.00325039       0.00257136       0.00018178       0.00000000
In      16.73630692       9.03431176       6.23806536       0.00260324       0.00083021       0.00136166       0.00000000
In       1.76068488       0.95042333       0.65625395      -0.00911302      -0.00432948      -0.00004422       0.00000000
In       7.63982056       0.95052613       0.65632495       0.03310424      -0.02664460       0.00603361      -0.00000000
In       4.98678105       5.86535358       0.65632495      -0.00058493       0.00155912      -0.00090837      -0.00000000
In      10.86591663       5.86545638       0.65639595      -0.00458685      -0.00311541      -0.00135137       0.00000000
In       4.98678105       2.69188031       5.25232483      -0.00298968      -0.00024297       0.00095696       0.00000000
In      10.86591663       2.69198311       5.25239583      -0.00407726      -0.00291512      -0.00372887       0.00000000
In       8.21287712       7.60681056       5.25239583      -0.00383377      -0.00200520      -0.00200392       0.00000000
In      14.09201280       7.60691336       5.25246683      -0.00323316      -0.00258602      -0.00000437       0.00000000
O        6.03298337       2.30941884       0.21460978      -0.13786744       0.03290241       0.00522577      -0.00000000
O       11.90153546       2.30952144       0.21468058       0.00623904       0.00749399      -0.01123289      -0.00000000
O        9.24849595       7.22434889       0.21468058       0.00075051       0.00933645      -0.01123675      -0.00000000
O       15.12763153       7.22445169       0.21475158       0.00031625       0.00597267      -0.01079529      -0.00000000
O        9.24849595       4.05087551       4.81068046       0.00075539       0.00813651      -0.00949714       0.00000000
O       15.12763153       4.05097841       4.81075146       0.00032422       0.00738267      -0.01281258      -0.00000000
O       12.47459202       8.96580587       4.81075146      -0.00124904       0.00824784      -0.01072021      -0.00000000
O       18.35372770       8.96590867       4.81082246       0.00073354       0.00764029      -0.01112593      -0.00000000
O        7.09602010       5.12094364       1.14912422      -0.00763181       0.01834302       0.00265903       0.00000000
O       12.97515568       5.12104644       1.14919522      -0.00501519       0.01063305      -0.00031907      -0.00000000
O       10.32211617      10.03587389       1.14919522      -0.00207154       0.02074932      -0.00215458       0.00000000
O       16.20125185      10.03597669       1.14926622      -0.00501288       0.01015354       0.00067029       0.00000000
O       10.32211617       6.86240051       5.74519509      -0.00668307       0.01189727       0.00118888       0.00000000
O       16.20125185       6.86250341       5.74526609      -0.00607449       0.01199368      -0.00129455      -0.00000000
O       13.54821234      11.77733087       5.74526609      -0.00680700       0.01200679       0.00039981       0.00000000
O       19.42734793      11.77743367       5.74533709      -0.00713430       0.01195794      -0.00051782      -0.00000000
O        8.17487562       2.18084255       2.51264502       0.01078963      -0.00306090      -0.00195687      -0.00000000
O       14.05401131       2.18094535       2.51271602       0.00784418      -0.00419681      -0.01296659       0.00000000
O       11.40097169       7.09577280       2.51271602       0.00602307      -0.00379109      -0.01112722      -0.00000000
O       17.28010738       7.09587570       2.51278702       0.00570271      -0.00468121      -0.01085108       0.00000000
O       11.40097169       3.92229952       7.10871590       0.00522448       0.00057824      -0.00598116      -0.00000000
O       17.28010738       3.92240232       7.10878690       0.00780613      -0.00496480      -0.01216132       0.00000000
O       14.62706786       8.83722977       7.10878690       0.00614417      -0.00309509      -0.01152471      -0.00000000
O       20.50620345       8.83733257       7.10885790       0.00677923      -0.00536589      -0.01057803      -0.00000000
O        4.15645221       4.47564748       2.08356785      -0.00485193      -0.00235873       0.00684376       0.00000000
O       10.03558789       4.47575028       2.08363875      -0.00508641       0.00613440       0.01187438       0.00000000
O        7.38254838       9.39057784       2.08363875      -0.00488792       0.00476425       0.01068859      -0.00000000
O       13.26168396       9.39068064       2.08370975      -0.00872504       0.00017329       0.01384282      -0.00000000
O        7.38254838       6.21710446       6.67963863      -0.00472646       0.00458428       0.01235801       0.00000000
O       13.26168396       6.21720726       6.67970963      -0.00968123       0.00403483       0.00366742       0.00000000
O       10.60864445      11.13203481       6.67970963      -0.00583692       0.00256879       0.01006793      -0.00000000
O       16.48778013      11.13213761       6.67978063      -0.00601792       0.00544431       0.01145658       0.00000000
O        6.30892805       4.34707149       4.38160319      -0.00096519      -0.00750865       0.01131491      -0.00000000
O       12.18806374       4.34717429       4.38167419      -0.00005528      -0.00811620       0.01129588      -0.00000000
O        9.53502423       9.26200174       4.38167419       0.00034736      -0.00728676       0.01036695      -0.00000000
O       15.41415981       9.26210454       4.38174519       0.00033604      -0.00824373       0.01176048      -0.00000000
O        9.53502423       6.08852837       8.97767406       0.02021607      -0.01095804       0.01432773       0.00000000
O       15.41415981       6.08863127       8.97774506       0.02057808      -0.00577830       0.00682756      -0.00000000
O       12.76112030      11.00345872       8.97774506      -0.00003471      -0.00766497       0.01062020      -0.00000000
O       18.64025598      11.00356152       8.97781606      -0.00096082      -0.00742509       0.01118558      -0.00000000
O        5.23530783       1.53554649       3.44708866       0.00410939      -0.01076264      -0.00475166       0.00000000
O       11.11444341       1.53564929       3.44715966       0.00794188      -0.01209293       0.00067646      -0.00000000
O        8.46140390       6.45047674       3.44715966       0.00681342      -0.01111308       0.00102510       0.00000000
O       14.34053959       6.45057954       3.44723066       0.00698826      -0.01342630      -0.00115905      -0.00000000
O        8.46140390       3.27700347       8.04315953       0.00775445      -0.01048470       0.00151387      -0.00000000
O       14.34053959       3.27710627       8.04323053       0.00798045      -0.01822835      -0.00466372      -0.00000000
O       11.68749997       8.19193372       8.04323053       0.00320642      -0.01893797       0.00251171      -0.00000000
O       17.56663566       8.19203652       8.04330153       0.00810952      -0.01057263      -0.00008973      -0.00000000
