1
Lattice="3.2950931799861007 0.195996383591899 -2.602701197143587e-10 0.4235791058897424 3.273627099751232 -6.751222723447325e-10 -1.8593361427964128 -1.734811741255842 2.1046023324285863" Properties=species:S:1:pos:R:3:spacegroup_kinds:I:1:forces:R:3 spacegroup="P 1" unit_cell=conventional occupancy="_JSON {\"0\": {\"In\": 1}}" n_minim_iter=1 energy=-1969.8166819028008 stress="-0.3358034520505983 -0.0217149952012889 5.85436995567054e-12 -0.0217149952012889 -0.3327904468714199 5.462281165168624e-12 5.85436995567054e-12 5.462281165168624e-12 -0.3125297593202536" free_energy=-1969.8166819028008 pbc="T T T"
In       0.00000000       0.00000000       0.00000000        0       0.00000000      -0.00000000      -0.00000000
1
Lattice="3.3235270883140453 0.2573317494834423 -2.742975939250495e-10 0.48673530214717525 3.2977478196025154 -6.841333886010666e-10 -1.9051311950908125 -1.7775397841322815 2.0791535252040085" Properties=species:S:1:pos:R:3:spacegroup_kinds:I:1:forces:R:3 spacegroup="P 1" unit_cell=conventional occupancy="_JSON {\"0\": {\"In\": 1}}" n_minim_iter=2 energy=-1969.8275958686693 stress="-0.28608293084052416 0.003995767867907953 -7.900393528305965e-13 0.003995767867907953 -0.28663735275815333 -1.2180374059023976e-12 -7.900393528305965e-13 -1.2180374059023976e-12 -0.29036551403814875" free_energy=-1969.8275958686693 pbc="T T T"
In       0.00000000       0.00000000       0.00000000        0      -0.00000000      -0.00000000       0.00000000
