1
Lattice="3.341040212103285 0.03784906216425358 -2.321188498426099e-10 0.26899098582477227 3.330409299161725 -6.759451588804413e-10 -1.8050155988126386 -1.6841291802182323 2.251579410720038" Properties=species:S:1:pos:R:3:spacegroup_kinds:I:1:forces:R:3 spacegroup="P 1" unit_cell=conventional occupancy="_JSON {\"0\": {\"In\": 1}}" n_minim_iter=1 energy=-1970.2551317544496 stress="-0.006187973178266676 -0.008289969990533516 2.188598893880093e-12 -0.008289969990533516 -0.0050377209085714 2.278291210494191e-12 2.188598893880093e-12 2.278291210494191e-12 0.002697049013984848" free_energy=-1970.2551317544496 pbc="T T T"
In       0.00000000       0.00000000       0.00000000        0      -0.00000000      -0.00000000       0.00000000
