1
Lattice="3.284401470104815 0.03720742868165121 -2.2818221192973583e-10 0.26443093563715264 3.2739507769442455 -6.644858717973122e-10 -1.7744162027221608 -1.6555791023757316 2.2134096739803057" Properties=species:S:1:pos:R:3:spacegroup_kinds:I:1:forces:R:3 spacegroup="P 1" unit_cell=conventional occupancy="_JSON {\"0\": {\"In\": 1}}" n_minim_iter=1 energy=-1970.1298623906746 stress="-0.2141623818180175 -0.007138856454704259 1.7584793143472476e-12 -0.007138856454704259 -0.21317184917999726 1.6408975013806004e-12 1.7584793143472476e-12 1.6408975013806004e-12 -0.20651109983331645" free_energy=-1970.1298623906746 pbc="T T T"
In       0.00000000       0.00000000       0.00000000        0       0.00000000      -0.00000000      -0.00000000
