1
Lattice="3.717526597475875 0.5510146108421359 -3.588001935477039e-10 0.8069825715800095 3.670476840066995 -7.792948901052401e-10 -2.26225458438451 -2.1107457250331896 2.1332083311264873" Properties=species:S:1:pos:R:3:spacegroup_kinds:I:1:forces:R:3 spacegroup="P 1" unit_cell=conventional occupancy="_JSON {\"0\": {\"In\": 1}}" n_minim_iter=2 energy=-1970.4687964996344 stress="-0.03495380842398155 0.00012168241314955751 -1.3891726206055102e-14 0.00012168241314955751 -0.03497069213657226 -3.984729640006395e-14 -1.3891726206055102e-14 -3.984729640006395e-14 -0.03508422517475987" free_energy=-1970.4687964996344 pbc="T T T"
In       0.00000000       0.00000000       0.00000000        0       0.00000000      -0.00000000      -0.00000000
