1
Lattice="3.325325081355127 0.19779461599801745 -2.626551686410476e-10 0.42746536981363426 3.303662053603148 -6.813166044504903e-10 -1.876395225441574 -1.7507283343810447 2.123911689299418" Properties=species:S:1:pos:R:3:spacegroup_kinds:I:1:forces:R:3 spacegroup="P 1" unit_cell=conventional occupancy="_JSON {\"0\": {\"In\": 1}}" n_minim_iter=2 energy=-1969.9976620621596 stress="-0.2514831667429979 -0.0008046254940106039 -1.0995090019193721e-13 -0.0008046254940106039 -0.251371523118735 3.723242761806497e-13 -1.0995090019193721e-13 3.723242761806497e-13 -0.25062078540904276" free_energy=-1969.9976620621596 pbc="T T T"
In       0.00000000       0.00000000       0.00000000        0       0.00000000       0.00000000       0.00000000
