1
Lattice="3.368653366901631 0.03816187851669625 -2.3403734789927773e-10 0.27121415264091414 3.3579345911909737 -6.815316117658657e-10 -1.8199337596186322 -1.6980482344054022 2.2701883489135235" Properties=species:S:1:pos:R:3:spacegroup_kinds:I:1:forces:R:3 spacegroup="P 1" unit_cell=conventional occupancy="_JSON {\"0\": {\"In\": 1}}" n_minim_iter=1 energy=-1970.2361152571636 stress="0.05092873305904634 -0.0170671304531022 4.5031497045938514e-12 -0.0170671304531022 0.053296836389619205 4.071893428778115e-12 4.5031497045938514e-12 4.071893428778115e-12 0.06922093834477523" free_energy=-1970.2361152571636 pbc="T T T"
In       0.00000000       0.00000000       0.00000000        0       0.00000000      -0.00000000      -0.00000000
1
Lattice="3.4736260330526822 0.2747750803765056 -2.8783426318084584e-10 0.5145251221311102 3.4462795970427593 -7.153423861437837e-10 -1.9940755774460726 -1.8605273382812273 2.168796850154139" Properties=species:S:1:pos:R:3:spacegroup_kinds:I:1:forces:R:3 spacegroup="P 1" unit_cell=conventional occupancy="_JSON {\"0\": {\"In\": 1}}" n_minim_iter=2 energy=-1970.3034489285549 stress="-0.048909813717044046 -0.0009362740023023832 1.9662928175532e-13 -0.0009362740023023832 -0.048779903560819134 1.0784126673138606e-13 1.9662928175532e-13 1.0784126673138606e-13 -0.04790633417486021" free_energy=-1970.3034489285549 pbc="T T T"
In       0.00000000       0.00000000       0.00000000        0      -0.00000000      -0.00000000       0.00000000
