1
Lattice="3.2298868123913054 0.3188561207110154 -2.801579312926433e-10 0.5416313222604178 3.2000739924758888 -6.685332631871515e-10 -1.8857590671933817 -1.759465056204259 1.9702876701304908" Properties=species:S:1:pos:R:3:spacegroup_kinds:I:1:forces:R:3 spacegroup="P 1" unit_cell=conventional occupancy="_JSON {\"0\": {\"In\": 1}}" n_minim_iter=1 energy=-1968.8696711357438 stress="-0.49136562845881765 -0.008467138239341672 2.278565586879416e-12 -0.008467138239341672 -0.49019079369028284 1.9015094358223373e-12 2.278565586879416e-12 1.9015094358223373e-12 -0.48229072091890424" free_energy=-1968.8696711357438 pbc="T T T"
In       0.00000000       0.00000000       0.00000000        0       0.00000000      -0.00000000       0.00000000
