1
Lattice="3.166640484242346 0.3232656961359163 -2.7677532223895374e-10 0.5416530591979818 3.1366741351632794 -6.560098549048158e-10 -1.8541467715908024 -1.7299699152695647 1.9239169702464967" Properties=species:S:1:pos:R:3:spacegroup_kinds:I:1:forces:R:3 spacegroup="P 1" unit_cell=conventional occupancy="_JSON {\"0\": {\"In\": 1}}" n_minim_iter=1 energy=-1968.1828200216767 stress="-0.6132205519431925 -0.004655311265604582 1.2687422789391651e-12 -0.004655311265604582 -0.612574616872835 1.1751132375792672e-12 1.2687422789391651e-12 1.1751132375792672e-12 -0.608231083468979" free_energy=-1968.1828200216767 pbc="T T T"
In       0.00000000       0.00000000       0.00000000        0      -0.00000000       0.00000000      -0.00000000
