1
Lattice="3.744862333575322 0.5550663343722784 -3.6143834724546694e-10 0.8129164800632843 3.697466609643176 -7.85023958276752e-10 -2.278889406674816 -2.1262664715832527 2.1488942498296386" Properties=species:S:1:pos:R:3:spacegroup_kinds:I:1:forces:R:3 spacegroup="P 1" unit_cell=conventional occupancy="_JSON {\"0\": {\"In\": 1}}" n_minim_iter=1 energy=-1970.4829073925446 stress="-0.012731789284182074 -0.005804124587162452 1.551069514690621e-12 -0.005804124587162452 -0.011926453741640565 1.447198043478746e-12 1.551069514690621e-12 1.447198043478746e-12 -0.006511045924152745" free_energy=-1970.4829073925446 pbc="T T T"
In       0.00000000       0.00000000       0.00000000        0      -0.00000000      -0.00000000      -0.00000000
