1
Lattice="3.802765833398306 0.6167503318856797 -3.775182934952854e-10 0.8784600561138787 3.7509621279553063 -7.999997190291896e-10 -2.3406129446119808 -2.1838562294971244 2.143294652618729" Properties=species:S:1:pos:R:3:spacegroup_kinds:I:1:forces:R:3 spacegroup="P 1" unit_cell=conventional occupancy="_JSON {\"0\": {\"In\": 1}}" n_minim_iter=2 energy=-1970.489257360077 stress="-0.0012073643211124876 -2.9434804627419414e-05 9.794296033730377e-14 -2.9434804627419414e-05 -0.0012032801750227026 -2.7247714791207743e-14 9.794296033730377e-14 -2.7247714791207743e-14 -0.0011758166936775398" free_energy=-1970.489257360077 pbc="T T T"
In       0.00000000       0.00000000       0.00000000        0      -0.00000000       0.00000000      -0.00000000
