1
Lattice="3.270166222270323 0.2722362463731521 -2.73653987172999e-10 0.4979109657942416 3.2434833690430636 -6.741679374944486e-10 -1.884038593895664 -1.7578598073067528 2.0318531368394237" Properties=species:S:1:pos:R:3:spacegroup_kinds:I:1:forces:R:3 spacegroup="P 1" unit_cell=conventional occupancy="_JSON {\"0\": {\"In\": 1}}" n_minim_iter=2 energy=-1969.6316317195083 stress="-0.3406077729269968 -0.004953190532468202 1.287248182156928e-12 -0.004953190532468202 -0.33992050642799804 1.0387857272439294e-12 1.287248182156928e-12 1.0387857272439294e-12 -0.3352990434789788" free_energy=-1969.6316317195083 pbc="T T T"
In       0.00000000       0.00000000       0.00000000        0      -0.00000000      -0.00000000      -0.00000000
