1
Lattice="3.663415960916775 0.4967447771027987 -3.4444273995909034e-10 0.7490978843443129 3.6202519575230623 -7.654809205304089e-10 -2.206256922486927 -2.058498366891008 2.1359744244171677" Properties=species:S:1:pos:R:3:spacegroup_kinds:I:1:forces:R:3 spacegroup="P 1" unit_cell=conventional occupancy="_JSON {\"0\": {\"In\": 1}}" n_minim_iter=2 energy=-1970.3977703337448 stress="-0.07823311437091111 0.0012715270135025647 -4.098497274416168e-13 0.0012715270135025647 -0.07840954164831568 -1.737124526356894e-13 -4.098497274416168e-13 -1.737124526356894e-13 -0.07959591131256215" free_energy=-1970.3977703337448 pbc="T T T"
In       0.00000000       0.00000000       0.00000000        0       0.00000000       0.00000000      -0.00000000
