1
Lattice="3.3129629164887078 0.03753098778033251 -2.3016817904818573e-10 0.2667304504982896 3.30242134317384 -6.702646788980765e-10 -1.7898466833433808 -1.669976165036067 2.232657680749394" Properties=species:S:1:pos:R:3:spacegroup_kinds:I:1:forces:R:3 spacegroup="P 1" unit_cell=conventional occupancy="_JSON {\"0\": {\"In\": 1}}" n_minim_iter=1 energy=-1970.2551317544496 stress="-0.006187973178266676 -0.008289969990533516 2.188598893880093e-12 -0.008289969990533516 -0.0050377209085714 2.278291210494191e-12 2.188598893880093e-12 2.278291210494191e-12 0.002697049013984848" free_energy=-1970.2551317544496 pbc="T T T"
In       0.00000000       0.00000000       0.00000000        0      -0.00000000      -0.00000000       0.00000000
