1
Lattice="3.2298868123913045 0.3188561207110151 -2.801580148477188e-10 0.5416313222604164 3.2000739924758896 -6.685333347223794e-10 -1.8857590671933808 -1.7594650562042589 1.970287670130491" Properties=species:S:1:pos:R:3:spacegroup_kinds:I:1:forces:R:3 spacegroup="P 1" unit_cell=conventional occupancy="_JSON {\"0\": {\"In\": 1}}" n_minim_iter=2 energy=-1969.155398592923 stress="-0.42256614593071534 0.008590775239288676 -2.126924357181935e-12 0.008590775239288676 -0.4237581356153787 -2.3633586048039816e-12 -2.126924357181935e-12 -2.3633586048039816e-12 -0.43177356510711135" free_energy=-1969.155398592923 pbc="T T T"
In       0.00000000       0.00000000       0.00000000        0       0.00000000      -0.00000000      -0.00000000
