1
Lattice="3.2924642701387956 0.25492663914959574 -2.7173391502020127e-10 0.4821861079362315 3.2669259432686886 -6.777392445206846e-10 -1.8873251888990223 -1.7609262908022834 2.0597210469374923" Properties=species:S:1:pos:R:3:spacegroup_kinds:I:1:forces:R:3 spacegroup="P 1" unit_cell=conventional occupancy="_JSON {\"0\": {\"In\": 1}}" n_minim_iter=2 energy=-1969.8275958686693 stress="-0.28608293084052416 0.003995767867907953 -7.900393528305965e-13 0.003995767867907953 -0.28663735275815333 -1.2180374059023976e-12 -7.900393528305965e-13 -1.2180374059023976e-12 -0.29036551403814875" free_energy=-1969.8275958686693 pbc="T T T"
In       0.00000000       0.00000000       0.00000000        0      -0.00000000      -0.00000000       0.00000000
