10
Lattice="9.859660124406647 1.840563359132878 1.2708831359363426 6.94893104718403 7.232767696344091 1.2708831359363382 6.948931047184021 3.75105511396743 6.313292170212388" Properties=species:S:1:pos:R:3:spacegroup_kinds:I:1:forces:R:3 spacegroup="P 1" unit_cell=conventional occupancy="_JSON {\"0\": {\"In\": 1}, \"1\": {\"In\": 1}, \"2\": {\"In\": 1}, \"3\": {\"In\": 1}, \"4\": {\"O\": 1}, \"5\": {\"O\": 1}, \"6\": {\"O\": 1}, \"7\": {\"O\": 1}, \"8\": {\"O\": 1}, \"9\": {\"O\": 1}}" n_minim_iter=6 energy=-11335.149673528762 stress="0.23212929442772404 1.813003383013568e-06 1.2518533833499193e-06 1.813003383013568e-06 0.23212691445421754 6.757543542495006e-07 1.2518533833499193e-06 6.757543542495006e-07 0.2321264023886277" free_energy=-11335.149673528762 pbc="T T T"
In      20.32074228      10.96920142       7.57407944        0       0.00181935       0.00098209       0.00067812
In      15.31554107       8.26737786       5.70850824        1      -0.00181935      -0.00098209      -0.00067812
In       8.44198117       4.55700833       3.14655022        2       0.00181935       0.00098209       0.00067812
In       3.43677996       1.85518477       1.28097901        3      -0.00181935      -0.00098209      -0.00067812
O       10.86921063       4.51993052       2.27924196        4      -0.00000000      -0.00039829       0.00057682
O       14.01466448       8.35226510       3.48464775        5       0.00033297      -0.00061684      -0.00000000
O       14.67268782       5.78595505       5.43588804        6      -0.00033297       0.00021855       0.00057682
O        9.08483441       7.03843114       3.41917041        7       0.00033297      -0.00021855      -0.00057682
O       12.88831161       8.30445567       6.57581649        8       0.00000000       0.00039829      -0.00057682
O        9.74285776       4.47212108       5.37041070        9      -0.00033297       0.00061684      -0.00000000
