10
Lattice="9.646600770303206 1.7988490092636766 1.2420799635205313 6.797147320669205 7.077538589146848 1.2420799635205322 6.797147320669201 3.6691217749121776 6.178338006090902" Properties=species:S:1:pos:R:3:spacegroup_kinds:I:1:forces:R:3 spacegroup="P 1" unit_cell=conventional occupancy="_JSON {\"0\": {\"In\": 1}, \"1\": {\"In\": 1}, \"2\": {\"In\": 1}, \"3\": {\"In\": 1}, \"4\": {\"O\": 1}, \"5\": {\"O\": 1}, \"6\": {\"O\": 1}, \"7\": {\"O\": 1}, \"8\": {\"O\": 1}, \"9\": {\"O\": 1}}" n_minim_iter=1 energy=-11338.453628961512 stress="0.12701155145415896 -0.003404248263096734 -0.002350585589655655 -0.003404248263096734 0.13148038937192263 -0.001268853587872859 -0.002350585589655655 -0.001268853587872859 0.13244188785553362" free_energy=-11338.453628961512 pbc="T T T"
In      19.82195045      10.69995199       7.38816649        0       1.10684034       0.59747594       0.41254874
In      15.03939269       8.11831208       5.60558041        1      -1.10684034      -0.59747594      -0.41254874
In       8.20150274       4.42719731       3.05691753        2       1.10684034       0.59747594       0.41254874
In       3.41894499       1.84555740       1.27433145        3      -1.10684034      -0.59747594      -0.41254874
O       10.63352425       4.42727392       2.21971294        4       0.00000000      -0.10440410       0.15120380
O       13.70482531       8.18085249       3.40770445        5       0.08728235      -0.16169291      -0.00000000
O       14.35937050       5.65555347       5.30888195        6      -0.08728235       0.05728881       0.15120380
O        8.88152493       6.88995592       3.35361600        7       0.08728235      -0.05728881      -0.15120380
O       12.60737118       8.11823547       6.44278500        8      -0.00000000       0.10440410      -0.15120380
O        9.53607012       4.36465691       5.25479349        9      -0.08728235       0.16169291       0.00000000
10
Lattice="9.66448423830633 1.812976321494732 1.251834674099478 6.8187708736996395 7.084737292712937 1.251834674099479 6.818770873699636 3.680794237716341 6.181613570713512" Properties=species:S:1:pos:R:3:spacegroup_kinds:I:1:forces:R:3 spacegroup="P 1" unit_cell=conventional occupancy="_JSON {\"0\": {\"In\": 1}, \"1\": {\"In\": 1}, \"2\": {\"In\": 1}, \"3\": {\"In\": 1}, \"4\": {\"O\": 1}, \"5\": {\"O\": 1}, \"6\": {\"O\": 1}, \"7\": {\"O\": 1}, \"8\": {\"O\": 1}, \"9\": {\"O\": 1}}" n_minim_iter=2 energy=-11338.463977812256 stress="0.13272109635672827 0.004405196555061487 0.003041726319370296 0.004405196555061487 0.12693828973303586 0.0016419335563779822 0.003041726319370296 0.0016419335563779822 0.12569408264744822" free_energy=-11338.463977812256 pbc="T T T"
In      19.87576716      10.72900242       7.40822541        0       1.14669778       0.61899112       0.42740467
In      15.07727184       8.13875937       5.61969898        1      -1.14669778      -0.61899112      -0.42740467
In       8.22475416       4.43974850       3.06558395        2       1.14669778       0.61899112       0.42740467
In       3.42625885       1.84950544       1.27705752        3      -1.14669778      -0.61899112      -0.42740467
O       10.65774863       4.44191561       2.23125917        4       0.00000000      -0.03000216       0.04345079
O       13.74042291       8.19872502       3.42315541        5       0.02508196      -0.04646500       0.00000000
O       14.39384521       5.67707149       5.32206595        6      -0.02508196       0.01646284       0.04345079
O        8.90818079       6.90143638       3.36321698        7       0.02508196      -0.01646284      -0.04345079
O       12.64427738       8.13659226       6.45402376        8       0.00000000       0.03000216      -0.04345079
O        9.56160309       4.37978285       5.26212752        9      -0.02508196       0.04646500       0.00000000
10
Lattice="9.667980044288392 1.815735543140068 1.2537398778730753 6.822995821862581 7.086145758748289 1.2537398778730766 6.8229958218625795 3.683074878192586 6.182255643146948" Properties=species:S:1:pos:R:3:spacegroup_kinds:I:1:forces:R:3 spacegroup="P 1" unit_cell=conventional occupancy="_JSON {\"0\": {\"In\": 1}, \"1\": {\"In\": 1}, \"2\": {\"In\": 1}, \"3\": {\"In\": 1}, \"4\": {\"O\": 1}, \"5\": {\"O\": 1}, \"6\": {\"O\": 1}, \"7\": {\"O\": 1}, \"8\": {\"O\": 1}, \"9\": {\"O\": 1}}" n_minim_iter=3 energy=-11338.510987556903 stress="0.1125050209175879 -0.00034530914686795516 -0.0002384311138561346 -0.00034530914686795516 0.11295831647376067 -0.0001287058738444634 -0.0002384311138561346 -0.0001287058738444634 0.11305584585440528" free_energy=-11338.510987556903 pbc="T T T"
In      19.90072370      10.74247405       7.41752737        0      -0.00122773      -0.00066274      -0.00045761
In      15.07023385       8.13496024       5.61707573        1       0.00122773       0.00066274       0.00045761
In       8.24373786       4.44999596       3.07265968        2      -0.00122774      -0.00066274      -0.00045761
In       3.41324801       1.84248215       1.27220803        3       0.00122773       0.00066274       0.00045761
O       10.66248295       4.44385763       2.23484508        4       0.00000000       0.00175919      -0.00254775
O       13.74814725       8.20079529       3.42617373        5      -0.00147069       0.00272449       0.00000000
O       14.39981448       5.68177948       5.32597291        6       0.00147069      -0.00096531      -0.00254775
O        8.91415723       6.90317672       3.36376250        7      -0.00147069       0.00096531       0.00254775
O       12.65148875       8.14109857       6.45489032        8      -0.00000000      -0.00175919       0.00254775
O        9.56582446       4.38416090       5.26356168        9       0.00147069      -0.00272449      -0.00000000
