10
Lattice="9.981594268608479 1.8553844393742143 1.281116883577583 7.028229472833014 7.326572598302091 1.281116883577572 7.028229472833003 3.7938606567250877 6.397386015001143" Properties=species:S:1:pos:R:3:spacegroup_kinds:I:1:forces:R:3 spacegroup="P 1" unit_cell=conventional occupancy="_JSON {\"0\": {\"In\": 1}, \"1\": {\"In\": 1}, \"2\": {\"In\": 1}, \"3\": {\"In\": 1}, \"4\": {\"O\": 1}, \"5\": {\"O\": 1}, \"6\": {\"O\": 1}, \"7\": {\"O\": 1}, \"8\": {\"O\": 1}, \"9\": {\"O\": 1}}" n_minim_iter=1 energy=-11331.665955023243 stress="0.32267816997146814 0.011868636827745822 0.008195126952360918 0.011868636827745822 0.3070979272221116 0.004423755633076328 0.008195126952360918 0.004423755633076328 0.3037457403595836" free_energy=-11331.665955023243 pbc="T T T"
In      20.57357997      11.10568401       7.66831875        0       0.75723086       0.40875563       0.28224002
In      15.48349987       8.35804255       5.77111093        1      -0.75723086      -0.40875563      -0.28224002
In       8.55455337       4.61777516       3.18850886        2       0.75723086       0.40875563       0.28224002
In       3.46447326       1.87013371       1.29130104        3      -0.75723086      -0.40875563      -0.28224002
O       11.00031045       4.56935099       2.30448594        4      -0.00000000      -0.01855938       0.02687872
O       14.18194237       8.45086635       3.52102183        5       0.01551574      -0.02874332      -0.00000000
O       14.84690800       5.85034792       5.50317894        6      -0.01551574       0.01018394       0.02687872
O        9.19114524       7.12546979       3.45644085        7       0.01551574      -0.01018394      -0.02687872
O       13.03774279       8.40646672       6.65513385        8       0.00000000       0.01855938      -0.02687872
O        9.85611086       4.52495136       5.43859796        9      -0.01551574       0.02874332       0.00000000
10
Lattice="9.962300424101105 1.8401091583944467 1.2705695167088757 7.004872307806649 7.318824728477645 1.270569516708865 7.004872307806638 3.7812523846433788 6.393877751927588" Properties=species:S:1:pos:R:3:spacegroup_kinds:I:1:forces:R:3 spacegroup="P 1" unit_cell=conventional occupancy="_JSON {\"0\": {\"In\": 1}, \"1\": {\"In\": 1}, \"2\": {\"In\": 1}, \"3\": {\"In\": 1}, \"4\": {\"O\": 1}, \"5\": {\"O\": 1}, \"6\": {\"O\": 1}, \"7\": {\"O\": 1}, \"8\": {\"O\": 1}, \"9\": {\"O\": 1}}" n_minim_iter=2 energy=-11331.681733826 stress="0.30928254068491046 0.0005419431256386001 0.0003742041128945583 0.0005419431256386001 0.3085711190123681 0.00020199657320519937 0.0003742041128945583 0.00020199657320519937 0.3084180521814712" free_energy=-11331.681733826 pbc="T T T"
In      20.51739393      11.07535460       7.64737672        0       0.72132579       0.38937396       0.26885725
In      15.44067365       8.33492482       5.75514847        1      -0.72132579      -0.38937396      -0.26885725
In       8.53137141       4.60526146       3.17986833        2       0.72132579       0.38937396       0.26885725
In       3.45465113       1.86483169       1.28764007        3      -0.72132579      -0.38937396      -0.26885725
O       10.97416148       4.55334507       2.29228006        4      -0.00000000      -0.03954507       0.05727137
O       14.14366374       8.43128257       3.50432372        5       0.03305988      -0.06124432       0.00000000
O       14.80953153       5.82720221       5.48921894        6      -0.03305988       0.02169925       0.05727137
O        9.16251353       7.11298408       3.44579786        7       0.03305988      -0.02169925      -0.05727137
O       12.99788358       8.38684122       6.64273673        8       0.00000000       0.03954507      -0.05727137
O        9.82838132       4.50890372       5.43069308        9      -0.03305988       0.06124432       0.00000000
10
Lattice="9.96196669083097 1.8398447343624407 1.2703869356304545 7.004468121261587 7.318690821042883 1.270386935630444 7.004468121261572 3.7810342034588826 6.393817220761951" Properties=species:S:1:pos:R:3:spacegroup_kinds:I:1:forces:R:3 spacegroup="P 1" unit_cell=conventional occupancy="_JSON {\"0\": {\"In\": 1}, \"1\": {\"In\": 1}, \"2\": {\"In\": 1}, \"3\": {\"In\": 1}, \"4\": {\"O\": 1}, \"5\": {\"O\": 1}, \"6\": {\"O\": 1}, \"7\": {\"O\": 1}, \"8\": {\"O\": 1}, \"9\": {\"O\": 1}}" n_minim_iter=3 energy=-11331.713032363898 stress="0.2995622945511305 -0.0030144777345002534 -0.002081454516015699 -0.0030144777345002534 0.30351947139827545 -0.0011235757778891152 -0.002081454516015699 -0.0011235757778891152 0.30437088279475527" free_energy=-11331.713032363898 pbc="T T T"
In      20.52711284      11.08060090       7.65099921        0       0.08581496       0.04632319       0.03198551
In      15.42924158       8.32875376       5.75088743        1      -0.08581496      -0.04632319      -0.03198551
In       8.54166137       4.61081602       3.18370367        2       0.08581496       0.04632319       0.03198551
In       3.44379012       1.85896888       1.28359189        3      -0.08581496      -0.04632319      -0.03198551
O       10.97370909       4.55246052       2.29294871        4       0.00000000      -0.01268228       0.01836719
O       14.14350936       8.43000281       3.50403471        5       0.01060245      -0.01964133       0.00000000
O       14.80837694       5.82713503       5.48985732        6      -0.01060245       0.00695905       0.01836719
O        9.16252601       7.11243474       3.44473378        7       0.01060245      -0.00695905      -0.01836719
O       12.99719386       8.38710926       6.64164239        8       0.00000000       0.01268228      -0.01836719
O        9.82739359       4.50956696       5.43055639        9      -0.01060245       0.01964133       0.00000000
10
Lattice="9.967844777956287 1.8445010646245648 1.273602066245828 7.011586271392558 7.321049901049119 1.2736020662458174 7.011586271392542 3.7848766035732972 6.394884125026859" Properties=species:S:1:pos:R:3:spacegroup_kinds:I:1:forces:R:3 spacegroup="P 1" unit_cell=conventional occupancy="_JSON {\"0\": {\"In\": 1}, \"1\": {\"In\": 1}, \"2\": {\"In\": 1}, \"3\": {\"In\": 1}, \"4\": {\"O\": 1}, \"5\": {\"O\": 1}, \"6\": {\"O\": 1}, \"7\": {\"O\": 1}, \"8\": {\"O\": 1}, \"9\": {\"O\": 1}}" n_minim_iter=4 energy=-11331.714481311921 stress="0.3014149910491652 -0.0003187258854213601 -0.00022007574572631566 -0.0003187258854213601 0.3018333901234601 -0.00011879758804746807 -0.00022007574572631566 -0.00011879758804746807 0.301923411305982" free_energy=-11331.714481311921 pbc="T T T"
In      20.54646596      11.09104778       7.65821264        0      -0.04575678      -0.02469966      -0.01705476
In      15.44006004       8.33459359       5.75491976        1       0.04575678       0.02469966       0.01705476
In       8.55095730       4.61583399       3.18716851        2      -0.04575678      -0.02469966      -0.01705476
In       3.44455138       1.85937981       1.28387563        3       0.04575678       0.02469966       0.01705476
O       10.98167673       4.55718521       2.29689101        4       0.00000000       0.00092734      -0.00134303
O       14.15530187       8.43573259       3.50912414        5      -0.00077526       0.00143619      -0.00000000
O       14.81963786       5.83427331       5.49433307        6       0.00077526      -0.00050885      -0.00134303
O        9.17137948       7.11615428       3.44775519        7      -0.00077526       0.00050885       0.00134303
O       13.00934061       8.39324238       6.64519726        8       0.00000000      -0.00092734       0.00134303
O        9.83571548       4.51469500       5.43296413        9       0.00077526      -0.00143619       0.00000000
10
Lattice="9.968214746142372 1.844794063974368 1.2738043781796486 7.012034229935732 7.321198421153146 1.273804378179638 7.012034229935714 3.785118413021802 6.394951330164162" Properties=species:S:1:pos:R:3:spacegroup_kinds:I:1:forces:R:3 spacegroup="P 1" unit_cell=conventional occupancy="_JSON {\"0\": {\"In\": 1}, \"1\": {\"In\": 1}, \"2\": {\"In\": 1}, \"3\": {\"In\": 1}, \"4\": {\"O\": 1}, \"5\": {\"O\": 1}, \"6\": {\"O\": 1}, \"7\": {\"O\": 1}, \"8\": {\"O\": 1}, \"9\": {\"O\": 1}}" n_minim_iter=5 energy=-11331.714546110485 stress="0.3026354603859927 0.00016941793100054084 0.00011698070050806828 0.00016941793100054084 0.3024130614231727 6.314655508410747e-05 0.00011698070050806828 6.314655508410747e-05 0.3023652108944592" free_energy=-11331.714546110485 pbc="T T T"
In      20.54695438      11.09131143       7.65839468        0       0.00986453       0.00532490       0.00367677
In      15.44147045       8.33535494       5.75544546        1      -0.00986453      -0.00532490      -0.00367677
In       8.55081278       4.61575598       3.18711464        2       0.00986453       0.00532490       0.00367677
In       3.44532885       1.85979949       1.28416541        3      -0.00986453      -0.00532490      -0.00367677
O       10.98217818       4.55751305       2.29709490        4       0.00000000       0.00014969      -0.00021679
O       14.15601851       8.43614046       3.50944440        5      -0.00012514       0.00023183       0.00000000
O       14.82037209       5.83470577       5.49457056        6       0.00012514      -0.00008214      -0.00021679
O        9.17191114       7.11640514       3.44798953        7      -0.00012514       0.00008214       0.00021679
O       13.01010504       8.39359786       6.64546520        8      -0.00000000      -0.00014969       0.00021679
O        9.83626471       4.51497046       5.43311569        9       0.00012514      -0.00023183       0.00000000
10
Lattice="9.967997789952397 1.8446222447553646 1.2736857394233256 7.011771539611002 7.321111325655677 1.273685739423315 7.011771539610983 3.784976611947754 6.394911919054297" Properties=species:S:1:pos:R:3:spacegroup_kinds:I:1:forces:R:3 spacegroup="P 1" unit_cell=conventional occupancy="_JSON {\"0\": {\"In\": 1}, \"1\": {\"In\": 1}, \"2\": {\"In\": 1}, \"3\": {\"In\": 1}, \"4\": {\"O\": 1}, \"5\": {\"O\": 1}, \"6\": {\"O\": 1}, \"7\": {\"O\": 1}, \"8\": {\"O\": 1}, \"9\": {\"O\": 1}}" n_minim_iter=6 energy=-11331.714550806599 stress="0.30231269042361103 -3.6482425228754606e-06 -2.5190603553607607e-06 -3.6482425228754606e-06 0.30231747955756716 -1.3597963319674093e-06 -2.5190603553607607e-06 -1.3597963319674093e-06 0.3023185099698011" free_energy=-11331.714550806599 pbc="T T T"
In      20.54640760      11.09101628       7.65819089        0       0.00002729       0.00001473       0.00001017
In      15.44090372       8.33504902       5.75523422        1      -0.00002729      -0.00001473      -0.00001017
In       8.55063717       4.61566118       3.18704919        2       0.00002729       0.00001473       0.00001017
In       3.44513329       1.85969393       1.28409252        3      -0.00002729      -0.00001473      -0.00001017
O       10.98188412       4.55733220       2.29695883        4      -0.00000000       0.00000488      -0.00000706
O       14.15558873       8.43591893       3.50925659        5      -0.00000408       0.00000755       0.00000000
O       14.81995106       5.83444591       5.49441479        6       0.00000408      -0.00000268      -0.00000706
O        9.17158983       7.11626429       3.44786862        7      -0.00000408       0.00000268       0.00000706
O       13.00965677       8.39337800       6.64532458        8       0.00000000      -0.00000488       0.00000706
O        9.83595216       4.51479127       5.43302681        9       0.00000408      -0.00000755      -0.00000000
