10
Lattice="9.738690212386675 1.8287867505339734 1.2627515531833615 6.872706910269212 7.138098329198216 1.2627515531833593 6.87270691026921 3.7099090820611385 6.227645128394015" Properties=species:S:1:pos:R:3:spacegroup_kinds:I:1:forces:R:3 spacegroup="P 1" unit_cell=conventional occupancy="_JSON {\"0\": {\"In\": 1}, \"1\": {\"In\": 1}, \"2\": {\"In\": 1}, \"3\": {\"In\": 1}, \"4\": {\"O\": 1}, \"5\": {\"O\": 1}, \"6\": {\"O\": 1}, \"7\": {\"O\": 1}, \"8\": {\"O\": 1}, \"9\": {\"O\": 1}}" n_minim_iter=5 energy=-11337.648864842811 stress="0.1556297785454728 -4.4081334258951095e-06 -3.0437544771636823e-06 -4.4081334258951095e-06 0.15563556520756155 -1.643028614769233e-06 -3.0437544771636823e-06 -1.643028614769233e-06 0.15563681024497633" free_energy=-11337.648864842811 pbc="T T T"
In      20.06027920      10.82860262       7.47699794        0      -0.00039468      -0.00021305      -0.00014711
In      15.16587687       8.18658864       5.65272442        1       0.00039468       0.00021305       0.00014711
In       8.31822719       4.49020553       3.10042382        2      -0.00039468      -0.00021305      -0.00014711
In       3.42382485       1.84819156       1.27615030        3       0.00039468       0.00021305       0.00014711
O       10.74037112       4.47503064       2.25275960        4       0.00000000      -0.00272359       0.00394446
O       13.84947986       8.25887079       3.45103862        5       0.00227694      -0.00421809       0.00000000
O       14.50396930       5.72375549       5.36658217        6      -0.00227694       0.00149450       0.00394446
O        8.98013475       6.95303869       3.38656608        7       0.00227694      -0.00149450      -0.00394446
O       12.74373293       8.20176353       6.50038864        8       0.00000000       0.00272359      -0.00394446
O        9.63462420       4.41792339       5.30210963        9      -0.00227694       0.00421809       0.00000000
