10
Lattice="8.37660634458062 1.1464474909451416 0.7916058826494781 5.554862713284919 6.3738038829351815 0.7916058826494787 5.554862713284927 2.9985325867491666 5.679860749857177" Properties=species:S:1:pos:R:3:spacegroup_kinds:I:1:forces:R:3 spacegroup="P 1" unit_cell=conventional occupancy="_JSON {\"0\": {\"In\": 1}, \"1\": {\"In\": 1}, \"2\": {\"In\": 1}, \"3\": {\"In\": 1}, \"4\": {\"O\": 1}, \"5\": {\"O\": 1}, \"6\": {\"O\": 1}, \"7\": {\"O\": 1}, \"8\": {\"O\": 1}, \"9\": {\"O\": 1}}" n_minim_iter=1 energy=-11339.838473076557 stress="-0.024742618263590227 0.010398051567746685 0.0071797084953103794 0.010398051567746685 -0.03839238866192497 0.0038756295172895938 0.0071797084953103794 0.0038756295172895938 -0.041329222298978355" free_energy=-11339.838473076557 pbc="T T T"
In      16.72157067       9.02635712       6.23257275        0       0.44641393       0.24097566       0.16639031
In      12.50792700       6.75181884       4.66203603        1      -0.44641393      -0.24097566      -0.16639031
In       6.97840479       3.76696514       2.60103649        2       0.44641393       0.24097566       0.16639031
In       2.76476112       1.49242686       1.03049977        3      -0.44641393      -0.24097566      -0.16639031
O        9.05988612       3.47413468       1.81878258        4      -0.00000000       0.01314130      -0.01903196
O       11.61058044       6.80985818       2.60737402        5      -0.01098619       0.02035222      -0.00000000
O       12.06405452       4.55336448       4.65871295        6       0.01098619      -0.00721092      -0.01903196
O        7.42227727       5.96541950       2.60435957        7      -0.01098619       0.00721092       0.01903196
O       10.42644566       7.04464930       5.44428994        8       0.00000000      -0.01314130       0.01903196
O        7.87575135       3.70892579       4.65569851        9       0.01098619      -0.02035222      -0.00000000
10
Lattice="8.359956694789323 1.1323882484171366 0.7818981732439744 5.533973089872209 6.367599306212367 0.781898173243975 5.533973089872215 2.987256301490462 5.677498169705028" Properties=species:S:1:pos:R:3:spacegroup_kinds:I:1:forces:R:3 spacegroup="P 1" unit_cell=conventional occupancy="_JSON {\"0\": {\"In\": 1}, \"1\": {\"In\": 1}, \"2\": {\"In\": 1}, \"3\": {\"In\": 1}, \"4\": {\"O\": 1}, \"5\": {\"O\": 1}, \"6\": {\"O\": 1}, \"7\": {\"O\": 1}, \"8\": {\"O\": 1}, \"9\": {\"O\": 1}}" n_minim_iter=2 energy=-11339.85165060899 stress="-0.028485815559740117 0.002714595348404317 0.0018743899442215392 0.002714595348404317 -0.032049329641773684 0.001011801663286444 0.0018743899442215392 0.001011801663286444 -0.032816042021120796" free_energy=-11339.85165060899 pbc="T T T"
In      16.67173830       8.99945744       6.21399890        0       0.47548378       0.25666766       0.17722541
In      12.47011603       6.73140836       4.64794288        1      -0.47548378      -0.25666766      -0.17722541
In       6.95778687       3.75583552       2.59335165        2       0.47548378       0.25666766       0.17722541
In       2.75616459       1.48778643       1.02729562        3      -0.47548378      -0.25666766      -0.17722541
O        9.03695407       3.45963663       1.80788089        4       0.00000000      -0.11744291       0.17008732
O       11.57685531       6.79248643       2.59222181        5       0.09818286      -0.18188640       0.00000000
O       12.03102593       4.53258309       4.64662997        6      -0.09818286       0.06444349       0.17008732
O        7.39687696       5.95466078       2.59466455        7       0.09818286      -0.06444349      -0.17008732
O       10.39094882       7.02760725       5.43341363        8      -0.00000000       0.11744291      -0.17008732
O        7.85104759       3.69475744       4.64907272        9      -0.09818286       0.18188640      -0.00000000
10
Lattice="8.31837865157311 1.0971612040694985 0.7575743941313738 5.481708324550941 6.352169703590359 0.7575743941313745 5.481708324550949 2.9590436146890724 5.671687561231009" Properties=species:S:1:pos:R:3:spacegroup_kinds:I:1:forces:R:3 spacegroup="P 1" unit_cell=conventional occupancy="_JSON {\"0\": {\"In\": 1}, \"1\": {\"In\": 1}, \"2\": {\"In\": 1}, \"3\": {\"In\": 1}, \"4\": {\"O\": 1}, \"5\": {\"O\": 1}, \"6\": {\"O\": 1}, \"7\": {\"O\": 1}, \"8\": {\"O\": 1}, \"9\": {\"O\": 1}}" n_minim_iter=3 energy=-11339.892065209378 stress="-0.02396134409183985 -0.006833194288148372 -0.0047182246365669285 -0.006833194288148372 -0.01499124691573588 -0.002546912687566519 -0.0047182246365669285 -0.002546912687566519 -0.013061274299739616" free_energy=-11339.892065209378 pbc="T T T"
In      16.56707665       8.94296075       6.17498873        0       0.12044019       0.06501400       0.04489125
In      12.35561631       6.66960105       4.60526580        1      -0.12044019      -0.06501400      -0.04489125
In       6.92617900       3.73877349       2.58157056        2       0.12044019       0.06501400       0.04489125
In       2.71471866       1.46541379       1.01184763        3      -0.12044019      -0.06501400      -0.04489125
O        8.97963816       3.41649204       1.79052422        4       0.00000000      -0.08221210       0.11906412
O       11.49826731       6.73843693       2.55428349        5       0.06872973      -0.12732368       0.00000000
O       11.94271733       4.48433601       4.62636800        6      -0.06872973       0.04511158       0.11906412
O        7.33907799       5.92403853       2.56046836        7       0.06872973      -0.04511158      -0.11906412
O       10.30215716       6.99188249       5.39631214        8      -0.00000000       0.08221210      -0.11906412
O        7.78352800       3.66993761       4.63255287        9      -0.06872973       0.12732368       0.00000000
10
Lattice="8.329878455499086 1.1069214194567407 0.7643136857059906 5.496178106911897 6.356427953602725 0.7643136857059912 5.496178106911905 2.9668544492986713 5.673281802993419" Properties=species:S:1:pos:R:3:spacegroup_kinds:I:1:forces:R:3 spacegroup="P 1" unit_cell=conventional occupancy="_JSON {\"0\": {\"In\": 1}, \"1\": {\"In\": 1}, \"2\": {\"In\": 1}, \"3\": {\"In\": 1}, \"4\": {\"O\": 1}, \"5\": {\"O\": 1}, \"6\": {\"O\": 1}, \"7\": {\"O\": 1}, \"8\": {\"O\": 1}, \"9\": {\"O\": 1}}" n_minim_iter=4 energy=-11339.898626884788 stress="-0.020150422951327573 -0.0011346057628047873 -0.0007834293347546714 -0.0011346057628047873 -0.018660998909564342 -0.00042289764775905574 -0.0007834293347546714 -0.00042289764775905574 -0.01834053998502999" free_energy=-11339.898626884788 pbc="T T T"
In      16.60418912       8.96299418       6.18882153        0       0.06877776       0.03712645       0.02563529
In      12.37916290       6.68231157       4.61404224        1      -0.06877776      -0.03712645      -0.02563529
In       6.94307179       3.74789227       2.58786695        2       0.06877776       0.03712645       0.02563529
In       2.71804556       1.46720966       1.01308765        3      -0.06877776      -0.03712645      -0.02563529
O        8.99549790       3.42652367       1.79810496        4       0.00000000       0.01786874      -0.02587850
O       11.52161761       6.75042988       2.56479098        5      -0.01493836       0.02767371       0.00000000
O       11.96555631       4.49874667       4.63474586        6       0.01493836      -0.00980497      -0.02587850
O        7.35667838       5.93145717       2.56716332        7      -0.01493836       0.00980497       0.02587850
O       10.32673678       7.00368017       5.40380422        8      -0.00000000      -0.01786874       0.02587850
O        7.80061708       3.67977396       4.63711820        9       0.01493836      -0.02767371      -0.00000000
10
Lattice="8.333686279384109 1.110150350864629 0.7665432174702839 5.500966945817754 6.35783952815263 0.7665432174702846 5.500966945817761 2.9694394797941253 5.673811870852766" Properties=species:S:1:pos:R:3:spacegroup_kinds:I:1:forces:R:3 spacegroup="P 1" unit_cell=conventional occupancy="_JSON {\"0\": {\"In\": 1}, \"1\": {\"In\": 1}, \"2\": {\"In\": 1}, \"3\": {\"In\": 1}, \"4\": {\"O\": 1}, \"5\": {\"O\": 1}, \"6\": {\"O\": 1}, \"7\": {\"O\": 1}, \"8\": {\"O\": 1}, \"9\": {\"O\": 1}}" n_minim_iter=5 energy=-11339.899667511068 stress="-0.01879323022850954 0.00039553361484218633 0.00027311040460932284 0.00039553361484218633 -0.019312456651415462 0.00014742586697195938 0.00027311040460932284 0.00014742586697195938 -0.019424171465173962" free_energy=-11339.899667511068 pbc="T T T"
In      16.61789367       8.97039194       6.19392958        0       0.03467879       0.01871972       0.01292571
In      12.38553660       6.68575211       4.61641788        1      -0.03467879      -0.01871972      -0.01292571
In       6.95008359       3.75167726       2.59048043        2       0.03467879       0.01871972       0.01292571
In       2.71772651       1.46703743       1.01296873        3      -0.03467879      -0.01871972      -0.01292571
O        9.00074819       3.43023504       1.80004625        4       0.00000000       0.04569226      -0.06617407
O       11.52901943       6.75500646       2.56826780        5      -0.03819896       0.07076461      -0.00000000
O       11.97344390       4.50330061       4.63695219        6       0.03819896      -0.02507234      -0.06617407
O        7.36217629       5.93412876       2.56994612        7      -0.03819896       0.02507234       0.06617407
O       10.33487200       7.00719433       5.40685206        8      -0.00000000      -0.04569226       0.06617407
O        7.80660076       3.68242292       4.63863052        9       0.03819896      -0.07076461      -0.00000000
10
Lattice="8.34224215581022 1.1174003027180215 0.7715492073489311 5.511722738017592 6.361014076537724 0.7715492073489316 5.511722738017598 2.9752454906844368 5.675006830959222" Properties=species:S:1:pos:R:3:spacegroup_kinds:I:1:forces:R:3 spacegroup="P 1" unit_cell=conventional occupancy="_JSON {\"0\": {\"In\": 1}, \"1\": {\"In\": 1}, \"2\": {\"In\": 1}, \"3\": {\"In\": 1}, \"4\": {\"O\": 1}, \"5\": {\"O\": 1}, \"6\": {\"O\": 1}, \"7\": {\"O\": 1}, \"8\": {\"O\": 1}, \"9\": {\"O\": 1}}" n_minim_iter=6 energy=-11339.900952300899 stress="-0.01712469002014743 0.002093220938588607 0.0014453396433045838 0.002093220938588607 -0.019872511084788717 0.0007801989415876926 0.0014453396433045838 0.0007801989415876926 -0.020463722013449093" free_energy=-11339.900952300899 pbc="T T T"
In      16.64868537       8.98701340       6.20540646        0      -0.01960040      -0.01058036      -0.00730559
In      12.39984609       6.69347642       4.62175141        1       0.01960040       0.01058036       0.00730559
In       6.96584155       3.76018346       2.59635384        2      -0.01960040      -0.01058036      -0.00730559
In       2.71700228       1.46664649       1.01269879        3       0.01960040       0.01058036       0.00730559
O        9.01254299       3.44006582       1.80223989        4       0.00000000       0.05784228      -0.08377039
O       11.54439625       6.76760325       2.57607552        5      -0.04835643       0.08958160      -0.00000000
O       11.99241247       4.51270748       4.63974330        6       0.04835643      -0.03173932      -0.08377039
O        7.37327517       5.94095241       2.57836195        7      -0.04835643       0.03173932       0.08377039
O       10.35314465       7.01359407       5.41586536        8       0.00000000      -0.05784228       0.08377039
O        7.82129140       3.68605664       4.64202973        9       0.04835643      -0.08958160      -0.00000000
10
Lattice="8.342487363230674 1.1176079771414567 0.7716926036200775 5.512030905539318 6.361105115670761 0.7716926036200782 5.512030905539328 2.9754118404942833 5.675041158136315" Properties=species:S:1:pos:R:3:spacegroup_kinds:I:1:forces:R:3 spacegroup="P 1" unit_cell=conventional occupancy="_JSON {\"0\": {\"In\": 1}, \"1\": {\"In\": 1}, \"2\": {\"In\": 1}, \"3\": {\"In\": 1}, \"4\": {\"O\": 1}, \"5\": {\"O\": 1}, \"6\": {\"O\": 1}, \"7\": {\"O\": 1}, \"8\": {\"O\": 1}, \"9\": {\"O\": 1}}" n_minim_iter=7 energy=-11339.901900274474 stress="-0.01874979607779078 -4.561594056867292e-05 -3.149716608380485e-05 -4.561594056867292e-05 -0.018689914951282926 -1.7002271450101916e-05 -3.149716608380485e-05 -1.7002271450101916e-05 -0.01867703114905777" free_energy=-11339.901900274474 pbc="T T T"
In      16.65013159       8.98779407       6.20594551        0       0.00245156       0.00132336       0.00091376
In      12.39969219       6.69339334       4.62169405        1      -0.00245156      -0.00132336      -0.00091376
In       6.96685701       3.76073161       2.59673233        2       0.00245156       0.00132336       0.00091376
In       2.71641760       1.46633088       1.01248086        3      -0.00245156      -0.00132336      -0.00091376
O        9.01288098       3.44217232       1.79965987        4      -0.00000000      -0.00036287       0.00052553
O       11.54331128       6.77079039       2.57629920        5       0.00030336      -0.00056199       0.00000000
O       11.99448159       4.51197564       4.63718045        6      -0.00030336       0.00019912       0.00052553
O        7.37206760       5.94214931       2.58124592        7       0.00030336      -0.00019912      -0.00052553
O       10.35366821       7.01195263       5.41876650        8      -0.00000000       0.00036287      -0.00052553
O        7.82323791       3.68333456       4.64212717        9      -0.00030336       0.00056199       0.00000000
