10
Lattice="8.142615367121047 1.343485339265574 0.9276577481443632 5.591191375770605 6.070067287370505 0.927657748144363 5.591191375770629 3.0181429144780547 5.3476236889560145" Properties=species:S:1:pos:R:3:spacegroup_kinds:I:1:forces:R:3 spacegroup="P 1" unit_cell=conventional occupancy="_JSON {\"0\": {\"In\": 1}, \"1\": {\"In\": 1}, \"2\": {\"In\": 1}, \"3\": {\"In\": 1}, \"4\": {\"O\": 1}, \"5\": {\"O\": 1}, \"6\": {\"O\": 1}, \"7\": {\"O\": 1}, \"8\": {\"O\": 1}, \"9\": {\"O\": 1}}" n_minim_iter=6 energy=-11332.584637368534 stress="-0.49280549515017 -6.016187496445467e-05 -4.154092922526217e-05 -6.016187496445467e-05 -0.4927265192235876 -2.242392594179396e-05 -4.154092922526217e-05 -2.242392594179396e-05 -0.4927095270565661" free_energy=-11332.584637368534 pbc="T T T"
In      16.83514957       9.08766737       6.27490661        0       0.00160938       0.00086875       0.00059986
In      12.15234763       6.55987596       4.52950217        1      -0.00160938      -0.00086875      -0.00059986
In       7.17265051       3.87181959       2.67343702        2       0.00160938       0.00086875       0.00059986
In       2.48984857       1.34402819       0.92803258        3      -0.00160938      -0.00086875      -0.00059986
O        8.90255722       3.76101780       1.56744414        4       0.00000000      -0.00043858       0.00063517
O       11.29574087       7.06017939       2.72839255        5       0.00036665      -0.00067924      -0.00000000
O       12.10056495       4.52461008       4.24125599        6      -0.00036665       0.00024066       0.00063517
O        7.22443319       5.90708548       2.96168321        7       0.00036665      -0.00024066      -0.00063517
O       10.42244091       6.67067775       5.63549505        8      -0.00000000       0.00043858      -0.00063517
O        8.02925726       3.37151617       4.47454664        9      -0.00036665       0.00067924       0.00000000
