10
Lattice="9.242337866748851 1.6106105935751511 1.1121039826085595 6.41795118003899 6.8428633172022515 1.1121039826085606 6.417951180038995 3.464430490331909 6.00493755368902" Properties=species:S:1:pos:R:3:spacegroup_kinds:I:1:forces:R:3 spacegroup="P 1" unit_cell=conventional occupancy="_JSON {\"0\": {\"In\": 1}, \"1\": {\"In\": 1}, \"2\": {\"In\": 1}, \"3\": {\"In\": 1}, \"4\": {\"O\": 1}, \"5\": {\"O\": 1}, \"6\": {\"O\": 1}, \"7\": {\"O\": 1}, \"8\": {\"O\": 1}, \"9\": {\"O\": 1}}" n_minim_iter=7 energy=-11339.825321535965 stress="0.04196368657527266 5.359067330435466e-05 3.7003606994675536e-05 5.359067330435466e-05 0.04189333682127803 1.9974665245323843e-05 3.7003606994675536e-05 1.9974665245323843e-05 0.041878200632130505" free_energy=-11339.825321535965 pbc="T T T"
In      18.78993651      10.14286759       7.00350754        0      -0.00411850      -0.00222318      -0.00153508
In      14.32742385       7.73398903       5.34021075        1       0.00411850       0.00222318       0.00153508
In       7.75081640       4.18391539       2.88893478        2      -0.00411850      -0.00222318      -0.00153508
In       3.28830373       1.77503683       1.22563799        3       0.00411850       0.00222318       0.00153508
O       10.14072900       4.14718884       2.08847985        4       0.00000000      -0.00127712       0.00184959
O       13.04673017       7.76748137       3.16939037        5       0.00106768      -0.00197790       0.00000000
O       13.65267901       5.31813577       5.09094863        6      -0.00106768       0.00070078       0.00184959
O        8.42556123       6.59976864       3.13819690        7       0.00106768      -0.00070078      -0.00184959
O       11.93751125       7.77071558       6.14066567        8      -0.00000000       0.00127712      -0.00184959
O        9.03151008       4.15042304       5.05975516        9      -0.00106768       0.00197790      -0.00000000
