10
Lattice="8.06558861665457 1.0482969940327433 0.7238343437395018 5.302146186777029 6.167648833619797 0.7238343437394938 5.3021461867770405 2.8621154007525718 5.511090974099707" Properties=species:S:1:pos:R:3:spacegroup_kinds:I:1:forces:R:3 spacegroup="P 1" unit_cell=conventional occupancy="_JSON {\"0\": {\"In\": 1}, \"1\": {\"In\": 1}, \"2\": {\"In\": 1}, \"3\": {\"In\": 1}, \"4\": {\"O\": 1}, \"5\": {\"O\": 1}, \"6\": {\"O\": 1}, \"7\": {\"O\": 1}, \"8\": {\"O\": 1}, \"9\": {\"O\": 1}}" n_minim_iter=1 energy=-11337.939096278684 stress="-0.20370392080017768 -0.012059082051610392 -0.00832662670243578 -0.012059082051610392 -0.18787367606677946 -0.004494739615764725 -0.00832662670243578 -0.004494739615764725 -0.18446769970943408" free_energy=-11337.939096278684 pbc="T T T"
In      16.07149178       8.67544246       5.99027111        0       1.25353375       0.67666151       0.46722526
In      11.93332972       6.44164940       4.44786839        1      -1.25353375      -0.67666151      -0.46722526
In       6.73655128       3.63641184       2.51089128        2       1.25353375       0.67666151       0.46722526
In       2.59838923       1.40261879       0.96848856        3      -1.25353375      -0.67666151      -0.46722526
O        8.70026456       3.30281553       1.72628922        4       0.00000000       0.06984279      -0.10115019
O       11.13468553       6.52884216       2.46352426        5      -0.05838892       0.10816705      -0.00000000
O       11.56798979       4.33251930       4.48183470        6       0.05838892      -0.03832426      -0.10115019
O        7.10189122       5.74554194       2.47692496        7      -0.05838892       0.03832426       0.10115019
O        9.96961644       6.77524571       5.23247045        8      -0.00000000      -0.06984279       0.10115019
O        7.53519548       3.54921909       4.49523541        9       0.05838892      -0.10816705      -0.00000000
10
Lattice="8.084076961011354 1.064022561059277 0.7346926267960943 5.32543779765399 6.174476219511738 0.7346926267960863 5.325437797653998 2.8746882864956183 5.5136283059950015" Properties=species:S:1:pos:R:3:spacegroup_kinds:I:1:forces:R:3 spacegroup="P 1" unit_cell=conventional occupancy="_JSON {\"0\": {\"In\": 1}, \"1\": {\"In\": 1}, \"2\": {\"In\": 1}, \"3\": {\"In\": 1}, \"4\": {\"O\": 1}, \"5\": {\"O\": 1}, \"6\": {\"O\": 1}, \"7\": {\"O\": 1}, \"8\": {\"O\": 1}, \"9\": {\"O\": 1}}" n_minim_iter=2 energy=-11337.951965236594 stress="-0.18293637796024087 0.0051744468972819485 0.003572882870042065 0.0051744468972819485 -0.18972899786505565 0.0019286535554400013 0.003572882870042065 0.0019286535554400013 -0.19119047260885705" free_energy=-11337.951965236594 pbc="T T T"
In      16.12844880       8.70618804       6.01150050        0       0.84667478       0.45703774       0.31557814
In      11.97398005       6.46359257       4.46301984        1      -0.84667478      -0.45703774      -0.31557814
In       6.76097253       3.64959451       2.51999372        2       0.84667478       0.45703775       0.31557814
In       2.60650377       1.40699904       0.97151306        3      -0.84667478      -0.45703775      -0.31557814
O        8.72577663       3.31906153       1.73835859        4      -0.00000000       0.20249981      -0.29327144
O       11.17217633       6.54828333       2.48044602        5      -0.16929085       0.31361588       0.00000000
O       11.60481472       4.35566851       4.49517274        6       0.16929085      -0.11111607      -0.29327144
O        7.13013785       5.75751857       2.48784083        7      -0.16929085       0.11111607       0.29327144
O       10.00917594       6.79412555       5.24465498        8       0.00000000      -0.20249981       0.29327144
O        7.56277624       3.56490376       4.50256755        9       0.16929085      -0.31361588      -0.00000000
10
Lattice="8.06518374445974 1.0479522288844116 0.7235962882492084 5.301635799176101 6.167499538614966 0.7235962882492004 5.30163579917611 2.861839891899833 5.511035708495683" Properties=species:S:1:pos:R:3:spacegroup_kinds:I:1:forces:R:3 spacegroup="P 1" unit_cell=conventional occupancy="_JSON {\"0\": {\"In\": 1}, \"1\": {\"In\": 1}, \"2\": {\"In\": 1}, \"3\": {\"In\": 1}, \"4\": {\"O\": 1}, \"5\": {\"O\": 1}, \"6\": {\"O\": 1}, \"7\": {\"O\": 1}, \"8\": {\"O\": 1}, \"9\": {\"O\": 1}}" n_minim_iter=3 energy=-11338.005501153251 stress="-0.1717459546229781 0.001009706023037081 0.000697187820706872 0.001009706023037081 -0.1730714198094462 0.00037634420501587355 0.000697187820706872 0.00037634420501587355 -0.17335660194979252" free_energy=-11338.005501153251 pbc="T T T"
In      16.08701375       8.68382127       5.99605656        0       0.02535017       0.01368410       0.00944868
In      11.91566928       6.43211624       4.44128588        1      -0.02535017      -0.01368410      -0.00944868
In       6.75278608       3.64517544       2.51694242        2       0.02535017       0.01368410       0.00944868
In       2.58144161       1.39347041       0.96217173        3      -0.02535017      -0.01368410      -0.00944868
O        8.69970572       3.30526525       1.72196123        4       0.00000000       0.09541395      -0.13818377
O       11.13151855       6.53276161       2.46315336        5      -0.07976654       0.14776968       0.00000000
O       11.56952868       4.33047240       4.47747909        6       0.07976654      -0.05235572      -0.13818377
O        7.09892668       5.74681928       2.48074921        7      -0.07976654       0.05235572       0.13818377
O        9.96874964       6.77202642       5.23626706        8       0.00000000      -0.09541395       0.13818377
O        7.53693681       3.54453007       4.49507493        9       0.07976654      -0.14776968      -0.00000000
10
Lattice="8.064428518994271 1.047309078312555 0.7231522018168748 5.300683713380125 6.16722107712953 0.7231522018168667 5.300683713380133 2.861325952954448 5.510932653565322" Properties=species:S:1:pos:R:3:spacegroup_kinds:I:1:forces:R:3 spacegroup="P 1" unit_cell=conventional occupancy="_JSON {\"0\": {\"In\": 1}, \"1\": {\"In\": 1}, \"2\": {\"In\": 1}, \"3\": {\"In\": 1}, \"4\": {\"O\": 1}, \"5\": {\"O\": 1}, \"6\": {\"O\": 1}, \"7\": {\"O\": 1}, \"8\": {\"O\": 1}, \"9\": {\"O\": 1}}" n_minim_iter=4 energy=-11338.007588934108 stress="-0.17085891365057845 -2.6813052032315945e-05 -1.851403488090623e-05 -2.6813052032315945e-05 -0.1708237155205697 -9.993934789731604e-06 -1.851403488090623e-05 -9.993934789731604e-06 -0.1708161424183611" free_energy=-11338.007588934108 pbc="T T T"
In      16.08599178       8.68326961       5.99567564        0      -0.03063752      -0.01653823      -0.01141942
In      11.91270215       6.43051457       4.44017995        1       0.03063752       0.01653823       0.01141942
In       6.75309381       3.64534155       2.51705712        2      -0.03063752      -0.01653823      -0.01141942
In       2.57980418       1.39258652       0.96156142        3       0.03063752       0.01653823       0.01141942
O        8.69866325       3.30607411       1.71933446        4       0.00000000       0.05582933      -0.08085512
O       11.12875497       6.53424846       2.46246147        5      -0.04667359       0.08646410      -0.00000000
O       11.56925526       4.32871774       4.47480079        6       0.04667359      -0.03063477      -0.08085512
O        7.09654071       5.74713838       2.48243628        7      -0.04667359       0.03063477       0.08085512
O        9.96713271       6.76978201       5.23790260        8      -0.00000000      -0.05582933       0.08085512
O        7.53704100       3.54160766       4.49477559        9       0.04667359      -0.08646410       0.00000000
10
Lattice="8.066504298069406 1.049076671443158 0.7243727000353868 5.303300455375422 6.167986521820015 0.7243727000353787 5.30330045537543 2.8627384786187164 5.51121601327199" Properties=species:S:1:pos:R:3:spacegroup_kinds:I:1:forces:R:3 spacegroup="P 1" unit_cell=conventional occupancy="_JSON {\"0\": {\"In\": 1}, \"1\": {\"In\": 1}, \"2\": {\"In\": 1}, \"3\": {\"In\": 1}, \"4\": {\"O\": 1}, \"5\": {\"O\": 1}, \"6\": {\"O\": 1}, \"7\": {\"O\": 1}, \"8\": {\"O\": 1}, \"9\": {\"O\": 1}}" n_minim_iter=5 energy=-11338.008899657472 stress="-0.16991451397698212 -0.0004172337895783066 -0.0002880940687265073 -0.0004172337895783066 -0.16936680122339762 -0.00015551409783194403 -0.0002880940687265073 -0.00015551409783194403 -0.1692489573985041" free_energy=-11338.008899657472 pbc="T T T"
In      16.09235627       8.68670518       5.99804786        0      -0.03495377      -0.01886816      -0.01302820
In      11.91730156       6.43299735       4.44189427        1       0.03495377       0.01886816       0.01302820
In       6.75580366       3.64680434       2.51806715        2      -0.03495377      -0.01886816      -0.01302820
In       2.58074896       1.39309651       0.96191356        3       0.03495377       0.01886816       0.01302820
O        8.70152846       3.30995171       1.71771855        4      -0.00000000       0.01075212      -0.01557182
O       11.13125033       6.53961030       2.46436306        5      -0.00898883       0.01665205       0.00000000
O       11.57510704       4.33019268       4.47332656        6       0.00898883      -0.00589992      -0.01557182
O        7.09799818       5.74960901       2.48663486        7      -0.00898883       0.00589992       0.01557182
O        9.97157677       6.76984997       5.24224287        8       0.00000000      -0.01075212       0.01557182
O        7.54185489       3.54019139       4.49559836        9       0.00898883      -0.01665205       0.00000000
10
Lattice="8.068325157155122 1.050626824931404 0.7254430592363066 5.305595536578511 6.168658166010327 0.7254430592362985 5.305595536578517 2.8639773707627527 5.511464852563136" Properties=species:S:1:pos:R:3:spacegroup_kinds:I:1:forces:R:3 spacegroup="P 1" unit_cell=conventional occupancy="_JSON {\"0\": {\"In\": 1}, \"1\": {\"In\": 1}, \"2\": {\"In\": 1}, \"3\": {\"In\": 1}, \"4\": {\"O\": 1}, \"5\": {\"O\": 1}, \"6\": {\"O\": 1}, \"7\": {\"O\": 1}, \"8\": {\"O\": 1}, \"9\": {\"O\": 1}}" n_minim_iter=6 energy=-11338.009098006141 stress="-0.16969148769303546 -0.0001665947280594566 -0.00011503131993549624 -0.0001665947280594566 -0.169472794808028 -6.20942740292559e-05 -0.00011503131993549624 -6.20942740292559e-05 -0.1694257416703089" free_energy=-11338.009098006141 pbc="T T T"
In      16.09730389       8.68937592       5.99989197        0      -0.01084578      -0.00585458      -0.00404251
In      11.92197047       6.43551764       4.44363450        1       0.01084578       0.00585458       0.00404251
In       6.75754577       3.64774474       2.51871648        2      -0.01084578      -0.00585458      -0.00404251
In       2.58221236       1.39388646       0.96245901        3       0.01084578       0.00585458       0.00404251
O        8.70404164       3.31224386       1.71790701        4      -0.00000000      -0.00073428       0.00106343
O       11.13436607       6.54259597       2.46603081        5       0.00061387      -0.00113720       0.00000000
O       11.57931275       4.33209467       4.47363944        6      -0.00061387       0.00040292       0.00106343
O        7.10020349       5.75116771       2.48871154        7       0.00061387      -0.00040292      -0.00106343
O        9.97547460       6.77101852       5.24444397        8       0.00000000       0.00073428      -0.00106343
O        7.54515017       3.54066640       4.49632017        9      -0.00061387       0.00113720       0.00000000
10
Lattice="8.068838430989706 1.0510637288594473 0.7257447352592591 5.306242435006503 6.168847526765164 0.725744735259251 5.306242435006509 2.8643265685947736 5.511535043676599" Properties=species:S:1:pos:R:3:spacegroup_kinds:I:1:forces:R:3 spacegroup="P 1" unit_cell=conventional occupancy="_JSON {\"0\": {\"In\": 1}, \"1\": {\"In\": 1}, \"2\": {\"In\": 1}, \"3\": {\"In\": 1}, \"4\": {\"O\": 1}, \"5\": {\"O\": 1}, \"6\": {\"O\": 1}, \"7\": {\"O\": 1}, \"8\": {\"O\": 1}, \"9\": {\"O\": 1}}" n_minim_iter=7 energy=-11338.00911045115 stress="-0.16969466058578803 -1.675193330502994e-05 -1.156697700833759e-05 -1.675193330502994e-05 -0.16967266991987315 -6.243891616046349e-06 -1.156697700833759e-05 -6.243891616046349e-06 -0.16966793848804684" free_energy=-11338.00911045115 pbc="T T T"
In      16.09862422       8.69008864       6.00038409        0      -0.00094829      -0.00051189      -0.00035345
In      11.92336074       6.43626811       4.44415269        1       0.00094829       0.00051189       0.00035345
In       6.75796257       3.64796973       2.51887183        2      -0.00094829      -0.00051189      -0.00035345
In       2.58269909       1.39414920       0.96264043        3       0.00094829       0.00051189       0.00035345
O        8.70475005       3.31275273       1.71815881        4       0.00000000      -0.00048790       0.00070660
O       11.13535901       6.54322507       2.46650087        5       0.00040789      -0.00075562       0.00000000
O       11.58038353       4.33270604       4.47392633        6      -0.00040789       0.00026772       0.00070660
O        7.10093979       5.75153180       2.48909819        7       0.00040789      -0.00026772      -0.00070660
O        9.97657327       6.77148511       5.24486571        8      -0.00000000       0.00048790      -0.00070660
O        7.54596431       3.54101277       4.49652365        9      -0.00040789       0.00075562       0.00000000
