10
Lattice="9.808755140881585 1.8419439421187027 1.2718364090881313 6.922152544921602 7.189453320282018 1.2718364090881233 6.922152544921597 3.7365999931475935 6.272449871238969" Properties=species:S:1:pos:R:3:spacegroup_kinds:I:1:forces:R:3 spacegroup="P 1" unit_cell=conventional occupancy="_JSON {\"0\": {\"In\": 1}, \"1\": {\"In\": 1}, \"2\": {\"In\": 1}, \"3\": {\"In\": 1}, \"4\": {\"O\": 1}, \"5\": {\"O\": 1}, \"6\": {\"O\": 1}, \"7\": {\"O\": 1}, \"8\": {\"O\": 1}, \"9\": {\"O\": 1}}" n_minim_iter=1 energy=-11336.469641172664 stress="0.22231232565900577 0.010444060907166762 0.007211477297210808 0.010444060907166762 0.2086021577103832 0.003892778416150608 0.007211477297210808 0.003892778416150608 0.20565232916012585" free_energy=-11336.469641172664 pbc="T T T"
In      20.20460272      10.90650891       7.53079114        0       1.23221769       0.66515504       0.45928021
In      15.27498765       8.24548699       5.69339290        1      -1.23221769      -0.66515504      -0.45928021
In       8.37807260       4.52251028       3.12272980        2       1.23221769       0.66515504       0.45928021
In       3.44845753       1.86148836       1.28533156        3      -1.23221769      -0.66515504      -0.45928021
O       10.81764264       4.50722622       2.26896706        4      -0.00000000      -0.03887735       0.05630433
O       13.94911983       8.31828917       3.47586709        5       0.03250166      -0.06021020       0.00000000
O       14.60831799       5.76493500       5.40519200        6      -0.03250166       0.02133285       0.05630433
O        9.04474226       7.00306227       3.41093070        7       0.03250166      -0.02133285      -0.05630433
O       12.83541761       8.26077106       6.54715564        8      -0.00000000       0.03887735      -0.05630433
O        9.70394042       4.44970811       5.34025561        9      -0.03250166       0.06021020      -0.00000000
10
Lattice="9.78871165516207 1.8261130357017836 1.2609053906627044 6.897919529750028 7.181383630482286 1.2609053906626964 6.897919529750023 3.723518934367624 6.26877659497984" Properties=species:S:1:pos:R:3:spacegroup_kinds:I:1:forces:R:3 spacegroup="P 1" unit_cell=conventional occupancy="_JSON {\"0\": {\"In\": 1}, \"1\": {\"In\": 1}, \"2\": {\"In\": 1}, \"3\": {\"In\": 1}, \"4\": {\"O\": 1}, \"5\": {\"O\": 1}, \"6\": {\"O\": 1}, \"7\": {\"O\": 1}, \"8\": {\"O\": 1}, \"9\": {\"O\": 1}}" n_minim_iter=2 energy=-11336.483750420763 stress="0.2054620783002501 -0.0016655451504709506 -0.0011500355231662167 -0.0016655451504709506 0.20764847916094864 -0.0006207928382049763 -0.0011500355231662167 -0.0006207928382049763 0.20811889700524588" free_energy=-11336.483750420763 pbc="T T T"
In      20.14672202      10.87526472       7.50921747        0       0.95775451       0.51699894       0.35698050
In      15.23010408       8.22125870       5.67666360        1      -0.95775451      -0.51699894      -0.35698050
In       8.35444666       4.50975692       3.11392378        2       0.95775451       0.51699894       0.35698050
In       3.43782872       1.85575090       1.28136992        3      -0.95775451      -0.51699894      -0.35698050
O       10.79049352       4.49061726       2.25631842        4      -0.00000000      -0.09262310       0.13414191
O       13.90939280       8.29794821       3.45855224        5       0.07743338      -0.14344742      -0.00000000
O       14.56951376       5.74093076       5.39070671        6      -0.07743338       0.05082432       0.13414191
O        9.01503697       6.99008486       3.39988067        7       0.07743338      -0.05082432      -0.13414191
O       12.79405722       8.24039836       6.53426897        8      -0.00000000       0.09262310      -0.13414191
O        9.67515794       4.43306741       5.33203515        9      -0.07743338       0.14344742       0.00000000
10
Lattice="9.805756703384576 1.8395772707346683 1.2702022557538561 6.918528687687369 7.18824525587588 1.2702022557538482 6.918528687687364 3.7346438234693453 6.271899165401705" Properties=species:S:1:pos:R:3:spacegroup_kinds:I:1:forces:R:3 spacegroup="P 1" unit_cell=conventional occupancy="_JSON {\"0\": {\"In\": 1}, \"1\": {\"In\": 1}, \"2\": {\"In\": 1}, \"3\": {\"In\": 1}, \"4\": {\"O\": 1}, \"5\": {\"O\": 1}, \"6\": {\"O\": 1}, \"7\": {\"O\": 1}, \"8\": {\"O\": 1}, \"9\": {\"O\": 1}}" n_minim_iter=3 energy=-11336.520098240355 stress="0.19404150432614248 0.0008713464275035802 0.0006016524628884797 0.0008713464275035802 0.19289766708218842 0.0003247739159241668 0.0006016524628884797 0.0003247739159241668 0.1926515633311755" free_energy=-11336.520098240355 pbc="T T T"
In      20.21221066      10.91061570       7.53362682        0      -0.17962976      -0.09696472      -0.06695277
In      15.25201048       8.23308384       5.68482870        1       0.17962976       0.09696472       0.06695277
In       8.39080362       4.52938253       3.12747499        2      -0.17962976      -0.09696472      -0.06695277
In       3.43060344       1.85185067       1.27867686        3       0.17962976       0.09696472       0.06695277
O       10.81358188       4.50334390       2.26910151        4       0.00000000      -0.00444016       0.00643048
O       13.94434754       8.31308056       3.47327818        5       0.00371199      -0.00687657      -0.00000000
O       14.60134491       5.76211311       5.40505109        6      -0.00371199       0.00243641       0.00643048
O        9.04146919       7.00035325       3.40725259        7       0.00371199      -0.00243641      -0.00643048
O       12.82923222       8.25912247       6.54320218        8      -0.00000000       0.00444016      -0.00643048
O        9.69846656       4.44938581       5.33902551        9      -0.00371199       0.00687657      -0.00000000
10
Lattice="9.801958705244875 1.836578709228836 1.2681317911697811 6.913937830769267 7.1867154867001695 1.2681317911697731 6.913937830769263 3.7321656642815224 6.271202211770055" Properties=species:S:1:pos:R:3:spacegroup_kinds:I:1:forces:R:3 spacegroup="P 1" unit_cell=conventional occupancy="_JSON {\"0\": {\"In\": 1}, \"1\": {\"In\": 1}, \"2\": {\"In\": 1}, \"3\": {\"In\": 1}, \"4\": {\"O\": 1}, \"5\": {\"O\": 1}, \"6\": {\"O\": 1}, \"7\": {\"O\": 1}, \"8\": {\"O\": 1}, \"9\": {\"O\": 1}}" n_minim_iter=4 energy=-11336.52168747154 stress="0.19504581880535446 -6.243888429903462e-05 -4.3113172222975876e-05 -6.243888429903462e-05 0.19512778381975127 -2.327262679610645e-05 -4.3113172222975876e-05 -2.327262679610645e-05 0.19514541910649724" free_energy=-11336.52168747154 pbc="T T T"
In      20.19853339      10.90323267       7.52852894        0      -0.00966601      -0.00521774      -0.00360278
In      15.24621818       8.22995714       5.68266976        1       0.00966601       0.00521774       0.00360278
In       8.38361621       4.52550274       3.12479605        2      -0.00966601      -0.00521774      -0.00360278
In       3.43130099       1.85222721       1.27893686        3       0.00966601       0.00521774       0.00360278
O       10.80843795       4.50012482       2.26681072        4       0.00000000      -0.01201087       0.01739480
O       13.93688158       8.30911405       3.46999824        5       0.01004114      -0.01860149      -0.00000000
O       14.59393216       5.75760567       5.40241182        6      -0.01004114       0.00659062       0.01739480
O        9.03590223       6.99785421       3.40505398        7       0.01004114      -0.00659062      -0.01739480
O       12.82139643       8.25533506       6.54065509        8       0.00000000       0.01201087      -0.01739480
O        9.69295281       4.44634582       5.33746756        9      -0.01004114       0.01860149       0.00000000
10
Lattice="9.801652286844442 1.836336749707032 1.2679647215199832 6.91356741293245 7.186592087865155 1.2679647215199752 6.913567412932443 3.7319657115533014 6.271146011709166" Properties=species:S:1:pos:R:3:spacegroup_kinds:I:1:forces:R:3 spacegroup="P 1" unit_cell=conventional occupancy="_JSON {\"0\": {\"In\": 1}, \"1\": {\"In\": 1}, \"2\": {\"In\": 1}, \"3\": {\"In\": 1}, \"4\": {\"O\": 1}, \"5\": {\"O\": 1}, \"6\": {\"O\": 1}, \"7\": {\"O\": 1}, \"8\": {\"O\": 1}, \"9\": {\"O\": 1}}" n_minim_iter=5 energy=-11336.521730523073 stress="0.19532147283396747 3.3168829835245494e-05 2.2902611201578497e-05 3.3168829835245494e-05 0.19527793131967583 1.236290227791377e-05 2.2902611201578497e-05 1.236290227791377e-05 0.19526856308934384" free_energy=-11336.521730523073 pbc="T T T"
In      20.19736975      10.90260453       7.52809522        0       0.00911332       0.00491940       0.00339677
In      15.24581093       8.22973731       5.68251797        1      -0.00911332      -0.00491940      -0.00339677
In       8.38297620       4.52515726       3.12455750        2       0.00911332       0.00491940       0.00339677
In       3.43141738       1.85229003       1.27898024        3      -0.00911332      -0.00491940      -0.00339677
O       10.80802293       4.49954174       2.26709415        4      -0.00000000      -0.00208250       0.00301599
O       13.93654952       8.30829326       3.46973359        5       0.00174098      -0.00322521      -0.00000000
O       14.59306376       5.75741940       5.40266716        6      -0.00174098       0.00114271       0.00301599
O        9.03572337       6.99747517       3.40440830        7       0.00174098      -0.00114271      -0.00301599
O       12.82076420       8.25535283       6.53998131        8       0.00000000       0.00208250      -0.00301599
O        9.69223762       4.44660130       5.33734187        9      -0.00174098       0.00322521       0.00000000
10
Lattice="9.801644538293939 1.8363306310842533 1.267960496696933 6.913558045934368 7.1865889674602945 1.267960496696925 6.913558045934361 3.7319606552179008 6.271144590607961" Properties=species:S:1:pos:R:3:spacegroup_kinds:I:1:forces:R:3 spacegroup="P 1" unit_cell=conventional occupancy="_JSON {\"0\": {\"In\": 1}, \"1\": {\"In\": 1}, \"2\": {\"In\": 1}, \"3\": {\"In\": 1}, \"4\": {\"O\": 1}, \"5\": {\"O\": 1}, \"6\": {\"O\": 1}, \"7\": {\"O\": 1}, \"8\": {\"O\": 1}, \"9\": {\"O\": 1}}" n_minim_iter=6 energy=-11336.521734594166 stress="0.19519176627225404 7.387336767467293e-06 5.100852678007441e-06 7.387336767467293e-06 0.19518206873881175 2.7534567358003274e-06 5.100852678007441e-06 2.7534567358003274e-06 0.19517998225559224" free_energy=-11336.521734594166 pbc="T T T"
In      20.19743989      10.90264239       7.52812136        0       0.00155319       0.00083842       0.00057891
In      15.24570108       8.22967801       5.68247702        1      -0.00155319      -0.00083842      -0.00057891
In       8.38305957       4.52520226       3.12458857        2       0.00155319       0.00083842       0.00057891
In       3.43132077       1.85223788       1.27894423        3      -0.00155319      -0.00083842      -0.00057891
O       10.80801244       4.49948123       2.26716761        4       0.00000000      -0.00034772       0.00050359
O       13.93657938       8.30820163       3.46972690        5       0.00029070      -0.00053853       0.00000000
O       14.59300354       5.75743980       5.40273990        6      -0.00029070       0.00019080       0.00050359
O        9.03575711       6.99744047       3.40432569        7       0.00029070      -0.00019080      -0.00050359
O       12.82074821       8.25539904       6.53989799        8      -0.00000000       0.00034772      -0.00050359
O        9.69218127       4.44667865       5.33733870        9      -0.00029070       0.00053853      -0.00000000
