10
Lattice="8.360984541815721 1.350625417957232 0.9325878721487978 5.716984453764058 6.248707088953165 0.9325878721487914 5.716984453764074 3.0860464186724545 5.512928253171042" Properties=species:S:1:pos:R:3:spacegroup_kinds:I:1:forces:R:3 spacegroup="P 1" unit_cell=conventional occupancy="_JSON {\"0\": {\"In\": 1}, \"1\": {\"In\": 1}, \"2\": {\"In\": 1}, \"3\": {\"In\": 1}, \"4\": {\"O\": 1}, \"5\": {\"O\": 1}, \"6\": {\"O\": 1}, \"7\": {\"O\": 1}, \"8\": {\"O\": 1}, \"9\": {\"O\": 1}}" n_minim_iter=13 energy=-11338.10391666038 stress="-0.1501407489517511 -2.3658066092041954e-05 -1.6335562553780315e-05 -2.3658066092041954e-05 -0.15010969244245986 -8.817988624588868e-06 -1.6335562553780315e-05 -8.817988624588868e-06 -0.1501030104402518" free_energy=-11338.10391666038 pbc="T T T"
In      17.21805383       9.29436031       6.41762519        0       0.00068098       0.00036759       0.00025382
In      12.47437636       6.73370810       4.64953082        1      -0.00068098      -0.00036759      -0.00025382
In       7.32057711       3.95167084       2.72857319        2       0.00068098       0.00036759       0.00025382
In       2.57689963       1.39101863       0.96047882        3      -0.00068098      -0.00036759      -0.00025382
O        9.12923064       3.82312889       1.62076761        4       0.00000000      -0.00053418       0.00077363
O       11.58939037       7.20893272       2.77711388        5       0.00044658      -0.00082730      -0.00000000
O       12.38605537       4.62823037       4.37723174        6      -0.00044658       0.00029312       0.00077363
O        7.40889810       6.05714857       3.00087227        7       0.00044658      -0.00029312      -0.00077363
O       10.66572282       6.86225006       5.75733640        8       0.00000000       0.00053418      -0.00077363
O        8.20556309       3.47644622       4.60099013        9      -0.00044658       0.00082730       0.00000000
