10
Lattice="8.275662419602082 1.3368425642275832 0.9230710053247277 5.658643806939757 6.184940322341609 0.9230710053247198 5.658643806939774 3.0545539516819993 5.456669957772964" Properties=species:S:1:pos:R:3:spacegroup_kinds:I:1:forces:R:3 spacegroup="P 1" unit_cell=conventional occupancy="_JSON {\"0\": {\"In\": 1}, \"1\": {\"In\": 1}, \"2\": {\"In\": 1}, \"3\": {\"In\": 1}, \"4\": {\"O\": 1}, \"5\": {\"O\": 1}, \"6\": {\"O\": 1}, \"7\": {\"O\": 1}, \"8\": {\"O\": 1}, \"9\": {\"O\": 1}}" n_minim_iter=1 energy=-11336.924311049444 stress="-0.2051360520909413 0.013466922324201878 0.009298720628444137 0.013466922324201878 -0.22281440234945984 0.005019479013914406 0.009298720628444137 0.005019479013914406 -0.2266180101906125" free_energy=-11336.924311049444 pbc="T T T"
In      17.04234715       9.19951328       6.35213465        0       0.06877892       0.03712708       0.02563573
In      12.34707792       6.66499199       4.60208331        1      -0.06877892      -0.03712708      -0.02563573
In       7.24587213       3.91134486       2.70072866        2       0.06877892       0.03712708       0.02563573
In       2.55060291       1.37682358       0.95067733        3      -0.06877892      -0.03712708      -0.02563573
O        9.03606873       3.78411464       1.60422801        4      -0.00000000      -0.09390151       0.13599337
O       11.47112303       7.13536705       2.74877400        5       0.07850213      -0.14542732      -0.00000000
O       12.25965823       4.58100023       4.33256299        6      -0.07850213       0.05152581       0.13599337
O        7.33329182       5.99533662       2.97024899        7       0.07850213      -0.05152581      -0.13599337
O       10.55688132       6.79222221       5.69858397        8       0.00000000       0.09390151      -0.13599337
O        8.12182702       3.44096981       4.55403797        9      -0.07850213       0.14542732       0.00000000
10
Lattice="8.258512705661563 1.3228289608361994 0.9133948091017413 5.637517941949807 6.178292646305652 0.9133948091017333 5.637517941949825 3.043150142467394 5.453881857089407" Properties=species:S:1:pos:R:3:spacegroup_kinds:I:1:forces:R:3 spacegroup="P 1" unit_cell=conventional occupancy="_JSON {\"0\": {\"In\": 1}, \"1\": {\"In\": 1}, \"2\": {\"In\": 1}, \"3\": {\"In\": 1}, \"4\": {\"O\": 1}, \"5\": {\"O\": 1}, \"6\": {\"O\": 1}, \"7\": {\"O\": 1}, \"8\": {\"O\": 1}, \"9\": {\"O\": 1}}" n_minim_iter=2 energy=-11336.93584263321 stress="-0.2135275784534703 0.00034585874163365964 0.00023881060122960595 0.00034585874163365964 -0.21398159547679932 0.0001289107229372761 0.00023881060122960595 0.0001289107229372761 -0.2140792800849794" free_energy=-11336.93584263321 pbc="T T T"
In      16.99072119       9.17164542       6.33289228        0       0.13437366       0.07253533       0.05008463
In      12.30960171       6.64476222       4.58811494        1      -0.13437366      -0.07253533      -0.05008463
In       7.22394689       3.89950955       2.69255654        2       0.13437366       0.07253533       0.05008463
In       2.54282742       1.37262634       0.94777920        3      -0.13437366      -0.07253533      -0.05008463
O        9.01264351       3.76974964       1.59290173        4      -0.00000000      -0.13027804       0.18867587
O       11.43658473       7.11803930       2.73356268        5       0.10891309      -0.20176444      -0.00000000
O       12.22622023       4.55991416       4.31984266        6      -0.10891309       0.07148640       0.18867587
O        7.30732838       5.98435761       2.96082882        7       0.10891309      -0.07148640      -0.18867587
O       10.52090510       6.77452212       5.68776975        8      -0.00000000       0.13027804      -0.18867587
O        8.09696387       3.42623246       4.54710880        9      -0.10891309       0.20176444      -0.00000000
10
Lattice="8.254334579893394 1.3194110769206293 0.9110348082860501 5.632367945072658 6.176675179904052 0.911034808286042 5.632367945072675 3.040370157748626 5.453205479699345" Properties=species:S:1:pos:R:3:spacegroup_kinds:I:1:forces:R:3 spacegroup="P 1" unit_cell=conventional occupancy="_JSON {\"0\": {\"In\": 1}, \"1\": {\"In\": 1}, \"2\": {\"In\": 1}, \"3\": {\"In\": 1}, \"4\": {\"O\": 1}, \"5\": {\"O\": 1}, \"6\": {\"O\": 1}, \"7\": {\"O\": 1}, \"8\": {\"O\": 1}, \"9\": {\"O\": 1}}" n_minim_iter=3 energy=-11336.941744983966 stress="-0.2120934351636282 -0.00033570173478512304 -0.0002317973305801493 -0.00033570173478512304 -0.2116527514891454 -0.0001251249380974534 -0.0002317973305801493 -0.0001251249380974534 -0.21155793563425962" free_energy=-11336.941744983966 pbc="T T T"
In      16.98186006       9.16686216       6.32958951        0      -0.12875153      -0.06950049      -0.04798911
In      12.29674566       6.63782248       4.58332315        1       0.12875153       0.06950049       0.04798911
In       7.22232483       3.89863395       2.69195196        2      -0.12875153      -0.06950049      -0.04798911
In       2.53721042       1.36959427       0.94568560        3       0.12875153       0.06950049       0.04798911
O        9.00693492       3.76262177       1.59539098        4      -0.00000000      -0.04264361       0.06175883
O       11.43119798       7.10820133       2.72985359        5       0.03565027      -0.06604309      -0.00000000
O       12.21503980       4.55676276       4.32199372        6      -0.03565027       0.02339948       0.06175884
O        7.30403069       5.97969367       2.95328139        7       0.03565027      -0.02339948      -0.06175884
O       10.51213557       6.77383466       5.67988412        8       0.00000000       0.04264361      -0.06175884
O        8.08787251       3.42825510       4.54542152        9      -0.03565027       0.06604309       0.00000000
10
Lattice="8.25431699767145 1.3193966907612489 0.9110248748451516 5.632346270422416 6.176668375078782 0.9110248748451435 5.63234627042243 3.0403584577033826 5.453202635787182" Properties=species:S:1:pos:R:3:spacegroup_kinds:I:1:forces:R:3 spacegroup="P 1" unit_cell=conventional occupancy="_JSON {\"0\": {\"In\": 1}, \"1\": {\"In\": 1}, \"2\": {\"In\": 1}, \"3\": {\"In\": 1}, \"4\": {\"O\": 1}, \"5\": {\"O\": 1}, \"6\": {\"O\": 1}, \"7\": {\"O\": 1}, \"8\": {\"O\": 1}, \"9\": {\"O\": 1}}" n_minim_iter=4 energy=-11336.947713574009 stress="-0.21078878034213508 0.0008454343475944402 0.0005837605379685299 0.0008454343475944402 -0.21189860218270945 0.000315115797697485 0.0005837605379685299 0.000315115797697485 -0.21213738730684278" free_energy=-11336.947713574009 pbc="T T T"
In      16.97549015       9.16342366       6.32721527        0      -0.04415127      -0.02383299      -0.01645635
In      12.30302418       6.64121164       4.58566332        1       0.04415127       0.02383299       0.01645635
In       7.21598538       3.89521190       2.68958908        2      -0.04415127      -0.02383299      -0.01645635
In       2.54351941       1.37299988       0.94803712        3       0.04415127       0.02383299       0.01645635
O        9.00691089       3.75676270       1.60384343        4      -0.00000000      -0.00828096       0.01199294
O       11.43604844       7.09913232       2.72983797        5       0.00692292      -0.01282490       0.00000000
O       12.21011962       4.55994804       4.33044475        6      -0.00692292       0.00454394       0.01199294
O        7.30888994       5.97647550       2.94480764        7       0.00692292      -0.00454394      -0.01199294
O       10.51209866       6.77966083       5.67140896        8       0.00000000       0.00828096      -0.01199294
O        8.08296112       3.43729122       4.54541442        9      -0.00692292       0.01282490      -0.00000000
10
Lattice="8.252684930737495 1.3180611824819104 0.9101027251447937 5.630334228062092 6.176036781553343 0.9101027251447856 5.63033422806211 3.0392723508282447 5.45293873749802" Properties=species:S:1:pos:R:3:spacegroup_kinds:I:1:forces:R:3 spacegroup="P 1" unit_cell=conventional occupancy="_JSON {\"0\": {\"In\": 1}, \"1\": {\"In\": 1}, \"2\": {\"In\": 1}, \"3\": {\"In\": 1}, \"4\": {\"O\": 1}, \"5\": {\"O\": 1}, \"6\": {\"O\": 1}, \"7\": {\"O\": 1}, \"8\": {\"O\": 1}, \"9\": {\"O\": 1}}" n_minim_iter=5 energy=-11336.948244459987 stress="-0.2110895616353426 0.0001071952623291351 7.401682291096645e-05 0.0001071952623291351 -0.21123027941248398 3.995451494760649e-05 7.401682291096645e-05 3.995451494760649e-05 -0.21126055572490798" free_energy=-11336.948244459987 pbc="T T T"
In      16.96801607       9.15938913       6.32442948        0       0.00276057       0.00149016       0.00102894
In      12.30201402       6.64066636       4.58528681        1      -0.00276057      -0.00149016      -0.00102894
In       7.21133938       3.89270397       2.68785739        2       0.00276057       0.00149016       0.00102894
In       2.54533733       1.37398120       0.94871471        3      -0.00276057      -0.00149016      -0.00102894
O        9.00468082       3.75313455       1.60603726        4      -0.00000000       0.00116074      -0.00168105
O       11.43464913       7.09398278       2.72838878        5      -0.00097039       0.00179767       0.00000000
O       12.20504674       4.55917952       4.33250663        6       0.00097039      -0.00063692      -0.00168105
O        7.30830666       5.97419081       2.94063756        7      -0.00097039       0.00063692       0.00168105
O       10.50867258       6.78023578       5.66710693        8       0.00000000      -0.00116074       0.00168105
O        8.07870428       3.43938755       4.54475542        9       0.00097039      -0.00179767       0.00000000
