10
Lattice="9.739070685922226 1.8290870192713662 1.262958884527167 6.87316671057141 7.138251642954979 1.2629588845271684 6.873166710571408 3.7101572837288748 6.227715037808747" Properties=species:S:1:pos:R:3:spacegroup_kinds:I:1:forces:R:3 spacegroup="P 1" unit_cell=conventional occupancy="_JSON {\"0\": {\"In\": 1}, \"1\": {\"In\": 1}, \"2\": {\"In\": 1}, \"3\": {\"In\": 1}, \"4\": {\"O\": 1}, \"5\": {\"O\": 1}, \"6\": {\"O\": 1}, \"7\": {\"O\": 1}, \"8\": {\"O\": 1}, \"9\": {\"O\": 1}}" n_minim_iter=3 energy=-11338.510987556903 stress="0.1125050209175879 -0.00034530914686795516 -0.0002384311138561346 -0.00034530914686795516 0.11295831647376067 -0.0001287058738444634 -0.0002384311138561346 -0.0001287058738444634 0.11305584585440528" free_energy=-11338.510987556903 pbc="T T T"
In      20.04705781      10.82146566       7.47206998        0      -0.00122773      -0.00066274      -0.00045761
In      15.18104837       8.19477827       5.65837924        1       0.00122773       0.00066274       0.00045761
In       8.30435575       4.48271769       3.09525357        2      -0.00122774      -0.00066274      -0.00045761
In       3.43834632       1.85603030       1.28156284        3       0.00122773       0.00066274       0.00045761
O       10.74088638       4.47653423       2.25127836        4       0.00000000       0.00175919      -0.00254775
O       13.84924020       8.26109742       3.45136709        5      -0.00147069       0.00272449       0.00000000
O       14.50569927       5.72355877       5.36513588        6       0.00147069      -0.00096531      -0.00254775
O        8.97970485       6.95393719       3.38849694        7      -0.00147069       0.00096531       0.00254775
O       12.74451775       8.20096173       6.50235446        8      -0.00000000      -0.00175919       0.00254775
O        9.63616393       4.41639854       5.30226572        9       0.00147069      -0.00272449      -0.00000000
