10
Lattice="8.086831329680686 1.2980155565145493 0.8962615020949054 5.522568490705664 6.048381817075041 0.8962615020948994 5.5225684907056865 2.9811000625328905 5.338468853747071" Properties=species:S:1:pos:R:3:spacegroup_kinds:I:1:forces:R:3 spacegroup="P 1" unit_cell=conventional occupancy="_JSON {\"0\": {\"In\": 1}, \"1\": {\"In\": 1}, \"2\": {\"In\": 1}, \"3\": {\"In\": 1}, \"4\": {\"O\": 1}, \"5\": {\"O\": 1}, \"6\": {\"O\": 1}, \"7\": {\"O\": 1}, \"8\": {\"O\": 1}, \"9\": {\"O\": 1}}" n_minim_iter=6 energy=-11335.271427170594 stress="-0.3433621191250523 -2.4399283334605245e-06 -1.6847375606255436e-06 -2.4399283334605245e-06 -0.34335891617389735 -9.094255949744355e-07 -1.6847375606255436e-06 -9.094255949744355e-07 -0.3433582270392023" free_energy=-11335.271427170594 pbc="T T T"
In      16.64065637       8.98267932       6.20241384        0       0.00014936       0.00008063       0.00005567
In      12.05729612       6.50856685       4.49407395        1      -0.00014936      -0.00008063      -0.00005567
In       7.07467221       3.81893060       2.63691791        2       0.00014936       0.00008063       0.00005567
In       2.49131196       1.34481814       0.92857802        3      -0.00014936      -0.00008063      -0.00005567
O        8.82640775       3.68378703       1.57495678        4       0.00000000       0.00000241      -0.00000349
O       11.20906126       6.95649674       2.67900947        5      -0.00000201       0.00000373       0.00000000
O       11.96632274       4.47291337       4.24419120        6       0.00000201      -0.00000132      -0.00000349
O        7.16564559       5.85458408       2.88680066        7      -0.00000201       0.00000132       0.00000349
O       10.30556058       6.64371042       5.55603509        8      -0.00000000      -0.00000241       0.00000349
O        7.92290707       3.37100071       4.45198239        9       0.00000201      -0.00000373       0.00000000
