10
Lattice="8.376606344580619 1.1464474909451376 0.7916058826494766 5.55486271328492 6.373803882935178 0.7916058826494747 5.554862713284926 2.9985325867491652 5.679860749857172" Properties=species:S:1:pos:R:3:spacegroup_kinds:I:1:forces:R:3 spacegroup="P 1" unit_cell=conventional occupancy="_JSON {\"0\": {\"In\": 1}, \"1\": {\"In\": 1}, \"2\": {\"In\": 1}, \"3\": {\"In\": 1}, \"4\": {\"O\": 1}, \"5\": {\"O\": 1}, \"6\": {\"O\": 1}, \"7\": {\"O\": 1}, \"8\": {\"O\": 1}, \"9\": {\"O\": 1}}" n_minim_iter=10 energy=-11339.857942269915 stress="0.027759552606269437 -0.00011710233074565677 -8.085751307996143e-05 -0.00011710233074565677 0.027913275626109024 -4.3647141867919373e-05 -8.085751307996143e-05 -4.3647141867919373e-05 0.02794635010190342" free_energy=-11339.857942269915 pbc="T T T"
In      16.72157067       9.02635712       6.23257275        0       0.00074375       0.00040148       0.00027721
In      12.50792700       6.75181884       4.66203603        1      -0.00074375      -0.00040148      -0.00027721
In       6.97840479       3.76696514       2.60103649        2       0.00074375       0.00040148       0.00027721
In       2.76476112       1.49242686       1.03049977        3      -0.00074375      -0.00040148      -0.00027721
O        9.05988612       3.47413468       1.81878258        4       0.00000000       0.00062522      -0.00090548
O       11.61058044       6.80985818       2.60737402        5      -0.00052269       0.00096829       0.00000000
O       12.06405452       4.55336448       4.65871295        6       0.00052269      -0.00034307      -0.00090548
O        7.42227727       5.96541950       2.60435957        7      -0.00052269       0.00034307       0.00090548
O       10.42644566       7.04464930       5.44428994        8       0.00000000      -0.00062522       0.00090548
O        7.87575135       3.70892579       4.65569851        9       0.00052269      -0.00096829      -0.00000000
