10
Lattice="9.808755140881589 1.8419439421186934 1.271836409088122 6.922152544921605 7.189453320282008 1.2718364090881198 6.9221525449216035 3.7365999931475833 6.272449871238966" Properties=species:S:1:pos:R:3:spacegroup_kinds:I:1:forces:R:3 spacegroup="P 1" unit_cell=conventional occupancy="_JSON {\"0\": {\"In\": 1}, \"1\": {\"In\": 1}, \"2\": {\"In\": 1}, \"3\": {\"In\": 1}, \"4\": {\"O\": 1}, \"5\": {\"O\": 1}, \"6\": {\"O\": 1}, \"7\": {\"O\": 1}, \"8\": {\"O\": 1}, \"9\": {\"O\": 1}}" n_minim_iter=5 energy=-11337.648864842811 stress="0.1556297785454728 -4.4081334258951095e-06 -3.0437544771636823e-06 -4.4081334258951095e-06 0.15563556520756155 -1.643028614769233e-06 -3.0437544771636823e-06 -1.643028614769233e-06 0.15563681024497633" free_energy=-11337.648864842811 pbc="T T T"
In      20.20460272      10.90650891       7.53079114        0      -0.00039468      -0.00021305      -0.00014711
In      15.27498765       8.24548699       5.69339290        1       0.00039468       0.00021305       0.00014711
In       8.37807260       4.52251028       3.12272980        2      -0.00039468      -0.00021305      -0.00014711
In       3.44845753       1.86148836       1.28533156        3       0.00039468       0.00021305       0.00014711
O       10.81764264       4.50722622       2.26896706        4       0.00000000      -0.00272359       0.00394446
O       13.94911983       8.31828917       3.47586709        5       0.00227694      -0.00421809       0.00000000
O       14.60831799       5.76493500       5.40519200        6      -0.00227694       0.00149450       0.00394446
O        9.04474226       7.00306227       3.41093070        7       0.00227694      -0.00149450      -0.00394446
O       12.83541761       8.26077106       6.54715564        8       0.00000000       0.00272359      -0.00394446
O        9.70394042       4.44970811       5.34025561        9      -0.00227694       0.00421809       0.00000000
