10
Lattice="7.988943693927585 1.0406564737172153 0.7185586718260066 5.253701930228951 6.107765816511268 0.7185586718259986 5.253701930228957 2.835965036756559 5.456961805299189" Properties=species:S:1:pos:R:3:spacegroup_kinds:I:1:forces:R:3 spacegroup="P 1" unit_cell=conventional occupancy="_JSON {\"0\": {\"In\": 1}, \"1\": {\"In\": 1}, \"2\": {\"In\": 1}, \"3\": {\"In\": 1}, \"4\": {\"O\": 1}, \"5\": {\"O\": 1}, \"6\": {\"O\": 1}, \"7\": {\"O\": 1}, \"8\": {\"O\": 1}, \"9\": {\"O\": 1}}" n_minim_iter=7 energy=-11338.00911045115 stress="-0.16969466058578803 -1.675193330502994e-05 -1.156697700833759e-05 -1.675193330502994e-05 -0.16967266991987315 -6.243891616046349e-06 -1.156697700833759e-05 -6.243891616046349e-06 -0.16966793848804684" free_energy=-11338.00911045115 pbc="T T T"
In      15.93922143       8.60404250       5.94097044        0      -0.00094829      -0.00051189      -0.00035345
In      11.80529991       6.37253850       4.40014829        1       0.00094829       0.00051189       0.00035345
In       6.69104766       3.61184884       2.49393087        2      -0.00094829      -0.00051189      -0.00035345
In       2.55712614       1.38034484       0.95310871        3       0.00094829       0.00051189       0.00035345
O        8.61855874       3.27995105       1.70114622        4       0.00000000      -0.00048790       0.00070660
O       11.02510068       6.47843641       2.44207846        5       0.00040789      -0.00075562       0.00000000
O       11.46571873       4.28980514       4.42962712        6      -0.00040789       0.00026772       0.00070660
O        7.03062884       5.69458220       2.46445203        7       0.00040789      -0.00026772      -0.00070660
O        9.87778883       6.70443630       5.19293294        8      -0.00000000       0.00048790      -0.00070660
O        7.47124689       3.50595093       4.45200069        9      -0.00040789       0.00075562       0.00000000
