10
Lattice="8.685830233473817 1.351952269112671 0.9335040442267539 5.896343635480146 6.51955163450829 0.9335040442267502 5.89634363548015 3.1828650762824866 5.765878356485562" Properties=species:S:1:pos:R:3:spacegroup_kinds:I:1:forces:R:3 spacegroup="P 1" unit_cell=conventional occupancy="_JSON {\"0\": {\"In\": 1}, \"1\": {\"In\": 1}, \"2\": {\"In\": 1}, \"3\": {\"In\": 1}, \"4\": {\"O\": 1}, \"5\": {\"O\": 1}, \"6\": {\"O\": 1}, \"7\": {\"O\": 1}, \"8\": {\"O\": 1}, \"9\": {\"O\": 1}}" n_minim_iter=5 energy=-11340.130149940565 stress="-0.06853054422715463 0.00014136594461442936 9.761119878860507e-05 0.00014136594461442936 -0.06871611868033752 5.2690836857672466e-05 9.761119878860507e-05 5.2690836857672466e-05 -0.06875604618809189" free_energy=-11340.130149940565 pbc="T T T"
In      17.41307186       9.39963166       6.49031358        0       0.00385140       0.00207900       0.00143552
In      13.30470441       7.18192182       4.95901610        1      -0.00385140      -0.00207900      -0.00143552
In       7.17381311       3.87244717       2.67387035        2       0.00385140       0.00207900       0.00143552
In       3.06544566       1.65473733       1.14257288        3      -0.00385140      -0.00207900      -0.00143552
O        9.46254450       3.74101289       1.93840501        4      -0.00000000       0.00077236      -0.00111857
O       12.15870721       7.16619789       2.84172566        5      -0.00064569       0.00119616      -0.00000000
O       12.66272543       4.86559174       4.82134419        6       0.00064569      -0.00042381      -0.00111857
O        7.81579210       6.18877725       2.81154226        7      -0.00064569       0.00042381       0.00111857
O       11.01597302       7.31335611       5.69448144        8      -0.00000000      -0.00077236       0.00111857
O        8.31981031       3.88817110       4.79116079        9       0.00064569      -0.00119616      -0.00000000
