40
Lattice="8.615694496212216 6.752740653085786e-10 4.958120811152987e-15 -2.8718981660407272 8.122954670312607 -1.1696207338127514e-09 -2.871898165085747 -4.06147733448102 7.03468509905991" Properties=species:S:1:pos:R:3:spacegroup_kinds:I:1:forces:R:3 spacegroup="P 1" unit_cell=conventional occupancy="_JSON {\"0\": {\"In\": 1}, \"1\": {\"In\": 1}, \"2\": {\"In\": 1}, \"3\": {\"In\": 1}, \"4\": {\"In\": 1}, \"5\": {\"In\": 1}, \"6\": {\"In\": 1}, \"7\": {\"In\": 1}, \"8\": {\"In\": 1}, \"9\": {\"In\": 1}, \"10\": {\"In\": 1}, \"11\": {\"In\": 1}, \"12\": {\"In\": 1}, \"13\": {\"In\": 1}, \"14\": {\"In\": 1}, \"15\": {\"In\": 1}, \"16\": {\"O\": 1}, \"17\": {\"O\": 1}, \"18\": {\"O\": 1}, \"19\": {\"O\": 1}, \"20\": {\"O\": 1}, \"21\": {\"O\": 1}, \"22\": {\"O\": 1}, \"23\": {\"O\": 1}, \"24\": {\"O\": 1}, \"25\": {\"O\": 1}, \"26\": {\"O\": 1}, \"27\": {\"O\": 1}, \"28\": {\"O\": 1}, \"29\": {\"O\": 1}, \"30\": {\"O\": 1}, \"31\": {\"O\": 1}, \"32\": {\"O\": 1}, \"33\": {\"O\": 1}, \"34\": {\"O\": 1}, \"35\": {\"O\": 1}, \"36\": {\"O\": 1}, \"37\": {\"O\": 1}, \"38\": {\"O\": 1}, \"39\": {\"O\": 1}}" n_minim_iter=1 energy=-45148.278334981755 stress="-0.05181472814408517 -6.559200725984286e-13 -3.160891678825779e-12 -6.559200725984286e-13 -0.05181472813976073 4.254982829813606e-12 -3.160891678825779e-12 4.254982829813606e-12 -0.051814728142801685" free_energy=-45148.278334981755 pbc="T T T"
In      -4.11489646       2.90967119       5.51232932        0      -0.07461472       0.05276058      -0.09138400
In       6.98679462       1.15180615       1.52235578        1       0.07461472      -0.05276058       0.09138400
In       1.24299829      -0.87893252       5.03969833        2       0.07461472      -0.05276058       0.09138400
In      -1.43594908      -2.03073867       3.51734255        3       0.00000000       0.00000000      -0.00000000
In      -1.24299829       3.92504052       3.28102705        4      -0.07461472       0.05276058       0.09138400
In       4.50079804      -2.77323437       5.27601382        5      -0.07461472      -0.10552115       0.00000000
In      -1.24299829       1.28824296       5.27601382        6      -0.07461472      -0.10552115       0.00000000
In      -1.62889988       6.83471171       1.75867127        7       0.07461472       0.10552115      -0.00000000
In       4.11489645       0.13643682       3.75365804        8       0.07461472      -0.05276058      -0.09138400
In      -1.43594908       4.06147734      -0.00000000        9       0.00000000      -0.00000000       0.00000000
In       4.11489645       6.22865282       0.23631549       10       0.07461472      -0.05276058      -0.09138400
In      -1.24299829      -2.16717548       6.79836960       11      -0.07461472       0.05276058       0.09138400
In       4.11489645       2.77323437       1.75867127       12       0.07461472       0.10552115      -0.00000000
In       1.62889987       4.94040986       1.99498677       13      -0.07461472       0.05276058      -0.09138400
In       4.30784725       0.00000000      -0.00000000       14       0.00000000      -0.00000000      -0.00000000
In       1.43594908       2.03073867       3.51734255       15      -0.00000000       0.00000000      -0.00000000
O        0.86845813       4.06710718       3.82525950       16       0.09809277      -0.02324802      -0.11981476
O       -2.00344004       3.30995698       5.11717976       17       0.09809277      -0.09213862       0.08004076
O       -0.41374628       2.18587374       0.02946394       18      -0.07608998       0.03102718      -0.13328866
O       -0.86845813      -0.74589051       1.90775416       19      -0.09809277      -0.11538664      -0.03977400
O        3.78847071       4.82437887       1.87829022       20      -0.11956671       0.03843239       0.09351466
O        1.95532562       2.81628106       1.59983721       21       0.11956671      -0.06176987       0.08004076
O        1.95532562       6.06957515       0.27845300       22       0.11956671       0.10020227       0.01347390
O       -2.19877696       5.75367515       3.54680649       23      -0.05461603       0.06139592      -0.13328866
O        3.28564444       1.87560359       7.00522115       24       0.07608998      -0.03102718       0.13328866
O        5.07067512      -1.69219781       3.48787860       25       0.05461603      -0.06139592       0.13328866
O        6.15754261       3.14919207       1.63905233       26       0.07608998      -0.09991778      -0.09351466
O        3.54501937       2.22552562       3.79579555       27      -0.05461603      -0.14612933       0.01347390
O        0.67312121       4.20523124       6.72676815       28      -0.05461603       0.08473341       0.11981476
O        2.19877695      -0.14375390       0.30791695       29       0.05461603      -0.08473341      -0.11981476
O       -3.28564444       0.91228527       5.39563277       30      -0.07608998       0.09991778       0.09351466
O        4.87533820       0.75152036       1.91750533       31      -0.09809276       0.09213862      -0.08004076
O        0.91657255       1.24519628       5.43484788       32      -0.11956671       0.06176987      -0.08004076
O        3.28564444      -0.96331832       5.42509671       33       0.07608998       0.13094496      -0.03977400
O        2.00344003      -0.00562984       3.20942560       34      -0.09809277       0.02324802       0.11981476
O        0.91657255      -2.00809781       6.75623209       35      -0.11956671      -0.10020227      -0.01347390
O       -0.67312121       1.83595172       3.23888954       36       0.05461603       0.14612933      -0.01347390
O       -0.91657255      -0.76290153       5.15639488       37       0.11956671      -0.03843239      -0.09351466
O       -0.41374628       5.02479566       1.60958838       38      -0.07608998      -0.13094496       0.03977400
O        3.74035629       4.80736785       5.12693093       39       0.09809276       0.11538664       0.03977400
40
Lattice="8.615694496212216 6.752740653085787e-10 4.95812081115298e-15 -2.8718981660407277 8.122954670312607 -1.1696207338127512e-09 -2.8718981650857476 -4.06147733448102 7.034685099059911" Properties=species:S:1:pos:R:3:spacegroup_kinds:I:1:forces:R:3 spacegroup="P 1" unit_cell=conventional occupancy="_JSON {\"0\": {\"In\": 1}, \"1\": {\"In\": 1}, \"2\": {\"In\": 1}, \"3\": {\"In\": 1}, \"4\": {\"In\": 1}, \"5\": {\"In\": 1}, \"6\": {\"In\": 1}, \"7\": {\"In\": 1}, \"8\": {\"In\": 1}, \"9\": {\"In\": 1}, \"10\": {\"In\": 1}, \"11\": {\"In\": 1}, \"12\": {\"In\": 1}, \"13\": {\"In\": 1}, \"14\": {\"In\": 1}, \"15\": {\"In\": 1}, \"16\": {\"O\": 1}, \"17\": {\"O\": 1}, \"18\": {\"O\": 1}, \"19\": {\"O\": 1}, \"20\": {\"O\": 1}, \"21\": {\"O\": 1}, \"22\": {\"O\": 1}, \"23\": {\"O\": 1}, \"24\": {\"O\": 1}, \"25\": {\"O\": 1}, \"26\": {\"O\": 1}, \"27\": {\"O\": 1}, \"28\": {\"O\": 1}, \"29\": {\"O\": 1}, \"30\": {\"O\": 1}, \"31\": {\"O\": 1}, \"32\": {\"O\": 1}, \"33\": {\"O\": 1}, \"34\": {\"O\": 1}, \"35\": {\"O\": 1}, \"36\": {\"O\": 1}, \"37\": {\"O\": 1}, \"38\": {\"O\": 1}, \"39\": {\"O\": 1}}" n_minim_iter=2 energy=-45148.30047468397 stress="-0.049281405129488504 5.971487241252054e-13 -2.239885917042264e-12 5.971487241252054e-13 -0.0492814051306502 -2.836914783860171e-13 -2.239885917042264e-12 -2.836914783860171e-13 -0.04928140512646327" free_energy=-45148.30047468397 pbc="T T T"
In      -4.11911538       2.91265442       5.50716221        0       0.04136233      -0.02924758       0.05065830
In       6.99101355       1.14882292       1.52752289        1      -0.04136233       0.02924758      -0.05065830
In       1.24721721      -0.88191575       5.04486544        2      -0.04136233       0.02924758      -0.05065830
In      -1.43594908      -2.03073867       3.51734255        3      -0.00000000      -0.00000000       0.00000000
In      -1.24721722       3.92802375       3.28619416        4       0.04136233      -0.02924758      -0.05065830
In       4.49657911      -2.77920083       5.27601382        5       0.04136233       0.05849516       0.00000000
In      -1.24721722       1.28227650       5.27601382        6       0.04136233       0.05849516       0.00000000
In      -1.62468095       6.84067817       1.75867127        7      -0.04136233      -0.05849516       0.00000000
In       4.11911538       0.13345359       3.74849093        8      -0.04136233       0.02924758       0.05065830
In      -1.43594908       4.06147734      -0.00000000        9      -0.00000000       0.00000000      -0.00000000
In       4.11911538       6.22566959       0.23114838       10      -0.04136233       0.02924758       0.05065830
In      -1.24721722      -2.16419225       6.80353671       11       0.04136233      -0.02924758      -0.05065830
In       4.11911538       2.77920084       1.75867127       12      -0.04136233      -0.05849516      -0.00000000
In       1.62468095       4.94339309       1.98981966       13       0.04136233      -0.02924758       0.05065830
In       4.30784725       0.00000000      -0.00000000       14       0.00000000       0.00000000       0.00000000
In       1.43594908       2.03073867       3.51734255       15       0.00000000      -0.00000000       0.00000000
O        0.87400457       4.06579267       3.81848483       16       0.06221102      -0.02029934       0.02060350
O       -1.99789360       3.30474721       5.12170549       17       0.06221102       0.02799283       0.00727800
O       -0.41804862       2.18762811       0.02192742       18       0.02799049       0.05219039      -0.03463342
O       -0.87400457      -0.75241480       1.90550523       19      -0.06221102       0.00769348       0.02788150
O        3.78171007       4.82655194       1.88357780       20       0.00565488      -0.02768910       0.06251492
O        1.96208625       2.81278841       1.60436294       21      -0.00565488      -0.06798405       0.00727800
O        1.96208625       6.07524087       0.27921485       22      -0.00565488       0.04029496       0.05523692
O       -2.20186510       5.75714665       3.53926997       23      -0.03987541      -0.04378649      -0.03463342
O        3.28994678       1.87384923       7.01275767       24      -0.02799049      -0.05219039       0.03463342
O        5.07376326      -1.69566931       3.49541512       25       0.03987541       0.04378649       0.03463342
O        6.16184495       3.14354243       1.63376475       26      -0.02799049      -0.00389823      -0.06251492
O        3.54193123       2.21726306       3.79655740       27      -0.03987541      -0.00810018       0.05523692
O        0.67003306       4.21002230       6.73354281       28      -0.03987541       0.05188666      -0.02060350
O        2.20186510      -0.14854497       0.30114228       29       0.03987541      -0.05188666       0.02060350
O       -3.28994678       0.91793491       5.40092035       30       0.02799049       0.00389822       0.06251492
O        4.86979176       0.75673013       1.91297960       31      -0.06221102      -0.02799283      -0.00727800
O        0.90981191       1.24868893       5.43032215       32       0.00565488       0.06798405      -0.00727800
O        3.28994678      -0.95591432       5.42284778       33      -0.02799049       0.05608862       0.02788150
O        1.99789359      -0.00431533       3.21620026       34      -0.06221102       0.02029934      -0.02060350
O        0.90981191      -2.01376353       6.75547024       35       0.00565488      -0.04029496      -0.05523692
O       -0.67003307       1.84421428       3.23812769       36       0.03987541       0.00810018      -0.05523692
O       -0.90981191      -0.76507460       5.15110729       37      -0.00565488       0.02768910      -0.06251492
O       -0.41804862       5.01739166       1.61183732       38       0.02799049      -0.05608862      -0.02788150
O        3.74590273       4.81389214       5.12917987       39       0.06221102      -0.00769348      -0.02788150
40
Lattice="8.615694496212216 6.752740653085787e-10 4.958120811152974e-15 -2.8718981660407277 8.122954670312607 -1.1696207338127512e-09 -2.8718981650857476 -4.06147733448102 7.034685099059912" Properties=species:S:1:pos:R:3:spacegroup_kinds:I:1:forces:R:3 spacegroup="P 1" unit_cell=conventional occupancy="_JSON {\"0\": {\"In\": 1}, \"1\": {\"In\": 1}, \"2\": {\"In\": 1}, \"3\": {\"In\": 1}, \"4\": {\"In\": 1}, \"5\": {\"In\": 1}, \"6\": {\"In\": 1}, \"7\": {\"In\": 1}, \"8\": {\"In\": 1}, \"9\": {\"In\": 1}, \"10\": {\"In\": 1}, \"11\": {\"In\": 1}, \"12\": {\"In\": 1}, \"13\": {\"In\": 1}, \"14\": {\"In\": 1}, \"15\": {\"In\": 1}, \"16\": {\"O\": 1}, \"17\": {\"O\": 1}, \"18\": {\"O\": 1}, \"19\": {\"O\": 1}, \"20\": {\"O\": 1}, \"21\": {\"O\": 1}, \"22\": {\"O\": 1}, \"23\": {\"O\": 1}, \"24\": {\"O\": 1}, \"25\": {\"O\": 1}, \"26\": {\"O\": 1}, \"27\": {\"O\": 1}, \"28\": {\"O\": 1}, \"29\": {\"O\": 1}, \"30\": {\"O\": 1}, \"31\": {\"O\": 1}, \"32\": {\"O\": 1}, \"33\": {\"O\": 1}, \"34\": {\"O\": 1}, \"35\": {\"O\": 1}, \"36\": {\"O\": 1}, \"37\": {\"O\": 1}, \"38\": {\"O\": 1}, \"39\": {\"O\": 1}}" n_minim_iter=3 energy=-45148.30536999973 stress="-0.0491685017242251 3.2872694265981736e-12 -6.446185320291502e-13 3.2872694265981736e-12 -0.04916850172310373 7.3781243686785e-13 -6.446185320291502e-13 7.3781243686785e-13 -0.04916850172833258" free_energy=-45148.30536999973 pbc="T T T"
In      -4.11748581       2.91150214       5.50915802        0      -0.01312969       0.00928409      -0.01608052
In       6.98938397       1.14997520       1.52552708        1       0.01312969      -0.00928409       0.01608052
In       1.24558764      -0.88076347       5.04286962        2       0.01312969      -0.00928409       0.01608052
In      -1.43594908      -2.03073867       3.51734255        3       0.00000000       0.00000000       0.00000000
In      -1.24558764       3.92687147       3.28419835        4      -0.01312969       0.00928409       0.01608052
In       4.49820869      -2.77689627       5.27601382        5      -0.01312969      -0.01856819       0.00000000
In      -1.24558764       1.28458107       5.27601382        6      -0.01312969      -0.01856819      -0.00000000
In      -1.62631052       6.83837361       1.75867127        7       0.01312969       0.01856819      -0.00000000
In       4.11748581       0.13460587       3.75048674        8       0.01312969      -0.00928409      -0.01608052
In      -1.43594908       4.06147734      -0.00000000        9      -0.00000000       0.00000000       0.00000000
In       4.11748581       6.22682187       0.23314419       10       0.01312969      -0.00928409      -0.01608052
In      -1.24558764      -2.16534453       6.80154090       11      -0.01312969       0.00928409       0.01608052
In       4.11748581       2.77689627       1.75867127       12       0.01312969       0.01856819       0.00000000
In       1.62631052       4.94224081       1.99181547       13      -0.01312969       0.00928409      -0.01608052
In       4.30784725       0.00000000      -0.00000000       14      -0.00000000       0.00000000       0.00000000
In       1.43594908       2.03073867       3.51734255       15       0.00000000      -0.00000000      -0.00000000
O        0.87849466       4.06441249       3.81849525       16       0.01396240       0.02242723       0.00900638
O       -1.99340350       3.30544632       5.12289556       17       0.01396240      -0.00341386      -0.02392574
O       -0.41719404       2.19089792       0.01866491       18       0.02258011      -0.00950750      -0.01337124
O       -0.87849467      -0.75309587       1.90670571       19      -0.01396240       0.01901337      -0.01491936
O        3.78087250       4.82534940       1.88804079       20      -0.00787275      -0.02673326      -0.00154811
O        1.96292382       2.80832207       1.60555301       21       0.00787275      -0.01202592      -0.02392574
O        1.96292382       6.07850466       0.28248779       22       0.00787275      -0.01470734       0.02237762
O       -2.20466305       5.75525101       3.53600746       23       0.01649046      -0.01811956      -0.01337124
O        3.28909220       1.87057942       7.01602018       24      -0.02258011       0.00950750       0.01337124
O        5.07656121      -1.69377367       3.49867763       25      -0.01649046       0.01811956       0.01337124
O        6.16099037       3.14235192       1.62930175       26      -0.02258011      -0.01633358       0.00154811
O        3.53913328       2.21538545       3.79983034       27       0.01649046      -0.00252005       0.02237762
O        0.66723512       4.21379555       6.73353239       28       0.01649046       0.02063962      -0.00900638
O        2.20466304      -0.15231821       0.30115270       29      -0.01649046      -0.02063962       0.00900638
O       -3.28909221       0.91912542       5.40538334       30       0.02258011       0.01633358      -0.00154811
O        4.86530166       0.75603102       1.91178954       31      -0.01396240       0.00341386       0.02392574
O        0.90897434       1.25315527       5.42913209       32      -0.00787275       0.01202592       0.02392574
O        3.28909220      -0.95145399       5.42404826       33      -0.02258011       0.00682609      -0.01491936
O        1.99340350      -0.00293515       3.21618985       34      -0.01396240      -0.02242723      -0.00900638
O        0.90897434      -2.01702732       6.75219731       35      -0.00787275       0.01470734      -0.02237762
O       -0.66723512       1.84609188       3.23485476       36      -0.01649046       0.00252005      -0.02237762
O       -0.90897434      -0.76387206       5.14664430       37       0.00787275       0.02673326       0.00154811
O       -0.41719404       5.01293133       1.61063684       38       0.02258011      -0.00682609       0.01491936
O        3.75039283       4.81457321       5.12797939       39       0.01396240      -0.01901337       0.01491936
40
Lattice="8.615694496212214 6.752740653085786e-10 4.958120811152972e-15 -2.8718981660407272 8.122954670312605 -1.169620733812751e-09 -2.871898165085747 -4.061477334481019 7.034685099059911" Properties=species:S:1:pos:R:3:spacegroup_kinds:I:1:forces:R:3 spacegroup="P 1" unit_cell=conventional occupancy="_JSON {\"0\": {\"In\": 1}, \"1\": {\"In\": 1}, \"2\": {\"In\": 1}, \"3\": {\"In\": 1}, \"4\": {\"In\": 1}, \"5\": {\"In\": 1}, \"6\": {\"In\": 1}, \"7\": {\"In\": 1}, \"8\": {\"In\": 1}, \"9\": {\"In\": 1}, \"10\": {\"In\": 1}, \"11\": {\"In\": 1}, \"12\": {\"In\": 1}, \"13\": {\"In\": 1}, \"14\": {\"In\": 1}, \"15\": {\"In\": 1}, \"16\": {\"O\": 1}, \"17\": {\"O\": 1}, \"18\": {\"O\": 1}, \"19\": {\"O\": 1}, \"20\": {\"O\": 1}, \"21\": {\"O\": 1}, \"22\": {\"O\": 1}, \"23\": {\"O\": 1}, \"24\": {\"O\": 1}, \"25\": {\"O\": 1}, \"26\": {\"O\": 1}, \"27\": {\"O\": 1}, \"28\": {\"O\": 1}, \"29\": {\"O\": 1}, \"30\": {\"O\": 1}, \"31\": {\"O\": 1}, \"32\": {\"O\": 1}, \"33\": {\"O\": 1}, \"34\": {\"O\": 1}, \"35\": {\"O\": 1}, \"36\": {\"O\": 1}, \"37\": {\"O\": 1}, \"38\": {\"O\": 1}, \"39\": {\"O\": 1}}" n_minim_iter=4 energy=-45148.305654763404 stress="-0.04913733793232968 -2.829209751786571e-13 2.20141431473724e-12 -2.829209751786571e-13 -0.04913733792951337 -4.0600535309195084e-13 2.20141431473724e-12 -4.0600535309195084e-13 -0.0491373379339252" free_energy=-45148.305654763404 pbc="T T T"
In      -4.11770490       2.91165706       5.50888969        0      -0.00283536       0.00200491      -0.00347260
In       6.98960306       1.14982028       1.52579540        1       0.00283536      -0.00200491       0.00347260
In       1.24580673      -0.88091838       5.04313795        2       0.00283536      -0.00200491       0.00347260
In      -1.43594908      -2.03073867       3.51734255        3      -0.00000000      -0.00000000      -0.00000000
In      -1.24580673       3.92702639       3.28446667        4      -0.00283536       0.00200491       0.00347260
In       4.49798960      -2.77720610       5.27601382        5      -0.00283536      -0.00400981      -0.00000000
In      -1.24580673       1.28427123       5.27601382        6      -0.00283536      -0.00400981       0.00000000
In      -1.62609144       6.83868344       1.75867127        7       0.00283536       0.00400981       0.00000000
In       4.11770489       0.13445095       3.75021842        8       0.00283536      -0.00200491      -0.00347260
In      -1.43594908       4.06147734      -0.00000000        9      -0.00000000       0.00000000      -0.00000000
In       4.11770489       6.22666695       0.23287587       10       0.00283536      -0.00200491      -0.00347260
In      -1.24580673      -2.16518961       6.80180922       11      -0.00283536       0.00200491       0.00347260
In       4.11770489       2.77720611       1.75867127       12       0.00283536       0.00400981      -0.00000000
In       1.62609143       4.94239572       1.99154714       13      -0.00283536       0.00200491      -0.00347260
In       4.30784725       0.00000000      -0.00000000       14      -0.00000000       0.00000000       0.00000000
In       1.43594908       2.03073867       3.51734255       15       0.00000000       0.00000000      -0.00000000
O        0.87906466       4.06462915       3.81844371       16       0.00605117       0.01344864       0.00457129
O       -1.99283351       3.30529336       5.12273369       17       0.00605117      -0.00276546      -0.01393251
O       -0.41694399       2.19097119       0.01811120       18       0.01208925      -0.00703503      -0.00653740
O       -0.87906466      -0.75303217       1.90649231       19      -0.00605117       0.01068318      -0.00936122
O        3.78053829       4.82496602       1.88838110       20      -0.00462436      -0.01445755      -0.00282382
O        1.96325803       2.80783567       1.60539114       21       0.00462436      -0.00478327      -0.01393251
O        1.96325803       6.07860769       0.28298996       22       0.00462436      -0.00967427       0.01110869
O       -2.20464878       5.75499083       3.53545375       23       0.01066244      -0.00905284      -0.00653740
O        3.28884215       1.87050615       7.01657389       24      -0.01208925       0.00703503       0.00653740
O        5.07654694      -1.69351350       3.49923134       25      -0.01066244       0.00905284       0.00653740
O        6.16074031       3.14190903       1.62896144       26      -0.01208925      -0.00917907       0.00282382
O        3.53914755       2.21503602       3.80033251       27       0.01066244      -0.00113513       0.01110869
O        0.66724939       4.21440516       6.73358393       28       0.01066244       0.01018797      -0.00457129
O        2.20464877      -0.15292782       0.30110116       29      -0.01066244      -0.01018797       0.00457129
O       -3.28884215       0.91956831       5.40572365       30       0.01208925       0.00917907      -0.00282382
O        4.86473167       0.75618398       1.91195140       31      -0.00605117       0.00276546       0.01393251
O        0.90864013       1.25364167       5.42929395       32      -0.00462436       0.00478327       0.01393251
O        3.28884215      -0.95093783       5.42383486       33      -0.01208925       0.00214403      -0.00936122
O        1.99283351      -0.00315181       3.21624138       34      -0.00605117      -0.01344864      -0.00457129
O        0.90864013      -2.01713035       6.75169513       35      -0.00462436       0.00967427      -0.01110869
O       -0.66724939       1.84644132       3.23435258       36      -0.01066244       0.00113513      -0.01110869
O       -0.90864013      -0.76348868       5.14630399       37       0.00462436       0.01445755       0.00282382
O       -0.41694399       5.01241517       1.61085024       38       0.01208925      -0.00214403       0.00936122
O        3.75096282       4.81450951       5.12819279       39       0.00605117      -0.01068318       0.00936122
40
Lattice="8.615694496212218 6.752740653085789e-10 4.958120811152972e-15 -2.8718981660407286 8.122954670312609 -1.1696207338127512e-09 -2.8718981650857485 -4.061477334481021 7.034685099059915" Properties=species:S:1:pos:R:3:spacegroup_kinds:I:1:forces:R:3 spacegroup="P 1" unit_cell=conventional occupancy="_JSON {\"0\": {\"In\": 1}, \"1\": {\"In\": 1}, \"2\": {\"In\": 1}, \"3\": {\"In\": 1}, \"4\": {\"In\": 1}, \"5\": {\"In\": 1}, \"6\": {\"In\": 1}, \"7\": {\"In\": 1}, \"8\": {\"In\": 1}, \"9\": {\"In\": 1}, \"10\": {\"In\": 1}, \"11\": {\"In\": 1}, \"12\": {\"In\": 1}, \"13\": {\"In\": 1}, \"14\": {\"In\": 1}, \"15\": {\"In\": 1}, \"16\": {\"O\": 1}, \"17\": {\"O\": 1}, \"18\": {\"O\": 1}, \"19\": {\"O\": 1}, \"20\": {\"O\": 1}, \"21\": {\"O\": 1}, \"22\": {\"O\": 1}, \"23\": {\"O\": 1}, \"24\": {\"O\": 1}, \"25\": {\"O\": 1}, \"26\": {\"O\": 1}, \"27\": {\"O\": 1}, \"28\": {\"O\": 1}, \"29\": {\"O\": 1}, \"30\": {\"O\": 1}, \"31\": {\"O\": 1}, \"32\": {\"O\": 1}, \"33\": {\"O\": 1}, \"34\": {\"O\": 1}, \"35\": {\"O\": 1}, \"36\": {\"O\": 1}, \"37\": {\"O\": 1}, \"38\": {\"O\": 1}, \"39\": {\"O\": 1}}" n_minim_iter=5 energy=-45148.30574790955 stress="-0.049171410484702104 1.0502594084081725e-12 2.2885210356432265e-12 1.0502594084081725e-12 -0.04917141048962208 1.303896497858368e-12 2.2885210356432265e-12 1.303896497858368e-12 -0.04917141048686405" free_energy=-45148.30574790955 pbc="T T T"
In      -4.11775401       2.91169179       5.50882954        0       0.00209696      -0.00148277       0.00256824
In       6.98965217       1.14978555       1.52585555        1      -0.00209696       0.00148277      -0.00256824
In       1.24585584      -0.88095311       5.04319810        2      -0.00209696       0.00148277      -0.00256824
In      -1.43594908      -2.03073867       3.51734255        3      -0.00000000       0.00000000       0.00000000
In      -1.24585585       3.92706112       3.28452683        4       0.00209696      -0.00148277      -0.00256824
In       4.49794049      -2.77727556       5.27601382        5       0.00209696       0.00296555       0.00000000
In      -1.24585585       1.28420177       5.27601382        6       0.00209696       0.00296555      -0.00000000
In      -1.62604232       6.83875290       1.75867127        7      -0.00209696      -0.00296555       0.00000000
In       4.11775401       0.13441622       3.75015827        8      -0.00209696       0.00148277       0.00256824
In      -1.43594908       4.06147734      -0.00000000        9       0.00000000      -0.00000000      -0.00000000
In       4.11775401       6.22663222       0.23281572       10      -0.00209696       0.00148277       0.00256824
In      -1.24585585      -2.16515488       6.80186938       11       0.00209696      -0.00148277      -0.00256824
In       4.11775401       2.77727557       1.75867127       12      -0.00209696      -0.00296555       0.00000000
In       1.62604232       4.94243045       1.99148699       13       0.00209696      -0.00148277       0.00256824
In       4.30784725       0.00000000      -0.00000000       14      -0.00000000      -0.00000000       0.00000000
In       1.43594908       2.03073867       3.51734255       15      -0.00000000      -0.00000000       0.00000000
O        0.87946005       4.06493723       3.81853536       16      -0.00013230       0.00310348      -0.00164268
O       -1.99243811       3.30521869       5.12242106       17      -0.00013230      -0.00297434      -0.00186636
O       -0.41659213       2.19092730       0.01774525       18       0.00007766      -0.00312281      -0.00160921
O       -0.87946006      -0.75279876       1.90627133       19       0.00013230       0.00012914      -0.00350903
O        3.78033610       4.82452132       1.88852607       20      -0.00276013      -0.00105822      -0.00189982
O        1.96346023       2.80748777       1.60507851       21       0.00276013       0.00111619      -0.00186636
O        1.96346023       6.07851089       0.28344756       22       0.00276013      -0.00217441      -0.00003347
O       -2.20449011       5.75467373       3.53508780       23       0.00297010       0.00096772      -0.00160921
O        3.28849029       1.87055003       7.01693984       24      -0.00007766       0.00312281       0.00160921
O        5.07638828      -1.69319639       3.49959730       25      -0.00297010      -0.00096772       0.00160921
O        6.16038845       3.14157016       1.62881647       26      -0.00007766      -0.00295502       0.00189982
O        3.53930622       2.21487765       3.80079011       27       0.00297010      -0.00187748      -0.00003347
O        0.66740805       4.21488064       6.73349228       28       0.00297009       0.00090976       0.00164268
O        2.20449011      -0.15340330       0.30119281       29      -0.00297009      -0.00090976      -0.00164268
O       -3.28849029       0.91990718       5.40586862       30       0.00007766       0.00295502      -0.00189982
O        4.86433627       0.75625865       1.91226403       31       0.00013230       0.00297434       0.00186636
O        0.90843793       1.25398957       5.42960658       32      -0.00276013      -0.00111619       0.00186636
O        3.28849029      -0.95064285       5.42361388       33      -0.00007766      -0.00016779      -0.00350903
O        1.99243811      -0.00345989       3.21614973       34       0.00013230      -0.00310348       0.00164268
O        0.90843793      -2.01703355       6.75123753       35      -0.00276013       0.00217441       0.00003347
O       -0.66740805       1.84659969       3.23389498       36      -0.00297010       0.00187748       0.00003347
O       -0.90843793      -0.76304398       5.14615902       37       0.00276013       0.00105822       0.00189982
O       -0.41659213       5.01212019       1.61107122       38       0.00007766       0.00016779       0.00350903
O        3.75135822       4.81427610       5.12841377       39      -0.00013230      -0.00012914       0.00350903
