40
Lattice="9.211711957785594 7.219863657151839e-10 4.850870882844808e-15 -3.0705706532758947 8.684885322009203 -1.2505336044038417e-09 -3.0705706522548546 -4.342442660282601 7.52133131864825" Properties=species:S:1:pos:R:3:spacegroup_kinds:I:1:forces:R:3 spacegroup="P 1" unit_cell=conventional occupancy="_JSON {\"0\": {\"In\": 1}, \"1\": {\"In\": 1}, \"2\": {\"In\": 1}, \"3\": {\"In\": 1}, \"4\": {\"In\": 1}, \"5\": {\"In\": 1}, \"6\": {\"In\": 1}, \"7\": {\"In\": 1}, \"8\": {\"In\": 1}, \"9\": {\"In\": 1}, \"10\": {\"In\": 1}, \"11\": {\"In\": 1}, \"12\": {\"In\": 1}, \"13\": {\"In\": 1}, \"14\": {\"In\": 1}, \"15\": {\"In\": 1}, \"16\": {\"O\": 1}, \"17\": {\"O\": 1}, \"18\": {\"O\": 1}, \"19\": {\"O\": 1}, \"20\": {\"O\": 1}, \"21\": {\"O\": 1}, \"22\": {\"O\": 1}, \"23\": {\"O\": 1}, \"24\": {\"O\": 1}, \"25\": {\"O\": 1}, \"26\": {\"O\": 1}, \"27\": {\"O\": 1}, \"28\": {\"O\": 1}, \"29\": {\"O\": 1}, \"30\": {\"O\": 1}, \"31\": {\"O\": 1}, \"32\": {\"O\": 1}, \"33\": {\"O\": 1}, \"34\": {\"O\": 1}, \"35\": {\"O\": 1}, \"36\": {\"O\": 1}, \"37\": {\"O\": 1}, \"38\": {\"O\": 1}, \"39\": {\"O\": 1}}" n_minim_iter=1 energy=-45148.80076228201 stress="0.030819841444591243 -2.8338555063003464e-12 1.520232938516571e-12 -2.8338555063003464e-12 0.030819841444340624 1.6078848907542273e-12 1.520232938516571e-12 1.6078848907542273e-12 0.030819841443340688" free_energy=-45148.80076228201 pbc="T T T"
In      -4.39627987       3.10863931       5.89767575        0       0.06511727      -0.04604487       0.07975205
In       7.46685052       1.23380335       1.62365557        1      -0.06511727       0.04604487      -0.07975205
In       1.32570922      -0.93741798       5.38432122        2      -0.06511727       0.04604487      -0.07975205
In      -1.53528533      -2.17122133       3.76066566        3      -0.00000000       0.00000000       0.00000000
In      -1.32570922       4.19424998       3.50398839        4       0.06511727      -0.04604487      -0.07975205
In       4.81543208      -2.96044662       5.64099849        5       0.06511727       0.09208973      -0.00000000
In      -1.32570922       1.38199604       5.64099849        6       0.06511727       0.09208973      -0.00000000
In      -1.74486144       7.30288929       1.88033283        7      -0.06511727      -0.09208973       0.00000000
In       4.39627987       0.14819269       4.01734292        8      -0.06511727       0.04604487       0.07975205
In      -1.53528533       4.34244266      -0.00000000        9      -0.00000000       0.00000000      -0.00000000
In       4.39627987       6.66185668       0.25667726       10      -0.06511727       0.04604487       0.07975205
In      -1.32570922      -2.31941401       7.26465405       11       0.06511727      -0.04604487      -0.07975205
In       4.39627987       2.96044663       1.88033283       12      -0.06511727      -0.09208973       0.00000000
In       1.74486143       5.27986064       2.13701009       13       0.06511727      -0.04604487       0.07975205
In       4.60585598       0.00000000      -0.00000000       14       0.00000000       0.00000000      -0.00000000
In       1.53528532       2.17122133       3.76066566       15       0.00000000      -0.00000000      -0.00000000
O        0.90588267       4.34217953       4.08715307       16       0.02544094       0.00495618      -0.02665892
O       -2.16468798       3.53970996       5.47798266       17       0.02544094      -0.02556539       0.00903728
O       -0.45511084       2.33085637       0.05044717       18      -0.01095024       0.00016706      -0.03553262
O       -0.90588267      -0.80299583       2.04380442       19      -0.02544094      -0.02060921      -0.01762163
O        4.05883321       5.17456419       1.99335724       20      -0.03258359       0.00009444       0.01791099
O        2.08230809       3.03220541       1.71731700       21       0.03258359      -0.01546415       0.00903728
O        2.08230809       6.48480144       0.27604024       22       0.03258359       0.01555859       0.00887370
O       -2.34925608       6.16579449       3.81111283       23      -0.00380758       0.01026830      -0.03553262
O        3.52568149       2.01158629       7.47088414       24       0.01095024      -0.00016706       0.03553262
O        5.41982673      -1.82335182       3.71021848       25       0.00380758      -0.01026830       0.03553262
O        6.59625215       3.38033805       1.76730841       26       0.01095024      -0.03068862      -0.01791099
O        3.79188523       2.38884462       4.03670590       27      -0.00380758      -0.03590630       0.00887370
O        0.72131457       4.47268888       7.19484390       28      -0.00380758       0.02563800       0.02665892
O        2.34925607      -0.13024622       0.32648741       29       0.00380758      -0.02563800      -0.02665892
O       -3.52568150       0.96210461       5.75402290       30      -0.01095024       0.03068862       0.01791099
O        5.23525863       0.80273270       2.04334866       31      -0.02544094       0.02556539      -0.00903728
O        0.98826256       1.31023725       5.80401431       32      -0.03258359       0.01546415      -0.00903728
O        3.52568149      -1.04948168       5.80447007       33       0.01095024       0.03085568      -0.01762163
O        2.16468798       0.00026314       3.43417824       34      -0.02544094      -0.00495618       0.02665892
O        0.98826256      -2.14235877       7.24529107       35      -0.03258359      -0.01555859      -0.00887370
O       -0.72131458       1.95359804       3.48462541       36       0.00380758       0.03590630      -0.00887370
O       -0.98826256      -0.83212152       5.52797407       37       0.03258359      -0.00009444      -0.01791099
O       -0.45511084       5.39192434       1.71686124       38      -0.01095024      -0.03085568       0.01762163
O        3.97645332       5.14543850       5.47752690       39       0.02544094       0.02060921       0.01762163
40
Lattice="9.211711957785594 7.21986365715184e-10 4.850870882844815e-15 -3.070570653275895 8.684885322009203 -1.250533604403842e-09 -3.070570652254855 -4.342442660282601 7.521331318648252" Properties=species:S:1:pos:R:3:spacegroup_kinds:I:1:forces:R:3 spacegroup="P 1" unit_cell=conventional occupancy="_JSON {\"0\": {\"In\": 1}, \"1\": {\"In\": 1}, \"2\": {\"In\": 1}, \"3\": {\"In\": 1}, \"4\": {\"In\": 1}, \"5\": {\"In\": 1}, \"6\": {\"In\": 1}, \"7\": {\"In\": 1}, \"8\": {\"In\": 1}, \"9\": {\"In\": 1}, \"10\": {\"In\": 1}, \"11\": {\"In\": 1}, \"12\": {\"In\": 1}, \"13\": {\"In\": 1}, \"14\": {\"In\": 1}, \"15\": {\"In\": 1}, \"16\": {\"O\": 1}, \"17\": {\"O\": 1}, \"18\": {\"O\": 1}, \"19\": {\"O\": 1}, \"20\": {\"O\": 1}, \"21\": {\"O\": 1}, \"22\": {\"O\": 1}, \"23\": {\"O\": 1}, \"24\": {\"O\": 1}, \"25\": {\"O\": 1}, \"26\": {\"O\": 1}, \"27\": {\"O\": 1}, \"28\": {\"O\": 1}, \"29\": {\"O\": 1}, \"30\": {\"O\": 1}, \"31\": {\"O\": 1}, \"32\": {\"O\": 1}, \"33\": {\"O\": 1}, \"34\": {\"O\": 1}, \"35\": {\"O\": 1}, \"36\": {\"O\": 1}, \"37\": {\"O\": 1}, \"38\": {\"O\": 1}, \"39\": {\"O\": 1}}" n_minim_iter=2 energy=-45148.80927578809 stress="0.029894799054791678 7.723759867561104e-13 -1.296802886169501e-12 7.723759867561104e-13 0.02989479905426179 -2.2220783684876368e-13 -1.296802886169501e-12 -2.2220783684876368e-13 0.02989479905430205" free_energy=-45148.80927578809 pbc="T T T"
In      -4.39162864       3.10535039       5.90337232        0       0.01834137      -0.01296930       0.02246349
In       7.46219929       1.23709227       1.61795899        1      -0.01834136       0.01296930      -0.02246349
In       1.32105798      -0.93412906       5.37862465        2      -0.01834137       0.01296930      -0.02246349
In      -1.53528533      -2.17122133       3.76066566        3       0.00000000       0.00000000       0.00000000
In      -1.32105799       4.19096106       3.49829182        4       0.01834137      -0.01296930      -0.02246349
In       4.82008332      -2.95386878       5.64099849        5       0.01834137       0.02593861       0.00000000
In      -1.32105799       1.38857388       5.64099849        6       0.01834137       0.02593861       0.00000000
In      -1.74951267       7.29631145       1.88033283        7      -0.01834137      -0.02593861      -0.00000000
In       4.39162864       0.15148161       4.02303949        8      -0.01834137       0.01296930       0.02246349
In      -1.53528533       4.34244266      -0.00000000        9       0.00000000      -0.00000000      -0.00000000
In       4.39162864       6.66514560       0.26237383       10      -0.01834137       0.01296930       0.02246349
In      -1.32105799      -2.32270293       7.25895748       11       0.01834137      -0.01296930      -0.02246349
In       4.39162864       2.95386879       1.88033283       12      -0.01834137      -0.02593861      -0.00000000
In       1.74951266       5.27657172       2.14270666       13       0.01834137      -0.01296930       0.02246349
In       4.60585598       0.00000000      -0.00000000       14      -0.00000000       0.00000000      -0.00000000
In       1.53528532       2.17122133       3.76066566       15       0.00000000       0.00000000      -0.00000000
O        0.90769988       4.34253354       4.08524886       16       0.02265975       0.01418460       0.01230407
O       -2.16287077       3.53788386       5.47862818       17       0.02265975       0.00356334      -0.01843626
O       -0.45589300       2.33086831       0.04790913       18       0.02428617       0.00241329      -0.01644431
O       -0.90769988      -0.80446792       2.04254573       19      -0.02265975       0.01774794      -0.00613219
O        4.05650581       5.17457093       1.99463660       20      -0.00419370      -0.02724207       0.01031213
O        2.08463549       3.03110083       1.71796252       21       0.00419370      -0.02255160      -0.01843626
O        2.08463549       6.48591276       0.27667408       22       0.00419370      -0.00469047       0.02874839
O       -2.34952805       6.16652794       3.80857479       23       0.00582012      -0.02370165      -0.01644431
O        3.52646365       2.01157436       7.47342218       24      -0.02428617      -0.00241329       0.01644431
O        5.42009870      -1.82408527       3.71275653       25      -0.00582012       0.02370165       0.01644431
O        6.59703431       3.37814601       1.76602906       26      -0.02428617      -0.01303455      -0.01031213
O        3.79161326       2.38627989       4.03733973       27       0.00582012      -0.00239037       0.02874839
O        0.72104260       4.47452017       7.19674811       28       0.00582012       0.02609202      -0.01230407
O        2.34952804      -0.13207750       0.32458321       29      -0.00582012      -0.02609202       0.01230407
O       -3.52646366       0.96429666       5.75530226       30       0.02428617       0.01303455       0.01031213
O        5.23344142       0.80455880       2.04270314       31      -0.02265975      -0.00356334       0.01843626
O        0.98593516       1.31134183       5.80336879       32      -0.00419370       0.02255160       0.01843626
O        3.52646365      -1.04727770       5.80321139       33      -0.02428617       0.01544784      -0.00613219
O        2.16287077      -0.00009088       3.43608245       34      -0.02265975      -0.01418460      -0.01230407
O        0.98593516      -2.14347010       7.24465724       35      -0.00419370       0.00469047      -0.02874839
O       -0.72104261       1.95616278       3.48399158       36      -0.00582012       0.00239037      -0.02874839
O       -0.98593516      -0.83212827       5.52669472       37       0.00419370       0.02724207      -0.01031213
O       -0.45589300       5.38972037       1.71811993       38       0.02428617      -0.01544784       0.00613219
O        3.97827053       5.14691058       5.47878558       39       0.02265975      -0.01774794       0.00613219
40
Lattice="9.211711957785594 7.219863657151843e-10 4.850870882844815e-15 -3.0705706532758965 8.684885322009203 -1.250533604403842e-09 -3.0705706522548564 -4.342442660282601 7.5213313186482535" Properties=species:S:1:pos:R:3:spacegroup_kinds:I:1:forces:R:3 spacegroup="P 1" unit_cell=conventional occupancy="_JSON {\"0\": {\"In\": 1}, \"1\": {\"In\": 1}, \"2\": {\"In\": 1}, \"3\": {\"In\": 1}, \"4\": {\"In\": 1}, \"5\": {\"In\": 1}, \"6\": {\"In\": 1}, \"7\": {\"In\": 1}, \"8\": {\"In\": 1}, \"9\": {\"In\": 1}, \"10\": {\"In\": 1}, \"11\": {\"In\": 1}, \"12\": {\"In\": 1}, \"13\": {\"In\": 1}, \"14\": {\"In\": 1}, \"15\": {\"In\": 1}, \"16\": {\"O\": 1}, \"17\": {\"O\": 1}, \"18\": {\"O\": 1}, \"19\": {\"O\": 1}, \"20\": {\"O\": 1}, \"21\": {\"O\": 1}, \"22\": {\"O\": 1}, \"23\": {\"O\": 1}, \"24\": {\"O\": 1}, \"25\": {\"O\": 1}, \"26\": {\"O\": 1}, \"27\": {\"O\": 1}, \"28\": {\"O\": 1}, \"29\": {\"O\": 1}, \"30\": {\"O\": 1}, \"31\": {\"O\": 1}, \"32\": {\"O\": 1}, \"33\": {\"O\": 1}, \"34\": {\"O\": 1}, \"35\": {\"O\": 1}, \"36\": {\"O\": 1}, \"37\": {\"O\": 1}, \"38\": {\"O\": 1}, \"39\": {\"O\": 1}}" n_minim_iter=3 energy=-45148.81030890935 stress="0.029691652395100757 1.1297188271947792e-13 2.464242723760965e-12 1.1297188271947792e-13 0.0296916523948245 -3.09683862381112e-13 2.464242723760965e-12 -3.09683862381112e-13 0.02969165239673397" free_energy=-45148.81030890935 pbc="T T T"
In      -4.38969376       3.10398223       5.90574205        0      -0.00342171       0.00241951      -0.00419072
In       7.46026441       1.23846044       1.61558926        1       0.00342171      -0.00241951       0.00419072
In       1.31912311      -0.93276089       5.37625492        2       0.00342171      -0.00241951       0.00419072
In      -1.53528533      -2.17122133       3.76066566        3      -0.00000000       0.00000000       0.00000000
In      -1.31912311       4.18959289       3.49592209        4      -0.00342171       0.00241951       0.00419072
In       4.82201820      -2.95113245       5.64099849        5      -0.00342171      -0.00483902      -0.00000000
In      -1.31912311       1.39131021       5.64099849        6      -0.00342171      -0.00483902       0.00000000
In      -1.75144755       7.29357512       1.88033283        7       0.00342171       0.00483902       0.00000000
In       4.38969376       0.15284977       4.02540922        8       0.00342171      -0.00241951      -0.00419072
In      -1.53528533       4.34244266      -0.00000000        9       0.00000000       0.00000000       0.00000000
In       4.38969376       6.66651376       0.26474356       10       0.00342171      -0.00241951      -0.00419072
In      -1.31912311      -2.32407110       7.25658775       11      -0.00342171       0.00241951       0.00419072
In       4.38969376       2.95113246       1.88033283       12       0.00342171       0.00483902      -0.00000000
In       1.75144754       5.27520356       2.14507639       13      -0.00342171       0.00241951      -0.00419072
In       4.60585598       0.00000000      -0.00000000       14      -0.00000000      -0.00000000      -0.00000000
In       1.53528532       2.17122133       3.76066566       15      -0.00000000       0.00000000      -0.00000000
O        0.90876009       4.34293195       4.08484581       16       0.01977358       0.01247203       0.01999375
O       -2.16181056       3.53733561       5.47848467       17       0.01977358       0.01107908      -0.02079797
O       -0.45568088       2.33091974       0.04672693       18       0.02879539       0.00469970      -0.00974855
O       -0.90876010      -0.80461777       2.04199917       19      -0.01977358       0.02355111      -0.00080422
O        4.05563551       5.17403824       1.99527224       20       0.00385427      -0.02917943       0.00894433
O        2.08550579       3.03028401       1.71781901       21      -0.00385427      -0.02233573      -0.02079797
O        2.08550579       6.48619690       0.27745322       22      -0.00385427      -0.00684370       0.02974229
O       -2.34950583       6.16631080       3.80739259       23       0.00516755      -0.02871512      -0.00974855
O        3.52625153       2.01152293       7.47460438       24      -0.02879539      -0.00469970       0.00974855
O        5.42007648      -1.82386813       3.71393872       25      -0.00516755       0.02871512       0.00974855
O        6.59682218       3.37714791       1.76539342       26      -0.02879539      -0.00609264      -0.00894433
O        3.79163548       2.38536464       4.03811888       27       0.00516755       0.00591507       0.02974229
O        0.72106482       4.47565255       7.19715116       28       0.00516755       0.02280005      -0.01999375
O        2.34950583      -0.13320988       0.32418016       29      -0.00516755      -0.02280005       0.01999375
O       -3.52625153       0.96529475       5.75593790       30       0.02879539       0.00609264       0.00894433
O        5.23238121       0.80510706       2.04284664       31      -0.01977358      -0.01107908       0.02079797
O        0.98506486       1.31215866       5.80351230       32       0.00385426       0.02233573       0.02079797
O        3.52625153      -1.04622817       5.80266483       33      -0.02879539       0.01079234      -0.00080422
O        2.16181056      -0.00048929       3.43648550       34      -0.01977358      -0.01247203      -0.01999375
O        0.98506486      -2.14375423       7.24387809       35       0.00385427       0.00684370      -0.02974229
O       -0.72106483       1.95707802       3.48321243       36      -0.00516755      -0.00591507      -0.02974230
O       -0.98506486      -0.83159557       5.52605908       37      -0.00385427       0.02917943      -0.00894433
O       -0.45568088       5.38867084       1.71866648       38       0.02879539      -0.01079234       0.00080422
O        3.97933074       5.14706043       5.47933214       39       0.01977358      -0.02355111       0.00080422
40
Lattice="9.211711957785594 7.219863657151843e-10 4.850870882844815e-15 -3.0705706532758965 8.684885322009203 -1.250533604403842e-09 -3.0705706522548564 -4.342442660282601 7.5213313186482535" Properties=species:S:1:pos:R:3:spacegroup_kinds:I:1:forces:R:3 spacegroup="P 1" unit_cell=conventional occupancy="_JSON {\"0\": {\"In\": 1}, \"1\": {\"In\": 1}, \"2\": {\"In\": 1}, \"3\": {\"In\": 1}, \"4\": {\"In\": 1}, \"5\": {\"In\": 1}, \"6\": {\"In\": 1}, \"7\": {\"In\": 1}, \"8\": {\"In\": 1}, \"9\": {\"In\": 1}, \"10\": {\"In\": 1}, \"11\": {\"In\": 1}, \"12\": {\"In\": 1}, \"13\": {\"In\": 1}, \"14\": {\"In\": 1}, \"15\": {\"In\": 1}, \"16\": {\"O\": 1}, \"17\": {\"O\": 1}, \"18\": {\"O\": 1}, \"19\": {\"O\": 1}, \"20\": {\"O\": 1}, \"21\": {\"O\": 1}, \"22\": {\"O\": 1}, \"23\": {\"O\": 1}, \"24\": {\"O\": 1}, \"25\": {\"O\": 1}, \"26\": {\"O\": 1}, \"27\": {\"O\": 1}, \"28\": {\"O\": 1}, \"29\": {\"O\": 1}, \"30\": {\"O\": 1}, \"31\": {\"O\": 1}, \"32\": {\"O\": 1}, \"33\": {\"O\": 1}, \"34\": {\"O\": 1}, \"35\": {\"O\": 1}, \"36\": {\"O\": 1}, \"37\": {\"O\": 1}, \"38\": {\"O\": 1}, \"39\": {\"O\": 1}}" n_minim_iter=4 energy=-45148.81117390676 stress="0.029645385275810072 2.2505172386739127e-12 -1.2916776716754883e-12 2.2505172386739127e-12 0.02964538527577362 -9.40551584680595e-13 -1.2916776716754883e-12 -9.40551584680595e-13 0.029645385271748124" free_energy=-45148.81117390676 pbc="T T T"
In      -4.38862037       3.10322322       5.90705669        0      -0.01177859       0.00832872      -0.01442577
In       7.45919102       1.23921944       1.61427462        1       0.01177859      -0.00832872       0.01442577
In       1.31804971      -0.93200189       5.37494028        2       0.01177859      -0.00832872       0.01442577
In      -1.53528533      -2.17122133       3.76066566        3       0.00000000      -0.00000000       0.00000000
In      -1.31804972       4.18883389       3.49460745        4      -0.01177859       0.00832872       0.01442577
In       4.82309159      -2.94961444       5.64099849        5      -0.01177859      -0.01665745      -0.00000000
In      -1.31804972       1.39282822       5.64099849        6      -0.01177859      -0.01665745       0.00000000
In      -1.75252094       7.29205711       1.88033283        7       0.01177859       0.01665745      -0.00000000
In       4.38862036       0.15360878       4.02672386        8       0.01177859      -0.00832872      -0.01442577
In      -1.53528533       4.34244266      -0.00000000        9      -0.00000000       0.00000000       0.00000000
In       4.38862036       6.66727277       0.26605820       10       0.01177859      -0.00832872      -0.01442577
In      -1.31804971      -2.32483010       7.25527311       11      -0.01177859       0.00832872       0.01442577
In       4.38862036       2.94961445       1.88033283       12       0.01177859       0.01665745       0.00000000
In       1.75252094       5.27444455       2.14639103       13      -0.01177859       0.00832872      -0.01442577
In       4.60585598       0.00000000      -0.00000000       14      -0.00000000      -0.00000000       0.00000000
In       1.53528532       2.17122133       3.76066566       15      -0.00000000       0.00000000      -0.00000000
O        0.91084463       4.34406432       4.08595595       16       0.00870480      -0.00229655       0.00316803
O       -2.15972602       3.53773083       5.47694895       17       0.00870480       0.00389187       0.00040486
O       -0.45354581       2.33127923       0.04525309       18       0.00440568       0.00693181      -0.00486047
O       -0.91084464      -0.80309018       2.04157358       19      -0.00870480       0.00159532       0.00357289
O        4.05531328       5.17165973       1.99632048       20       0.00076769      -0.00440151       0.00843336
O        2.08582802       3.02818694       1.71628329       21      -0.00076769      -0.00950426       0.00040486
O        2.08582802       6.48591545       0.28003719       22      -0.00076769       0.00510274       0.00802850
O       -2.34913307       6.16417800       3.80591875       23      -0.00506681      -0.00646432      -0.00486047
O        3.52411646       2.01116344       7.47607822       24      -0.00440568      -0.00693181       0.00486047
O        5.41970372      -1.82173534       3.71541256       25       0.00506681       0.00646432       0.00486047
O        6.59468711       3.37605128       1.76434517       26      -0.00440568      -0.00074339      -0.00843336
O        3.79200823       2.38515466       4.04070285       27      -0.00506681      -0.00097713       0.00802850
O        0.72143758       4.47799533       7.19604102       28      -0.00506681       0.00744145      -0.00316803
O        2.34913307      -0.13555266       0.32529029       29       0.00506681      -0.00744145       0.00316803
O       -3.52411646       0.96639139       5.75698614       30       0.00440568       0.00074339       0.00843336
O        5.23029667       0.80471184       2.04438237       31      -0.00870480      -0.00389187      -0.00040486
O        0.98474263       1.31425572       5.80504803       32       0.00076769       0.00950426      -0.00040486
O        3.52411646      -1.04477204       5.80223924       33      -0.00440568       0.00767519       0.00357289
O        2.15972602      -0.00162165       3.43537536       34      -0.00870480       0.00229655      -0.00316803
O        0.98474263      -2.14347279       7.24129412       35       0.00076769      -0.00510274      -0.00802850
O       -0.72143758       1.95728801       3.48062846       36       0.00506681       0.00097713      -0.00802850
O       -0.98474263      -0.82921707       5.52501083       37      -0.00076769       0.00440151      -0.00843336
O       -0.45354581       5.38721471       1.71909207       38       0.00440568      -0.00767519      -0.00357289
O        3.98141529       5.14553284       5.47975773       39       0.00870480      -0.00159532      -0.00357289
40
Lattice="9.211711957785594 7.219863657151843e-10 4.850870882844815e-15 -3.0705706532758965 8.684885322009203 -1.250533604403842e-09 -3.0705706522548564 -4.342442660282601 7.5213313186482535" Properties=species:S:1:pos:R:3:spacegroup_kinds:I:1:forces:R:3 spacegroup="P 1" unit_cell=conventional occupancy="_JSON {\"0\": {\"In\": 1}, \"1\": {\"In\": 1}, \"2\": {\"In\": 1}, \"3\": {\"In\": 1}, \"4\": {\"In\": 1}, \"5\": {\"In\": 1}, \"6\": {\"In\": 1}, \"7\": {\"In\": 1}, \"8\": {\"In\": 1}, \"9\": {\"In\": 1}, \"10\": {\"In\": 1}, \"11\": {\"In\": 1}, \"12\": {\"In\": 1}, \"13\": {\"In\": 1}, \"14\": {\"In\": 1}, \"15\": {\"In\": 1}, \"16\": {\"O\": 1}, \"17\": {\"O\": 1}, \"18\": {\"O\": 1}, \"19\": {\"O\": 1}, \"20\": {\"O\": 1}, \"21\": {\"O\": 1}, \"22\": {\"O\": 1}, \"23\": {\"O\": 1}, \"24\": {\"O\": 1}, \"25\": {\"O\": 1}, \"26\": {\"O\": 1}, \"27\": {\"O\": 1}, \"28\": {\"O\": 1}, \"29\": {\"O\": 1}, \"30\": {\"O\": 1}, \"31\": {\"O\": 1}, \"32\": {\"O\": 1}, \"33\": {\"O\": 1}, \"34\": {\"O\": 1}, \"35\": {\"O\": 1}, \"36\": {\"O\": 1}, \"37\": {\"O\": 1}, \"38\": {\"O\": 1}, \"39\": {\"O\": 1}}" n_minim_iter=5 energy=-45148.811361139924 stress="0.02970939461690628 1.8122158252006565e-12 7.165576812465608e-13 1.8122158252006565e-12 0.029709394615526397 1.2143913725763158e-12 7.165576812465608e-13 1.2143913725763158e-12 0.029709394617522387" free_energy=-45148.811361139924 pbc="T T T"
In      -4.38920183       3.10363438       5.90634454        0      -0.00422362       0.00298655      -0.00517285
In       7.45977248       1.23880828       1.61498677        1       0.00422362      -0.00298655       0.00517285
In       1.31863118      -0.93241305       5.37565243        2       0.00422362      -0.00298655       0.00517285
In      -1.53528533      -2.17122133       3.76066566        3       0.00000000       0.00000000       0.00000000
In      -1.31863118       4.18924505       3.49531960        4      -0.00422362       0.00298655       0.00517285
In       4.82251012      -2.95043676       5.64099849        5      -0.00422362      -0.00597310       0.00000000
In      -1.31863118       1.39200590       5.64099849        6      -0.00422362      -0.00597310      -0.00000000
In      -1.75193947       7.29287943       1.88033283        7       0.00422362       0.00597310      -0.00000000
In       4.38920183       0.15319762       4.02601171        8       0.00422362      -0.00298655      -0.00517285
In      -1.53528533       4.34244266      -0.00000000        9      -0.00000000      -0.00000000       0.00000000
In       4.38920183       6.66686161       0.26534605       10       0.00422362      -0.00298655      -0.00517285
In      -1.31863118      -2.32441894       7.25598526       11      -0.00422362       0.00298655       0.00517285
In       4.38920183       2.95043677       1.88033283       12       0.00422362       0.00597310       0.00000000
In       1.75193947       5.27485571       2.14567888       13      -0.00422362       0.00298655      -0.00517285
In       4.60585598       0.00000000      -0.00000000       14       0.00000000       0.00000000      -0.00000000
In       1.53528532       2.17122133       3.76066566       15       0.00000000       0.00000000      -0.00000000
O        0.91095195       4.34408965       4.08630210       16       0.00681045      -0.00377330      -0.00277771
O       -2.15961871       3.53801793       5.47675393       17       0.00681045      -0.00051892       0.00465662
O       -0.45321547       2.33140863       0.04533123       18      -0.00177659       0.00555303      -0.00586030
O       -0.91095195      -0.80277774       2.04172471       19      -0.00681045      -0.00429221       0.00187892
O        4.05554819       5.17139240       1.99639348       20      -0.00275939       0.00090876       0.00773922
O        2.08559311       3.02799006       1.71608827       21       0.00275939      -0.00624798       0.00465662
O        2.08559311       6.48584500       0.28030520       22       0.00275939       0.00715674       0.00308260
O       -2.34914496       6.16382342       3.80599689       23      -0.00582765      -0.00017603      -0.00586030
O        3.52378611       2.01103404       7.47600008       24       0.00177659      -0.00555303       0.00586030
O        5.41971561      -1.82138076       3.71533442       25       0.00582765       0.00017603       0.00586030
O        6.59435677       3.37618365       1.76427217       26       0.00177659      -0.00229865      -0.00773922
O        3.79199635       2.38539962       4.04097086       27      -0.00582765      -0.00498716       0.00308260
O        0.72142570       4.47810495       7.19569488       28      -0.00582765       0.00516318       0.00277771
O        2.34914495      -0.13566228       0.32563644       29       0.00582765      -0.00516318      -0.00277771
O       -3.52378612       0.96625902       5.75705914       30      -0.00177659       0.00229865       0.00773922
O        5.23018935       0.80442473       2.04457738       31      -0.00681045       0.00051892      -0.00465662
O        0.98497754       1.31445260       5.80524304       32      -0.00275939       0.00624798      -0.00465662
O        3.52378611      -1.04477501       5.80239037       33       0.00177659       0.00785169       0.00187892
O        2.15961870      -0.00164699       3.43502922       34      -0.00681045       0.00377330       0.00277771
O        0.98497754      -2.14340234       7.24102611       35      -0.00275939      -0.00715674      -0.00308260
O       -0.72142570       1.95704305       3.48036045       36       0.00582765       0.00498716      -0.00308260
O       -0.98497754      -0.82894974       5.52493783       37       0.00275939      -0.00090877      -0.00773922
O       -0.45321547       5.38721768       1.71894094       38      -0.00177659      -0.00785169      -0.00187892
O        3.98152260       5.14522041       5.47960660       39       0.00681045       0.00429221      -0.00187892
