40
Lattice="8.848663087549896 6.935364577940223e-10 7.597882864326171e-16 -2.9495543631705026 8.342599564624317 -1.2012404960091967e-09 -2.9495543621896974 -4.171299781618622 7.224903157366484" Properties=species:S:1:pos:R:3:spacegroup_kinds:I:1:forces:R:3 spacegroup="P 1" unit_cell=conventional occupancy="_JSON {\"0\": {\"In\": 1}, \"1\": {\"In\": 1}, \"2\": {\"In\": 1}, \"3\": {\"In\": 1}, \"4\": {\"In\": 1}, \"5\": {\"In\": 1}, \"6\": {\"In\": 1}, \"7\": {\"In\": 1}, \"8\": {\"In\": 1}, \"9\": {\"In\": 1}, \"10\": {\"In\": 1}, \"11\": {\"In\": 1}, \"12\": {\"In\": 1}, \"13\": {\"In\": 1}, \"14\": {\"In\": 1}, \"15\": {\"In\": 1}, \"16\": {\"O\": 1}, \"17\": {\"O\": 1}, \"18\": {\"O\": 1}, \"19\": {\"O\": 1}, \"20\": {\"O\": 1}, \"21\": {\"O\": 1}, \"22\": {\"O\": 1}, \"23\": {\"O\": 1}, \"24\": {\"O\": 1}, \"25\": {\"O\": 1}, \"26\": {\"O\": 1}, \"27\": {\"O\": 1}, \"28\": {\"O\": 1}, \"29\": {\"O\": 1}, \"30\": {\"O\": 1}, \"31\": {\"O\": 1}, \"32\": {\"O\": 1}, \"33\": {\"O\": 1}, \"34\": {\"O\": 1}, \"35\": {\"O\": 1}, \"36\": {\"O\": 1}, \"37\": {\"O\": 1}, \"38\": {\"O\": 1}, \"39\": {\"O\": 1}}" n_minim_iter=1 energy=-45149.88849629692 stress="-0.01764723166928476 2.3395589901212243e-12 3.599698214417189e-13 2.3395589901212243e-12 -0.017647231666064602 -1.2885763440383727e-12 3.599698214417189e-13 -1.2885763440383727e-12 -0.017647231667699517" free_energy=-45149.88849629692 pbc="T T T"
In      -4.22269676       2.98589752       5.66562853        0      -0.02467913       0.01745078      -0.03022564
In       7.17225112       1.18540227       1.55927462        1       0.02467913      -0.01745078       0.03022564
In       1.27314240      -0.90024762       5.17172620        2       0.02467913      -0.01745078       0.03022564
In      -1.47477718      -2.08564989       3.61245158        3       0.00000000       0.00000000       0.00000000
In      -1.27314240       4.02872246       3.36550041        4      -0.02467913       0.01745078       0.03022564
In       4.62596632      -2.84332019       5.41867737        5      -0.02467913      -0.03490156       0.00000000
In      -1.27314240       1.32797959       5.41867737        6      -0.02467913      -0.03490157      -0.00000000
In      -1.67641196       7.01461998       1.80622579        7       0.02467913       0.03490156       0.00000000
In       4.22269676       0.14257732       3.85940274        8       0.02467913      -0.01745078      -0.03022564
In      -1.47477718       4.17129978      -0.00000000        9       0.00000000       0.00000000       0.00000000
In       4.22269676       6.39952700       0.24695116       10       0.02467913      -0.01745078      -0.03022564
In      -1.27314240      -2.22822721       6.97795199       11      -0.02467913       0.01745078       0.03022564
In       4.22269676       2.84332020       1.80622579       12       0.02467913       0.03490157      -0.00000000
In       1.67641196       5.07154741       2.05317695       13      -0.02467913       0.01745078      -0.03022564
In       4.42433154       0.00000000      -0.00000000       14       0.00000000       0.00000000      -0.00000000
In       1.47477718       2.08564989       3.61245158       15      -0.00000000      -0.00000000      -0.00000000
O        0.86909553       4.17199371       3.93312173       16       0.03783470       0.00406397       0.02295988
O       -2.08045883       3.40583637       5.25774134       17       0.03783470       0.01785186      -0.01499944
O       -0.43133308       2.23972837       0.05259649       18       0.03327401       0.02107675      -0.02058513
O       -0.86909553      -0.76476949       1.96595991       19      -0.03783470       0.02191583       0.00796044
O        3.90453960       4.96643587       1.91336342       20       0.00421933      -0.03380066       0.02854557
O        1.99456912       2.91184650       1.64528976       21      -0.00421933      -0.04162151      -0.01499945
O        1.99456912       6.22588915       0.26807365       22      -0.00421933       0.00782086       0.04354501
O       -2.25541385       5.91703828       3.66504807       23      -0.00878002      -0.03839662      -0.02058513
O        3.38088744       1.93157142       7.17230666       24      -0.03327401      -0.02107675       0.02058513
O        5.20496821      -1.74573849       3.55985508       25       0.00878002       0.03839662       0.02058513
O        6.33044180       3.25106398       1.69908816       26      -0.03327401      -0.00728887      -0.02854556
O        3.64369487       2.30115549       3.88052523       27      -0.00878002       0.00137107       0.04354501
O        0.69414051       4.29570558       6.90423300       28      -0.00878002       0.03702555      -0.02295988
O        2.25541385      -0.12440580       0.32067015       29       0.00878002      -0.03702555       0.02295988
O       -3.38088744       0.92023581       5.52581499       30       0.03327401       0.00728887       0.02854556
O        5.03001319       0.76546341       1.96716182       31      -0.03783470      -0.01785186       0.01499945
O        0.95498524       1.25945329       5.57961339       32       0.00421933       0.04162151       0.01499945
O        3.38088744      -1.01133560       5.57841149       33      -0.03327401       0.02836562       0.00796044
O        2.08045883      -0.00069392       3.29178143       34      -0.03783470      -0.00406397      -0.02295988
O        0.95498524      -2.05458937       6.95682950       35       0.00421933      -0.00782086      -0.04354501
O       -0.69414052       1.87014430       3.34437792       36       0.00878002      -0.00137107      -0.04354501
O       -0.95498524      -0.79513609       5.31153974       37      -0.00421933       0.03380066      -0.02854556
O       -0.43133308       5.18263539       1.64649167       38       0.03327401      -0.02836562      -0.00796044
O        3.81864989       4.93606927       5.25894324       39       0.03783470      -0.02191583      -0.00796044
40
Lattice="8.848663087549895 6.935364577940222e-10 7.597882864326176e-16 -2.949554363170502 8.342599564624315 -1.2012404960091964e-09 -2.949554362189697 -4.171299781618621 7.224903157366483" Properties=species:S:1:pos:R:3:spacegroup_kinds:I:1:forces:R:3 spacegroup="P 1" unit_cell=conventional occupancy="_JSON {\"0\": {\"In\": 1}, \"1\": {\"In\": 1}, \"2\": {\"In\": 1}, \"3\": {\"In\": 1}, \"4\": {\"In\": 1}, \"5\": {\"In\": 1}, \"6\": {\"In\": 1}, \"7\": {\"In\": 1}, \"8\": {\"In\": 1}, \"9\": {\"In\": 1}, \"10\": {\"In\": 1}, \"11\": {\"In\": 1}, \"12\": {\"In\": 1}, \"13\": {\"In\": 1}, \"14\": {\"In\": 1}, \"15\": {\"In\": 1}, \"16\": {\"O\": 1}, \"17\": {\"O\": 1}, \"18\": {\"O\": 1}, \"19\": {\"O\": 1}, \"20\": {\"O\": 1}, \"21\": {\"O\": 1}, \"22\": {\"O\": 1}, \"23\": {\"O\": 1}, \"24\": {\"O\": 1}, \"25\": {\"O\": 1}, \"26\": {\"O\": 1}, \"27\": {\"O\": 1}, \"28\": {\"O\": 1}, \"29\": {\"O\": 1}, \"30\": {\"O\": 1}, \"31\": {\"O\": 1}, \"32\": {\"O\": 1}, \"33\": {\"O\": 1}, \"34\": {\"O\": 1}, \"35\": {\"O\": 1}, \"36\": {\"O\": 1}, \"37\": {\"O\": 1}, \"38\": {\"O\": 1}, \"39\": {\"O\": 1}}" n_minim_iter=2 energy=-45149.88996336042 stress="-0.01743074883865976 -1.7838029207202693e-12 -1.2863346073454885e-12 -1.7838029207202693e-12 -0.017430748843875233 1.4087976380043567e-12 -1.2863346073454885e-12 1.4087976380043567e-12 -0.017430748838320284" free_energy=-45149.88996336042 pbc="T T T"
In      -4.22374140       2.98663619       5.66434912        0       0.00906778      -0.00641189       0.01110572
In       7.17329576       1.18466360       1.56055404        1      -0.00906778       0.00641189      -0.01110572
In       1.27418704      -0.90098629       5.17300561        2      -0.00906778       0.00641189      -0.01110572
In      -1.47477718      -2.08564989       3.61245158        3      -0.00000000       0.00000000       0.00000000
In      -1.27418704       4.02946113       3.36677982        4       0.00906778      -0.00641189      -0.01110572
In       4.62492169      -2.84479753       5.41867737        5       0.00906778       0.01282378       0.00000000
In      -1.27418704       1.32650225       5.41867737        6       0.00906778       0.01282378      -0.00000000
In      -1.67536733       7.01609732       1.80622579        7      -0.00906778      -0.01282378      -0.00000000
In       4.22374140       0.14183865       3.85812333        8      -0.00906778       0.00641189       0.01110572
In      -1.47477718       4.17129978      -0.00000000        9       0.00000000      -0.00000000      -0.00000000
In       4.22374140       6.39878833       0.24567175       10      -0.00906778       0.00641189       0.01110572
In      -1.27418704      -2.22748854       6.97923140       11       0.00906778      -0.00641189      -0.01110572
In       4.22374140       2.84479754       1.80622579       12      -0.00906778      -0.01282378       0.00000000
In       1.67536732       5.07228608       2.05189754       13       0.00906778      -0.00641189       0.01110572
In       4.42433154       0.00000000      -0.00000000       14      -0.00000000      -0.00000000       0.00000000
In       1.47477718       2.08564989       3.61245158       15      -0.00000000       0.00000000      -0.00000000
O        0.87069702       4.17216573       3.93409359       16       0.01663114      -0.00403089      -0.01211731
O       -2.07885734       3.40659202       5.25710643       17       0.01663114      -0.00847845       0.00954951
O       -0.42992463       2.24062052       0.05172515       18      -0.00625021       0.00770111      -0.01847430
O       -0.87069703      -0.76384182       1.96629686       19      -0.01663114      -0.01250934      -0.00256780
O        3.90471820       4.96500513       1.91457171       20      -0.01353727       0.00184320       0.01590651
O        1.99439052       2.91008471       1.64465485       21       0.01353727      -0.01285384       0.00954951
O        1.99439052       6.22622020       0.26991686       22       0.01353727       0.01469704       0.00635700
O       -2.25578550       5.91541300       3.66417672       23      -0.00934408       0.00332572      -0.01847430
O        3.37947899       1.93067926       7.17317801       24       0.00625021      -0.00770111       0.01847430
O        5.20533986      -1.74411321       3.56072643       25       0.00934408      -0.00332572       0.01847430
O        6.32903336       3.25075545       1.69787986       26       0.00625021      -0.01214866      -0.01590651
O        3.64332323       2.30121352       3.88236844       27      -0.00934408      -0.01766207       0.00635700
O        0.69376886       4.29727283       6.90326114       28      -0.00934408       0.01433636       0.01211731
O        2.25578549      -0.12597304       0.32164201       29       0.00934408      -0.01433636      -0.01211731
O       -3.37947900       0.92054434       5.52702329       30      -0.00625021       0.01214866       0.01590651
O        5.02841170       0.76470777       1.96779672       31      -0.01663114       0.00847845      -0.00954951
O        0.95516384       1.26121507       5.58024830       32      -0.01353727       0.01285384      -0.00954951
O        3.37947899      -1.01013492       5.57874844       33       0.00625021       0.01984977      -0.00256780
O        2.07885734      -0.00086594       3.29080956       34      -0.01663114       0.00403089       0.01211731
O        0.95516384      -2.05492042       6.95498629       35      -0.01353727      -0.01469704      -0.00635700
O       -0.69376887       1.87008626       3.34253471       36       0.00934408       0.01766207      -0.00635700
O       -0.95516384      -0.79370535       5.31033144       37       0.01353727      -0.00184320      -0.01590651
O       -0.42992463       5.18143471       1.64615471       38      -0.00625021      -0.01984977       0.00256780
O        3.82025139       4.93514160       5.25860629       39       0.01663114       0.01250934       0.00256780
40
Lattice="8.848663087549893 6.935364577940221e-10 7.597882864326291e-16 -2.9495543631705017 8.342599564624313 -1.2012404960091962e-09 -2.9495543621896965 -4.17129978161862 7.224903157366482" Properties=species:S:1:pos:R:3:spacegroup_kinds:I:1:forces:R:3 spacegroup="P 1" unit_cell=conventional occupancy="_JSON {\"0\": {\"In\": 1}, \"1\": {\"In\": 1}, \"2\": {\"In\": 1}, \"3\": {\"In\": 1}, \"4\": {\"In\": 1}, \"5\": {\"In\": 1}, \"6\": {\"In\": 1}, \"7\": {\"In\": 1}, \"8\": {\"In\": 1}, \"9\": {\"In\": 1}, \"10\": {\"In\": 1}, \"11\": {\"In\": 1}, \"12\": {\"In\": 1}, \"13\": {\"In\": 1}, \"14\": {\"In\": 1}, \"15\": {\"In\": 1}, \"16\": {\"O\": 1}, \"17\": {\"O\": 1}, \"18\": {\"O\": 1}, \"19\": {\"O\": 1}, \"20\": {\"O\": 1}, \"21\": {\"O\": 1}, \"22\": {\"O\": 1}, \"23\": {\"O\": 1}, \"24\": {\"O\": 1}, \"25\": {\"O\": 1}, \"26\": {\"O\": 1}, \"27\": {\"O\": 1}, \"28\": {\"O\": 1}, \"29\": {\"O\": 1}, \"30\": {\"O\": 1}, \"31\": {\"O\": 1}, \"32\": {\"O\": 1}, \"33\": {\"O\": 1}, \"34\": {\"O\": 1}, \"35\": {\"O\": 1}, \"36\": {\"O\": 1}, \"37\": {\"O\": 1}, \"38\": {\"O\": 1}, \"39\": {\"O\": 1}}" n_minim_iter=3 energy=-45149.89054835493 stress="-0.017410845308254742 -4.175792851992818e-13 7.806441468729731e-13 -4.175792851992818e-13 -0.0174108453022529 2.6184880291685607e-12 7.806441468729731e-13 2.6184880291685607e-12 -0.017410845305721952" free_energy=-45149.89054835493 pbc="T T T"
In      -4.22343601       2.98642025       5.66472314        0       0.00169842      -0.00120097       0.00208013
In       7.17299037       1.18487954       1.56018001        1      -0.00169842       0.00120097      -0.00208013
In       1.27388165      -0.90077035       5.17263159        2      -0.00169842       0.00120097      -0.00208013
In      -1.47477718      -2.08564989       3.61245158        3      -0.00000000      -0.00000000      -0.00000000
In      -1.27388165       4.02924519       3.36640580        4       0.00169842      -0.00120097      -0.00208013
In       4.62522708      -2.84436565       5.41867737        5       0.00169842       0.00240193       0.00000000
In      -1.27388165       1.32693413       5.41867737        6       0.00169842       0.00240193      -0.00000000
In      -1.67567272       7.01566543       1.80622579        7      -0.00169842      -0.00240193      -0.00000000
In       4.22343601       0.14205460       3.85849735        8      -0.00169842       0.00120097       0.00208013
In      -1.47477718       4.17129978      -0.00000000        9       0.00000000      -0.00000000      -0.00000000
In       4.22343601       6.39900427       0.24604577       10      -0.00169842       0.00120097       0.00208013
In      -1.27388165      -2.22770448       6.97885738       11       0.00169842      -0.00120097      -0.00208013
In       4.22343601       2.84436565       1.80622579       12      -0.00169842      -0.00240193       0.00000000
In       1.67567271       5.07207014       2.05227156       13       0.00169842      -0.00120097       0.00208013
In       4.42433154       0.00000000      -0.00000000       14      -0.00000000      -0.00000000       0.00000000
In       1.47477718       2.08564989       3.61245158       15       0.00000000       0.00000000      -0.00000000
O        0.87240896       4.17193424       3.93354662       16       0.00375018       0.00178048      -0.00329902
O       -2.07714540       3.40623408       5.25758038       17       0.00375018      -0.00374727       0.00010757
O       -0.42990970       2.24146255       0.05012070       18      -0.00060425      -0.00066822      -0.00522549
O       -0.87240897      -0.76443125       1.96622386       19      -0.00375018      -0.00196679      -0.00319144
O        3.90381008       4.96466823       1.91610316       20      -0.00478302      -0.00105015       0.00203405
O        1.99529864       2.90859000       1.64512881       21       0.00478302      -0.00228661       0.00010757
O        1.99529864       6.22737802       0.27097435       22       0.00478302       0.00123646       0.00192648
O       -2.25657439       5.91511825       3.66257227       23       0.00042859       0.00079244      -0.00522549
O        3.37946406       1.92983724       7.17478246       24       0.00060425       0.00066822       0.00522549
O        5.20612875      -1.74381846       3.56233088       25      -0.00042859      -0.00079244       0.00522549
O        6.32901843       3.24978697       1.69634842       26       0.00060425      -0.00485952      -0.00203405
O        3.64253433       2.29997141       3.88342593       27       0.00042859      -0.00492163       0.00192648
O        0.69297997       4.29880970       6.90380810       28       0.00042859       0.00412919       0.00329902
O        2.25657439      -0.12750991       0.32109505       29      -0.00042859      -0.00412919      -0.00329902
O       -3.37946407       0.92151282       5.52855473       30      -0.00060425       0.00485952       0.00203405
O        5.02669976       0.76506571       1.96732277       31      -0.00375018       0.00374727      -0.00010757
O        0.95425572       1.26270979       5.57977435       32      -0.00478302       0.00228661      -0.00010757
O        3.37946406      -1.00832441       5.57867543       33       0.00060425       0.00419130      -0.00319144
O        2.07714540      -0.00063446       3.29135653       34      -0.00375018      -0.00178048       0.00329902
O        0.95425572      -2.05607823       6.95392880       35      -0.00478302      -0.00123646      -0.00192648
O       -0.69297997       1.87132838       3.34147722       36      -0.00042859       0.00492163      -0.00192648
O       -0.95425572      -0.79336844       5.30880000       37       0.00478302       0.00105015      -0.00203405
O       -0.42990970       5.17962420       1.64622772       38      -0.00060425      -0.00419130       0.00319144
O        3.82196333       4.93573103       5.25867930       39       0.00375018       0.00196679       0.00319144
