40
Lattice="9.211711957785592 7.219889779106368e-10 1.8094500997096576e-15 -3.0705706532758956 8.684885322009203 -1.2505343966164518e-09 -3.0705706522548533 -4.342442660282605 7.521331318648257" Properties=species:S:1:pos:R:3:spacegroup_kinds:I:1:forces:R:3 spacegroup="P 1" unit_cell=conventional occupancy="_JSON {\"0\": {\"In\": 1}, \"1\": {\"In\": 1}, \"2\": {\"In\": 1}, \"3\": {\"In\": 1}, \"4\": {\"In\": 1}, \"5\": {\"In\": 1}, \"6\": {\"In\": 1}, \"7\": {\"In\": 1}, \"8\": {\"In\": 1}, \"9\": {\"In\": 1}, \"10\": {\"In\": 1}, \"11\": {\"In\": 1}, \"12\": {\"In\": 1}, \"13\": {\"In\": 1}, \"14\": {\"In\": 1}, \"15\": {\"In\": 1}, \"16\": {\"O\": 1}, \"17\": {\"O\": 1}, \"18\": {\"O\": 1}, \"19\": {\"O\": 1}, \"20\": {\"O\": 1}, \"21\": {\"O\": 1}, \"22\": {\"O\": 1}, \"23\": {\"O\": 1}, \"24\": {\"O\": 1}, \"25\": {\"O\": 1}, \"26\": {\"O\": 1}, \"27\": {\"O\": 1}, \"28\": {\"O\": 1}, \"29\": {\"O\": 1}, \"30\": {\"O\": 1}, \"31\": {\"O\": 1}, \"32\": {\"O\": 1}, \"33\": {\"O\": 1}, \"34\": {\"O\": 1}, \"35\": {\"O\": 1}, \"36\": {\"O\": 1}, \"37\": {\"O\": 1}, \"38\": {\"O\": 1}, \"39\": {\"O\": 1}}" n_minim_iter=3 energy=-45149.23392850099 stress="0.03127144973339562 -5.277958547352137e-13 -7.239122289268239e-14 -5.277958547352137e-13 0.0312714497282261 1.3023799006783576e-13 -7.239122289268239e-14 1.3023799006783576e-13 0.0312714497283421" free_energy=-45149.23392850099 pbc="T T T"
In      -4.39627987       3.10863931       5.89767575        0       0.00086710      -0.00061313       0.00106198
In       7.46685052       1.23380335       1.62365557        1      -0.00086710       0.00061313      -0.00106198
In       1.32570922      -0.93741798       5.38432122        2      -0.00086710       0.00061313      -0.00106198
In      -1.53528533      -2.17122133       3.76066566        3      -0.00000000       0.00000000       0.00000000
In      -1.32570922       4.19424998       3.50398839        4       0.00086710      -0.00061313      -0.00106198
In       4.81543208      -2.96044662       5.64099849        5       0.00086710       0.00122627      -0.00000000
In      -1.32570922       1.38199604       5.64099849        6       0.00086710       0.00122627      -0.00000000
In      -1.74486144       7.30288929       1.88033283        7      -0.00086710      -0.00122627       0.00000000
In       4.39627987       0.14819269       4.01734292        8      -0.00086710       0.00061313       0.00106198
In      -1.53528533       4.34244266      -0.00000000        9      -0.00000000      -0.00000000       0.00000000
In       4.39627987       6.66185668       0.25667726       10      -0.00086710       0.00061313       0.00106198
In      -1.32570922      -2.31941401       7.26465405       11       0.00086710      -0.00061313      -0.00106198
In       4.39627987       2.96044663       1.88033283       12      -0.00086710      -0.00122627      -0.00000000
In       1.74486143       5.27986064       2.13701009       13       0.00086710      -0.00061313       0.00106198
In       4.60585598       0.00000000      -0.00000000       14       0.00000000      -0.00000000      -0.00000000
In       1.53528532       2.17122133       3.76066566       15       0.00000000      -0.00000000      -0.00000000
O        0.90588267       4.34217953       4.08715307       16       0.00559643      -0.00010652       0.00227198
O       -2.16468798       3.53970996       5.47798266       17       0.00559643       0.00202086      -0.00104374
O       -0.45511084       2.33085637       0.05044717       18       0.00367033       0.00338282      -0.00340272
O       -0.90588267      -0.80299583       2.04380442       19      -0.00559643       0.00191433       0.00122825
O        4.05883321       5.17456419       1.99335724       20       0.00003981      -0.00387890       0.00463097
O        2.08230809       3.03220541       1.71731700       21      -0.00003981      -0.00594999      -0.00104374
O        2.08230809       6.48480144       0.27604024       22      -0.00003981       0.00207109       0.00567471
O       -2.34925608       6.16579449       3.81111283       23      -0.00196591      -0.00458802      -0.00340272
O        3.52568149       2.01158629       7.47088414       24      -0.00367033      -0.00338282       0.00340272
O        5.41982673      -1.82335182       3.71021848       25       0.00196591       0.00458802       0.00340272
O        6.59625215       3.38033805       1.76730841       26      -0.00367033      -0.00125544      -0.00463097
O        3.79188523       2.38884462       4.03670590       27      -0.00196591      -0.00065283       0.00567471
O        0.72131457       4.47268888       7.19484390       28      -0.00196591       0.00524086      -0.00227198
O        2.34925607      -0.13024622       0.32648741       29       0.00196591      -0.00524086       0.00227198
O       -3.52568150       0.96210461       5.75402290       30       0.00367033       0.00125544       0.00463097
O        5.23525863       0.80273270       2.04334866       31      -0.00559643      -0.00202086       0.00104374
O        0.98826256       1.31023725       5.80401431       32       0.00003981       0.00594999       0.00104374
O        3.52568149      -1.04948168       5.80447007       33      -0.00367033       0.00463826       0.00122825
O        2.16468798       0.00026314       3.43417824       34      -0.00559643       0.00010652      -0.00227198
O        0.98826256      -2.14235877       7.24529107       35       0.00003981      -0.00207109      -0.00567471
O       -0.72131458       1.95359804       3.48462541       36       0.00196591       0.00065283      -0.00567471
O       -0.98826256      -0.83212152       5.52797407       37      -0.00003981       0.00387890      -0.00463097
O       -0.45511084       5.39192434       1.71686124       38       0.00367033      -0.00463826      -0.00122825
O        3.97645332       5.14543850       5.47752690       39       0.00559643      -0.00191433      -0.00122825
