40
Lattice="8.453095256860786 6.625298974160115e-10 9.036769567856652e-15 -2.8176984195782344 7.969654637301962 -1.147549321787635e-09 -2.817698418641282 -3.984827317988442 6.901923376056981" Properties=species:S:1:pos:R:3:spacegroup_kinds:I:1:forces:R:3 spacegroup="P 1" unit_cell=conventional occupancy="_JSON {\"0\": {\"In\": 1}, \"1\": {\"In\": 1}, \"2\": {\"In\": 1}, \"3\": {\"In\": 1}, \"4\": {\"In\": 1}, \"5\": {\"In\": 1}, \"6\": {\"In\": 1}, \"7\": {\"In\": 1}, \"8\": {\"In\": 1}, \"9\": {\"In\": 1}, \"10\": {\"In\": 1}, \"11\": {\"In\": 1}, \"12\": {\"In\": 1}, \"13\": {\"In\": 1}, \"14\": {\"In\": 1}, \"15\": {\"In\": 1}, \"16\": {\"O\": 1}, \"17\": {\"O\": 1}, \"18\": {\"O\": 1}, \"19\": {\"O\": 1}, \"20\": {\"O\": 1}, \"21\": {\"O\": 1}, \"22\": {\"O\": 1}, \"23\": {\"O\": 1}, \"24\": {\"O\": 1}, \"25\": {\"O\": 1}, \"26\": {\"O\": 1}, \"27\": {\"O\": 1}, \"28\": {\"O\": 1}, \"29\": {\"O\": 1}, \"30\": {\"O\": 1}, \"31\": {\"O\": 1}, \"32\": {\"O\": 1}, \"33\": {\"O\": 1}, \"34\": {\"O\": 1}, \"35\": {\"O\": 1}, \"36\": {\"O\": 1}, \"37\": {\"O\": 1}, \"38\": {\"O\": 1}, \"39\": {\"O\": 1}}" n_minim_iter=1 energy=-45146.62451873646 stress="-0.08969934850699421 2.962133555047031e-12 1.3133709175445566e-13 2.962133555047031e-12 -0.08969934850952488 1.8543956732249603e-12 1.3133709175445566e-13 1.8543956732249603e-12 -0.08969934850917205" free_energy=-45146.62451873646 pbc="T T T"
In      -4.04339940       2.85911514       5.40075238        0      -0.13592889       0.09611624      -0.16647820
In       6.86109782       1.12571219       1.50117099        1       0.13592889      -0.09611624       0.16647820
In       1.22570098      -0.86670147       4.95213267        2       0.13592888      -0.09611624       0.16647820
In      -1.40884921      -1.99241366       3.45096169        3      -0.00000000       0.00000000      -0.00000000
In      -1.22570098       3.85532196       3.22665183        4      -0.13592888       0.09611624       0.16647820
In       4.40969586      -2.72960978       5.17644253        5      -0.13592888      -0.19223247       0.00000000
In      -1.22570098       1.25521754       5.17644253        6      -0.13592888      -0.19223247       0.00000000
In      -1.59199744       6.71443710       1.72548084        7       0.13592888       0.19223247      -0.00000000
In       4.04339940       0.12950536       3.67527154        8       0.13592888      -0.09611624      -0.16647820
In      -1.40884921       3.98482732      -0.00000000        9       0.00000000       0.00000000       0.00000000
In       4.04339940       6.10674634       0.22430985       10       0.13592889      -0.09611624      -0.16647820
In      -1.22570098      -2.12191901       6.67761352       11      -0.13592888       0.09611624       0.16647820
In       4.04339940       2.72960978       1.72548084       12       0.13592888       0.19223247      -0.00000000
In       1.59199744       4.85152879       1.94979070       13      -0.13592888       0.09611624      -0.16647820
In       4.22654763       0.00000000      -0.00000000       14       0.00000000       0.00000000      -0.00000000
In       1.40884921       1.99241366       3.45096169       15      -0.00000000       0.00000000      -0.00000000
O        0.86188744       3.98530373       3.74511704       16      -0.13850693      -0.08490666       0.20199086
O       -1.95581098       3.24312829       5.02895227       17      -0.13850693       0.21738255      -0.02746411
O       -0.41153558       2.15116068       0.01837228       18       0.07873049       0.06377250       0.23859631
O       -0.86188744      -0.74122262       1.87214594       19       0.13850693       0.13247589       0.17452675
O        3.70958767       4.73665718       1.85377366       20       0.25111921       0.00527775      -0.06406955
O        1.92580917       2.75532717       1.57799058       21      -0.25111921       0.05812474      -0.02746411
O        1.92580917       5.96615733       0.27578307       22      -0.25111921      -0.05284698      -0.03660545
O       -2.16531227       5.64818688       3.46933397       23      -0.03388179      -0.09548531       0.23859631
O        3.22923399       1.83366664       6.88355109       24      -0.07873049      -0.06377250      -0.23859631
O        4.98301068      -1.66335956       3.43258941       25       0.03388179       0.09548531      -0.23859631
O        6.04693241       3.08390486       1.59718803       26      -0.07873049       0.23851671       0.06406955
O        3.47008457       2.17285157       3.72674476       27      -0.03388179       0.25437312      -0.03660545
O        0.65238615       4.13344351       6.60776802       28      -0.03388179      -0.15888781      -0.20199086
O        2.16531226      -0.14861619       0.29415535       29       0.03388179       0.15888781       0.20199086
O       -3.22923399       0.90092246       5.30473534       30       0.07873049      -0.23851671      -0.06406955
O        4.77350939       0.74169903       1.87297110       31       0.13850693      -0.21738255       0.02746411
O        0.89188925       1.22950015       5.32393279       32       0.25111921      -0.05812474       0.02746411
O        3.22923399      -0.93274418       5.32310762       33      -0.07873049      -0.17474422       0.17452675
O        1.95581098      -0.00047641       3.15680633       34       0.13850693       0.08490666      -0.20199086
O        0.89188925      -1.98133001       6.62614030       35       0.25111921       0.05284698       0.03660545
O       -0.65238616       1.81197575       3.17517861       36       0.03388179      -0.25437312       0.03660545
O       -0.89188925      -0.75182986       5.04814972       37      -0.25111921      -0.00527775       0.06406955
O       -0.41153558       4.91757150       1.57881575       38       0.07873049       0.17474422      -0.17452675
O        3.67958586       4.72604994       5.02977743       39      -0.13850693      -0.13247589      -0.17452675
40
Lattice="8.453095256860784 6.625298974160115e-10 9.036769567856647e-15 -2.817698419578234 7.9696546373019626 -1.1475493217876348e-09 -2.8176984186412817 -3.9848273179884424 6.90192337605698" Properties=species:S:1:pos:R:3:spacegroup_kinds:I:1:forces:R:3 spacegroup="P 1" unit_cell=conventional occupancy="_JSON {\"0\": {\"In\": 1}, \"1\": {\"In\": 1}, \"2\": {\"In\": 1}, \"3\": {\"In\": 1}, \"4\": {\"In\": 1}, \"5\": {\"In\": 1}, \"6\": {\"In\": 1}, \"7\": {\"In\": 1}, \"8\": {\"In\": 1}, \"9\": {\"In\": 1}, \"10\": {\"In\": 1}, \"11\": {\"In\": 1}, \"12\": {\"In\": 1}, \"13\": {\"In\": 1}, \"14\": {\"In\": 1}, \"15\": {\"In\": 1}, \"16\": {\"O\": 1}, \"17\": {\"O\": 1}, \"18\": {\"O\": 1}, \"19\": {\"O\": 1}, \"20\": {\"O\": 1}, \"21\": {\"O\": 1}, \"22\": {\"O\": 1}, \"23\": {\"O\": 1}, \"24\": {\"O\": 1}, \"25\": {\"O\": 1}, \"26\": {\"O\": 1}, \"27\": {\"O\": 1}, \"28\": {\"O\": 1}, \"29\": {\"O\": 1}, \"30\": {\"O\": 1}, \"31\": {\"O\": 1}, \"32\": {\"O\": 1}, \"33\": {\"O\": 1}, \"34\": {\"O\": 1}, \"35\": {\"O\": 1}, \"36\": {\"O\": 1}, \"37\": {\"O\": 1}, \"38\": {\"O\": 1}, \"39\": {\"O\": 1}}" n_minim_iter=2 energy=-45146.647064365905 stress="-0.08669992301105446 9.624897680175297e-13 2.6508256524110013e-13 9.624897680175297e-13 -0.08669992301301661 -7.59042697174654e-13 2.6508256524110013e-13 -7.59042697174654e-13 -0.08669992301403233" free_energy=-45146.647064365905 pbc="T T T"
In      -4.04534124       2.86048822       5.39837412        0      -0.02441550       0.01726437      -0.02990276
In       6.86303966       1.12433910       1.50354925        1       0.02441550      -0.01726437       0.02990276
In       1.22764282      -0.86807456       4.95451093        2       0.02441550      -0.01726437       0.02990276
In      -1.40884921      -1.99241366       3.45096169        3      -0.00000000       0.00000000      -0.00000000
In      -1.22764282       3.85669505       3.22903009        4      -0.02441550       0.01726437       0.02990276
In       4.40775402      -2.73235595       5.17644253        5      -0.02441550      -0.03452873       0.00000000
In      -1.22764282       1.25247136       5.17644253        6      -0.02441550      -0.03452873       0.00000000
In      -1.59005560       6.71718328       1.72548084        7       0.02441550       0.03452873       0.00000000
In       4.04534124       0.12813227       3.67289328        8       0.02441550      -0.01726437      -0.02990276
In      -1.40884921       3.98482732      -0.00000000        9       0.00000000       0.00000000       0.00000000
In       4.04534124       6.10537325       0.22193159       10       0.02441550      -0.01726437      -0.02990276
In      -1.22764282      -2.12054592       6.67999178       11      -0.02441550       0.01726437       0.02990276
In       4.04534124       2.73235596       1.72548084       12       0.02441550       0.03452873      -0.00000000
In       1.59005560       4.85290188       1.94741244       13      -0.02441550       0.01726437      -0.02990276
In       4.22654763       0.00000000      -0.00000000       14       0.00000000       0.00000000       0.00000000
In       1.40884921       1.99241366       3.45096169       15      -0.00000000      -0.00000000       0.00000000
O        0.85990877       3.98409078       3.74800262       16      -0.14324824      -0.05204450       0.03581468
O       -1.95778965       3.24623376       5.02855993       17      -0.14324824       0.05703867       0.02716451
O       -0.41041085       2.15207172       0.02178080       18      -0.04304086      -0.01381865       0.14989299
O       -0.85990877      -0.73933011       1.87463918       19       0.14324824       0.00499418       0.06297920
O        3.71317508       4.73673258       1.85285838       20       0.10152599       0.08154658      -0.08691379
O        1.92222175       2.75615752       1.57759824       21      -0.10152599       0.11604284       0.02716451
O        1.92222175       5.96540237       0.27526013       22      -0.10152599      -0.03449626      -0.11407831
O       -2.16579629       5.64682280       3.47274248       23      -0.00131861       0.04518553       0.14989299
O        3.22810927       1.83275560       6.88014257       24       0.04304086       0.01381865      -0.14989299
O        4.98349471      -1.66199548       3.42918089       25       0.00131861      -0.04518553      -0.14989299
O        6.04580769       3.08731225       1.59810331       26       0.04304086       0.12290181       0.08691379
O        3.46960055       2.17648548       3.72622182       27      -0.00131861       0.10721838      -0.11407831
O        0.65190213       4.13117368       6.60488244       28      -0.00131861      -0.15240390      -0.03581468
O        2.16579629      -0.14634636       0.29704093       29       0.00131861       0.15240390       0.03581468
O       -3.22810927       0.89751508       5.30382006       30      -0.04304086      -0.12290181      -0.08691379
O        4.77548806       0.73859356       1.87336344       31       0.14324824      -0.05703867      -0.02716451
O        0.89547667       1.22866980       5.32432513       32       0.10152599      -0.11604285      -0.02716451
O        3.22810927      -0.93524052       5.32560086       33       0.04304086      -0.13672046       0.06297920
O        1.95778965       0.00073655       3.15392075       34       0.14324824       0.05204450      -0.03581468
O        0.89547667      -1.98057505       6.62666324       35       0.10152599       0.03449626       0.11407831
O       -0.65190213       1.80834185       3.17570155       36       0.00131861      -0.10721838       0.11407831
O       -0.89547667      -0.75190525       5.04906499       37      -0.10152599      -0.08154658       0.08691379
O       -0.41041085       4.92006785       1.57632251       38      -0.04304086       0.13672046      -0.06297920
O        3.67760719       4.72415743       5.02728419       39      -0.14324824      -0.00499418      -0.06297920
40
Lattice="8.453095256860784 6.625298974160115e-10 9.036769567856647e-15 -2.817698419578234 7.9696546373019626 -1.1475493217876348e-09 -2.8176984186412817 -3.9848273179884424 6.90192337605698" Properties=species:S:1:pos:R:3:spacegroup_kinds:I:1:forces:R:3 spacegroup="P 1" unit_cell=conventional occupancy="_JSON {\"0\": {\"In\": 1}, \"1\": {\"In\": 1}, \"2\": {\"In\": 1}, \"3\": {\"In\": 1}, \"4\": {\"In\": 1}, \"5\": {\"In\": 1}, \"6\": {\"In\": 1}, \"7\": {\"In\": 1}, \"8\": {\"In\": 1}, \"9\": {\"In\": 1}, \"10\": {\"In\": 1}, \"11\": {\"In\": 1}, \"12\": {\"In\": 1}, \"13\": {\"In\": 1}, \"14\": {\"In\": 1}, \"15\": {\"In\": 1}, \"16\": {\"O\": 1}, \"17\": {\"O\": 1}, \"18\": {\"O\": 1}, \"19\": {\"O\": 1}, \"20\": {\"O\": 1}, \"21\": {\"O\": 1}, \"22\": {\"O\": 1}, \"23\": {\"O\": 1}, \"24\": {\"O\": 1}, \"25\": {\"O\": 1}, \"26\": {\"O\": 1}, \"27\": {\"O\": 1}, \"28\": {\"O\": 1}, \"29\": {\"O\": 1}, \"30\": {\"O\": 1}, \"31\": {\"O\": 1}, \"32\": {\"O\": 1}, \"33\": {\"O\": 1}, \"34\": {\"O\": 1}, \"35\": {\"O\": 1}, \"36\": {\"O\": 1}, \"37\": {\"O\": 1}, \"38\": {\"O\": 1}, \"39\": {\"O\": 1}}" n_minim_iter=3 energy=-45146.65936940034 stress="-0.08373955975480324 2.6196775033656672e-12 8.155205799527778e-13 2.6196775033656672e-12 -0.08373955975276515 5.16860352542364e-13 8.155205799527778e-13 5.16860352542364e-13 -0.08373955975161249" free_energy=-45146.65936940034 pbc="T T T"
In      -4.04652243       2.86132345       5.39692747        0       0.02494381      -0.01763793       0.03054980
In       6.86422085       1.12350387       1.50499590        1      -0.02494381       0.01763793      -0.03054980
In       1.22882401      -0.86890979       4.95595759        2      -0.02494381       0.01763793      -0.03054980
In      -1.40884921      -1.99241366       3.45096169        3       0.00000000       0.00000000      -0.00000000
In      -1.22882401       3.85753028       3.23047675        4       0.02494381      -0.01763793      -0.03054980
In       4.40657283      -2.73402641       5.17644253        5       0.02494381       0.03527587       0.00000000
In      -1.22882401       1.25080091       5.17644253        6       0.02494381       0.03527587       0.00000000
In      -1.58887441       6.71885373       1.72548084        7      -0.02494381      -0.03527587      -0.00000000
In       4.04652243       0.12729704       3.67144662        8      -0.02494381       0.01763793       0.03054980
In      -1.40884921       3.98482732      -0.00000000        9      -0.00000000       0.00000000      -0.00000000
In       4.04652243       6.10453802       0.22048494       10      -0.02494381       0.01763793       0.03054980
In      -1.22882401      -2.11971070       6.68143844       11       0.02494381      -0.01763793      -0.03054980
In       4.04652243       2.73402641       1.72548084       12      -0.02494381      -0.03527587      -0.00000000
In       1.58887441       4.85373711       1.94596578       13       0.02494381      -0.01763793       0.03054980
In       4.22654763       0.00000000      -0.00000000       14       0.00000000      -0.00000000       0.00000000
In       1.40884921       1.99241366       3.45096169       15      -0.00000000      -0.00000000      -0.00000000
O        0.85595877       3.98249927       3.74974704       16      -0.10147734       0.00887177      -0.04080554
O       -1.96173965       3.24854022       5.02906600       17      -0.10147734      -0.03977452       0.01271959
O       -0.41105345       2.15203950       0.02633759       18      -0.06296117      -0.06700957       0.05989207
O       -0.85595878      -0.73861514       1.87688967       19       0.10147734      -0.03090275      -0.02808595
O        3.71666631       4.73864848       1.85055207       20      -0.00367399       0.06548145      -0.08797802
O        1.91873053       2.75911280       1.57810431       21       0.00367400       0.10893193       0.01271959
O        1.91873053       5.96436301       0.27244776       22       0.00367399      -0.04345048      -0.10069761
O       -2.16598011       5.64743939       3.47729928       23       0.04219017       0.08169688       0.05989207
O        3.22875186       1.83278783       6.87558578       24       0.06296117       0.06700957      -0.05989207
O        4.98367852      -1.66261206       3.42462409       25      -0.04219017      -0.08169688      -0.05989207
O        6.04645028       3.09124244       1.60040961       26       0.06296117       0.01836327       0.08797802
O        3.46941673       2.18012349       3.72340945       27       0.04219017       0.01101962      -0.10069761
O        0.65171831       4.12691909       6.60313802       28       0.04219017      -0.09271650       0.04080554
O        2.16598011      -0.14209177       0.29878535       29      -0.04219017       0.09271650      -0.04080554
O       -3.22875186       0.89358489       5.30151376       30      -0.06296117      -0.01836327      -0.08797802
O        4.77943806       0.73628710       1.87285737       31       0.10147734       0.03977452      -0.01271959
O        0.89896789       1.22571453       5.32381906       32      -0.00367400      -0.10893193      -0.01271959
O        3.22875186      -0.93920294       5.32785136       33       0.06296117      -0.08537284      -0.02808595
O        1.96173964       0.00232805       3.15217633       34       0.10147734      -0.00887177       0.04080554
O        0.89896789      -1.97953568       6.62947561       35      -0.00367399       0.04345048       0.10069761
O       -0.65171831       1.80470384       3.17851392       36      -0.04219017      -0.01101962       0.10069761
O       -0.89896789      -0.75382116       5.05137130       37       0.00367399      -0.06548145       0.08797802
O       -0.41105345       4.92403026       1.57407202       38      -0.06296117       0.08537284       0.02808595
O        3.67365719       4.72344246       5.02503370       39      -0.10147734       0.03090275       0.02808595
40
Lattice="8.453095256860786 6.625298974160115e-10 9.036769567856647e-15 -2.8176984195782344 7.969654637301963 -1.1475493217876348e-09 -2.817698418641282 -3.984827317988443 6.901923376056981" Properties=species:S:1:pos:R:3:spacegroup_kinds:I:1:forces:R:3 spacegroup="P 1" unit_cell=conventional occupancy="_JSON {\"0\": {\"In\": 1}, \"1\": {\"In\": 1}, \"2\": {\"In\": 1}, \"3\": {\"In\": 1}, \"4\": {\"In\": 1}, \"5\": {\"In\": 1}, \"6\": {\"In\": 1}, \"7\": {\"In\": 1}, \"8\": {\"In\": 1}, \"9\": {\"In\": 1}, \"10\": {\"In\": 1}, \"11\": {\"In\": 1}, \"12\": {\"In\": 1}, \"13\": {\"In\": 1}, \"14\": {\"In\": 1}, \"15\": {\"In\": 1}, \"16\": {\"O\": 1}, \"17\": {\"O\": 1}, \"18\": {\"O\": 1}, \"19\": {\"O\": 1}, \"20\": {\"O\": 1}, \"21\": {\"O\": 1}, \"22\": {\"O\": 1}, \"23\": {\"O\": 1}, \"24\": {\"O\": 1}, \"25\": {\"O\": 1}, \"26\": {\"O\": 1}, \"27\": {\"O\": 1}, \"28\": {\"O\": 1}, \"29\": {\"O\": 1}, \"30\": {\"O\": 1}, \"31\": {\"O\": 1}, \"32\": {\"O\": 1}, \"33\": {\"O\": 1}, \"34\": {\"O\": 1}, \"35\": {\"O\": 1}, \"36\": {\"O\": 1}, \"37\": {\"O\": 1}, \"38\": {\"O\": 1}, \"39\": {\"O\": 1}}" n_minim_iter=4 energy=-45146.665183467536 stress="-0.08178127350492347 -1.8533491320925373e-12 -1.527618159161275e-13 -1.8533491320925373e-12 -0.08178127350855151 1.2061037942902504e-12 -1.527618159161275e-13 1.2061037942902504e-12 -0.08178127350585017" free_energy=-45146.665183467536 pbc="T T T"
In      -4.04690767       2.86159586       5.39645565        0       0.02581931      -0.01825701       0.03162207
In       6.86460609       1.12323146       1.50546772        1      -0.02581931       0.01825701      -0.03162207
In       1.22920925      -0.86918219       4.95642941        2      -0.02581931       0.01825701      -0.03162207
In      -1.40884921      -1.99241366       3.45096169        3      -0.00000000      -0.00000000      -0.00000000
In      -1.22920925       3.85780269       3.23094857        4       0.02581931      -0.01825701      -0.03162207
In       4.40618759      -2.73457122       5.17644253        5       0.02581931       0.03651402       0.00000000
In      -1.22920925       1.25025610       5.17644253        6       0.02581931       0.03651402       0.00000000
In      -1.58848917       6.71939854       1.72548084        7      -0.02581931      -0.03651402       0.00000000
In       4.04690767       0.12702463       3.67097480        8      -0.02581931       0.01825701       0.03162207
In      -1.40884921       3.98482732      -0.00000000        9      -0.00000000       0.00000000       0.00000000
In       4.04690767       6.10426561       0.22001311       10      -0.02581931       0.01825701       0.03162207
In      -1.22920925      -2.11943829       6.68191026       11       0.02581931      -0.01825701      -0.03162207
In       4.04690767       2.73457123       1.72548084       12      -0.02581931      -0.03651402      -0.00000000
In       1.58848917       4.85400952       1.94549396       13       0.02581931      -0.01825701       0.03162207
In       4.22654763       0.00000000      -0.00000000       14      -0.00000000      -0.00000000       0.00000000
In       1.40884921       1.99241366       3.45096169       15      -0.00000000      -0.00000000       0.00000000
O        0.85195848       3.98186753       3.75023303       16      -0.04393511       0.03687778      -0.03965133
O       -1.96573994       3.24927698       5.02937011       17      -0.04393511      -0.05277795      -0.01211143
O       -0.41228788       2.15082049       0.03002918       18      -0.02963586      -0.06288905       0.00540150
O       -0.85195849      -0.73851014       1.87767977       19       0.04393511      -0.01590017      -0.05176276
O        3.71869435       4.74067482       1.84765059       20      -0.03511450       0.01901872      -0.05716426
O        1.91670248       2.76263872       1.57840843       21       0.03511449       0.05901506      -0.01211143
O        1.91670248       5.96286342       0.26924216       22       0.03511450      -0.03999634      -0.04505283
O       -2.16524230       5.64900955       3.48099087       23       0.04941374       0.04890397       0.00540150
O        3.22998629       1.83400683       6.87189419       24       0.02963586       0.06288905      -0.00540150
O        4.98294071      -1.66418223       3.42093250       25      -0.04941374      -0.04890397      -0.00540150
O        6.04768471       3.09382994       1.60331109       26       0.02963586      -0.02676669       0.05716426
O        3.47015454       2.18253541       3.72020385       27       0.04941374      -0.01977415      -0.04505283
O        0.65245612       4.12293700       6.60265203       28       0.04941374      -0.02912982       0.03965133
O        2.16524229      -0.13810968       0.29927134       29      -0.04941374       0.02912982      -0.03965133
O       -3.22998630       0.89099738       5.29861228       30      -0.02963586       0.02676669      -0.05716426
O        4.78343835       0.73555035       1.87255326       31       0.04393511       0.05277795       0.01211143
O        0.90099593       1.22218860       5.32351495       32      -0.03511449      -0.05901507       0.01211143
O        3.22998629      -0.94300945       5.32864146       33       0.02963586      -0.03612236      -0.05176276
O        1.96573993       0.00295980       3.15169034       34       0.04393511      -0.03687778       0.03965133
O        0.90099593      -1.97803609       6.63268121       35      -0.03511450       0.03999634       0.04505283
O       -0.65245613       1.80229191       3.18171952       36      -0.04941374       0.01977415       0.04505283
O       -0.90099594      -0.75584749       5.05427278       37       0.03511450      -0.01901872       0.05716426
O       -0.41228788       4.92783677       1.57328191       38      -0.02963586       0.03612236       0.05176276
O        3.66965690       4.72333746       5.02424360       39      -0.04393510       0.01590017       0.05176276
40
Lattice="8.453095256860784 6.625298974160114e-10 9.036769567856646e-15 -2.817698419578234 7.9696546373019626 -1.1475493217876346e-09 -2.8176984186412817 -3.9848273179884424 6.90192337605698" Properties=species:S:1:pos:R:3:spacegroup_kinds:I:1:forces:R:3 spacegroup="P 1" unit_cell=conventional occupancy="_JSON {\"0\": {\"In\": 1}, \"1\": {\"In\": 1}, \"2\": {\"In\": 1}, \"3\": {\"In\": 1}, \"4\": {\"In\": 1}, \"5\": {\"In\": 1}, \"6\": {\"In\": 1}, \"7\": {\"In\": 1}, \"8\": {\"In\": 1}, \"9\": {\"In\": 1}, \"10\": {\"In\": 1}, \"11\": {\"In\": 1}, \"12\": {\"In\": 1}, \"13\": {\"In\": 1}, \"14\": {\"In\": 1}, \"15\": {\"In\": 1}, \"16\": {\"O\": 1}, \"17\": {\"O\": 1}, \"18\": {\"O\": 1}, \"19\": {\"O\": 1}, \"20\": {\"O\": 1}, \"21\": {\"O\": 1}, \"22\": {\"O\": 1}, \"23\": {\"O\": 1}, \"24\": {\"O\": 1}, \"25\": {\"O\": 1}, \"26\": {\"O\": 1}, \"27\": {\"O\": 1}, \"28\": {\"O\": 1}, \"29\": {\"O\": 1}, \"30\": {\"O\": 1}, \"31\": {\"O\": 1}, \"32\": {\"O\": 1}, \"33\": {\"O\": 1}, \"34\": {\"O\": 1}, \"35\": {\"O\": 1}, \"36\": {\"O\": 1}, \"37\": {\"O\": 1}, \"38\": {\"O\": 1}, \"39\": {\"O\": 1}}" n_minim_iter=5 energy=-45146.66700420177 stress="-0.0810929272294649 1.5189387682957553e-12 -6.871942936761425e-13 1.5189387682957553e-12 -0.08109292722923175 2.213555075332663e-13 -6.871942936761425e-13 2.213555075332663e-13 -0.08109292722897975" free_energy=-45146.66700420177 pbc="T T T"
In      -4.04680991       2.86152673       5.39657538        0       0.01005083      -0.00710701       0.01230970
In       6.86450833       1.12330059       1.50534799        1      -0.01005083       0.00710701      -0.01230970
In       1.22911149      -0.86911307       4.95630968        2      -0.01005083       0.00710701      -0.01230970
In      -1.40884921      -1.99241366       3.45096169        3      -0.00000000      -0.00000000       0.00000000
In      -1.22911149       3.85773356       3.23082883        4       0.01005083      -0.00710701      -0.01230970
In       4.40628535      -2.73443296       5.17644253        5       0.01005083       0.01421402       0.00000000
In      -1.22911149       1.25039435       5.17644253        6       0.01005083       0.01421402      -0.00000000
In      -1.58858693       6.71926029       1.72548084        7      -0.01005083      -0.01421402      -0.00000000
In       4.04680991       0.12709376       3.67109454        8      -0.01005083       0.00710701       0.01230970
In      -1.40884921       3.98482732      -0.00000000        9      -0.00000000       0.00000000       0.00000000
In       4.04680991       6.10433474       0.22013285       10      -0.01005083       0.00710701       0.01230970
In      -1.22911149      -2.11950742       6.68179052       11       0.01005083      -0.00710701      -0.01230970
In       4.04680991       2.73443297       1.72548084       12      -0.01005083      -0.01421402      -0.00000000
In       1.58858693       4.85394039       1.94561369       13       0.01005083      -0.00710701       0.01230970
In       4.22654763       0.00000000      -0.00000000       14      -0.00000000      -0.00000000      -0.00000000
In       1.40884921       1.99241366       3.45096169       15      -0.00000000       0.00000000       0.00000000
O        0.84972598       3.98223485       3.75004420       16      -0.00749999       0.02420975      -0.01210202
O       -1.96797244       3.24892978       5.02914641       17      -0.00749999      -0.02258553      -0.01491525
O       -0.41301306       2.14940746       0.03165156       18      -0.00096866      -0.02720387      -0.00691605
O       -0.84972598      -0.73849000       1.87726724       19       0.00749999       0.00162422      -0.02701727
O        3.71911119       4.74159136       1.84561568       20      -0.01879384      -0.00561720      -0.02010122
O        1.91628565       2.76485928       1.57818473       21       0.01879384       0.01459957      -0.01491525
O        1.91628565       5.96155941       0.26743095       22       0.01879384      -0.02021677      -0.00518597
O       -2.16415181       5.65016427       3.48261325       23       0.02532517       0.00998122      -0.00691605
O        3.23071148       1.83541986       6.87027181       24       0.00096866       0.02720387       0.00691605
O        4.98185023      -1.66533695       3.41931012       25      -0.02532517      -0.00998122       0.00691605
O        6.04840990       3.09452845       1.60534600       26       0.00096866      -0.01959141       0.02010122
O        3.47124503       2.18336307       3.71839264       27       0.02532517      -0.01098008      -0.00518597
O        0.65354661       4.12095461       6.60284085       28       0.02532517       0.00099886       0.01210202
O        2.16415181      -0.13612729       0.29908252       29      -0.02532517      -0.00099886      -0.01210202
O       -3.23071148       0.89029887       5.29657737       30      -0.00096866       0.01959141      -0.02010122
O        4.78567086       0.73589754       1.87277696       31       0.00749999       0.02258553       0.01491525
O        0.90141277       1.21996805       5.32373865       32      -0.01879384      -0.01459957       0.01491525
O        3.23071148      -0.94512099       5.32822893       33       0.00096866      -0.00761247      -0.02701727
O        1.96797244       0.00259247       3.15187917       34       0.00749999      -0.02420975       0.01210202
O        0.90141277      -1.97673209       6.63449242       35      -0.01879384       0.02021677       0.00518597
O       -0.65354661       1.80146425       3.18353073       36      -0.02532517       0.01098008       0.00518597
O       -0.90141277      -0.75676404       5.05630769       37       0.01879384       0.00561720       0.02010122
O       -0.41301306       4.92994831       1.57369444       38      -0.00096866       0.00761247       0.02701727
O        3.66742440       4.72331733       5.02465613       39      -0.00749999      -0.00162422       0.02701727
40