40
Lattice="8.997407895541945 7.051935401553827e-10 -1.154643458598117e-15 -2.99913596584551 8.48283751448372 -1.2214326502169645e-09 -2.999135964848218 -4.241418756536665 7.346352784532845" Properties=species:S:1:pos:R:3:spacegroup_kinds:I:1:forces:R:3 spacegroup="P 1" unit_cell=conventional occupancy="_JSON {\"0\": {\"In\": 1}, \"1\": {\"In\": 1}, \"2\": {\"In\": 1}, \"3\": {\"In\": 1}, \"4\": {\"In\": 1}, \"5\": {\"In\": 1}, \"6\": {\"In\": 1}, \"7\": {\"In\": 1}, \"8\": {\"In\": 1}, \"9\": {\"In\": 1}, \"10\": {\"In\": 1}, \"11\": {\"In\": 1}, \"12\": {\"In\": 1}, \"13\": {\"In\": 1}, \"14\": {\"In\": 1}, \"15\": {\"In\": 1}, \"16\": {\"O\": 1}, \"17\": {\"O\": 1}, \"18\": {\"O\": 1}, \"19\": {\"O\": 1}, \"20\": {\"O\": 1}, \"21\": {\"O\": 1}, \"22\": {\"O\": 1}, \"23\": {\"O\": 1}, \"24\": {\"O\": 1}, \"25\": {\"O\": 1}, \"26\": {\"O\": 1}, \"27\": {\"O\": 1}, \"28\": {\"O\": 1}, \"29\": {\"O\": 1}, \"30\": {\"O\": 1}, \"31\": {\"O\": 1}, \"32\": {\"O\": 1}, \"33\": {\"O\": 1}, \"34\": {\"O\": 1}, \"35\": {\"O\": 1}, \"36\": {\"O\": 1}, \"37\": {\"O\": 1}, \"38\": {\"O\": 1}, \"39\": {\"O\": 1}}" n_minim_iter=3 energy=-45149.904365422124 stress="0.014279959125955399 9.597048270384029e-14 1.9065705034577776e-12 9.597048270384029e-14 0.014279959125300364 -8.871650714898239e-14 1.9065705034577776e-12 -8.871650714898239e-14 0.014279959127994646" free_energy=-45149.904365422124 pbc="T T T"
In      -4.29433577       3.03655395       5.76006346        0       0.00191718      -0.00135565       0.00234806
In       7.29347174       1.20486481       1.58628932        1      -0.00191718       0.00135565      -0.00234806
In       1.29519981      -0.91584456       5.25946571        2      -0.00191718       0.00135565      -0.00234806
In      -1.49956798      -2.12070938       3.67317639        3      -0.00000000      -0.00000000      -0.00000000
In      -1.29519981       4.09690864       3.42287752        4       0.00191718      -0.00135565      -0.00234806
In       4.70307212      -2.89204382       5.50976459        5       0.00191718       0.00271131      -0.00000000
In      -1.29519981       1.34937494       5.50976459        6       0.00191718       0.00271131      -0.00000000
In      -1.70393616       7.13346258       1.83658819        7      -0.00191718      -0.00271131      -0.00000000
In       4.29433577       0.14451012       3.92347526        8      -0.00191718       0.00135565       0.00234806
In      -1.49956798       4.24141876      -0.00000000        9       0.00000000       0.00000000      -0.00000000
In       4.29433577       6.50663826       0.25029887       10      -0.00191718       0.00135565       0.00234806
In      -1.29519981      -2.26521950       7.09605391       11       0.00191718      -0.00135565      -0.00234806
In       4.29433577       2.89204383       1.83658819       12      -0.00191718      -0.00271131      -0.00000000
In       1.70393616       5.15726333       2.08688707       13       0.00191718      -0.00135565       0.00234806
In       4.49870395       0.00000000      -0.00000000       14      -0.00000000       0.00000000       0.00000000
In       1.49956798       2.12070938       3.67317639       15       0.00000000      -0.00000000       0.00000000
O        0.88232790       4.24117542       3.99706984       16      -0.00395815      -0.00044471       0.00027195
O       -2.11680806       3.46168570       5.34802860       17      -0.00395815       0.00045787       0.00024915
O       -0.44125951       2.27689395       0.05379532       18      -0.00130697      -0.00141679       0.00349617
O       -0.88232790      -0.77997640       1.99874566       19       0.00395815       0.00001316       0.00052111
O        3.96931126       5.05245391       1.94495034       20       0.00175107       0.00200535      -0.00297506
O        2.02896067       2.96255993       1.67485221       21      -0.00175107       0.00357916       0.00024915
O        2.02896067       6.33131274       0.27009813       22      -0.00175107      -0.00157381      -0.00322422
O       -2.29376271       6.01918694       3.72697171       23       0.00090011       0.00170449       0.00349617
O        3.44039547       1.96452481       7.29255746       24       0.00130697       0.00141679      -0.00349617
O        5.29289867      -1.77776818       3.61938107       25      -0.00090011      -0.00170449      -0.00349617
O        6.43953143       3.30574447       1.72822605       26       0.00130697       0.00231938       0.00297506
O        3.70450922       2.33876809       3.94327452       27       0.00090011       0.00217553      -0.00322422
O        0.70537326       4.36630124       7.02245933       28       0.00090011      -0.00388002      -0.00027195
O        2.29376270      -0.12488248       0.32389345       29      -0.00090011       0.00388002       0.00027195
O       -3.44039547       0.93567429       5.61812673       30      -0.00130697      -0.00231938      -0.00297506
O        5.11594403       0.77973306       1.99832418       31       0.00395815      -0.00045787      -0.00024915
O        0.97017529       1.27885883       5.67150057       32       0.00175107      -0.00357916      -0.00024915
O        3.44039547      -1.02885052       5.67192205       33       0.00130697      -0.00373617       0.00052111
O        2.11680806       0.00024335       3.34928294       34       0.00395815       0.00044471      -0.00027195
O        0.97017529      -2.08989398       7.07625465       35       0.00175107       0.00157381       0.00322422
O       -0.70537326       1.90265067       3.40307826       36      -0.00090011      -0.00217553       0.00322422
O       -0.97017530      -0.81103515       5.40140244       37      -0.00175107      -0.00200535       0.00297506
O       -0.44125951       5.27026928       1.67443073       38      -0.00130697       0.00373617      -0.00052111
O        3.88146387       5.02139517       5.34760712       39      -0.00395815      -0.00001316      -0.00052111
