10
Lattice="6.137836760232232 0.07016832881273966 0.048450245041801954 3.426626189165646 5.092759237324153 0.04845024504180083 3.4266261891656464 1.8497037318758909 4.745222879895057" Properties=species:S:1:pos:R:3:spacegroup_kinds:I:1:forces:R:3 spacegroup="P 1" unit_cell=conventional occupancy="_JSON {\"0\": {\"In\": 1}, \"1\": {\"In\": 1}, \"2\": {\"In\": 1}, \"3\": {\"In\": 1}, \"4\": {\"O\": 1}, \"5\": {\"O\": 1}, \"6\": {\"O\": 1}, \"7\": {\"O\": 1}, \"8\": {\"O\": 1}, \"9\": {\"O\": 1}}" n_minim_iter=5 energy=-11287.392427943294 stress="0.04601439019939427 0.0003151862275637369 0.00021763165949069727 0.0003151862275637369 0.04560063771941503 0.00011747826278981389 0.00021763165949069727 0.00011747826278981389 0.04551161627983249" free_energy=-11287.392427943294 pbc="T T T"
In      11.09432463       5.98875178       4.13514895        0      -0.00158074      -0.00085329      -0.00058918
In       8.39230909       4.53019518       3.12803611        1       0.00158074       0.00085329       0.00058918
In       4.59878006       2.48243613       1.71408726        2      -0.00158074      -0.00085329      -0.00058918
In       1.89676452       1.02387953       0.70697443        3       0.00158074       0.00085329       0.00058918
O        6.31669067       2.44419222       0.28477252        4       0.00000000      -0.00384844       0.00557352
O        7.48162611       5.35050606       1.25898109        5       0.00321731      -0.00596016      -0.00000000
O        8.57838142       2.35315964       2.65738396        6      -0.00321731       0.00211172       0.00557352
O        4.41270773       4.65947167       2.18473942        7       0.00321731      -0.00211172      -0.00557352
O        6.67439848       4.56843909       4.55735086        8      -0.00000000       0.00384844      -0.00557352
O        5.50946304       1.66212525       3.58314228        9      -0.00321731       0.00596016      -0.00000000
