10
Lattice="5.829997297468584 2.363321415501948e-15 2.746367412409986e-15 3.199046878222897 4.8739068066001545 5.259213631596729e-16 3.199046878222898 1.7268556949118574 4.557733753563694" Properties=species:S:1:pos:R:3:spacegroup_kinds:I:1:forces:R:3 spacegroup="P 1" unit_cell=conventional occupancy="_JSON {\"0\": {\"In\": 1}, \"1\": {\"In\": 1}, \"2\": {\"In\": 1}, \"3\": {\"In\": 1}, \"4\": {\"O\": 1}, \"5\": {\"O\": 1}, \"6\": {\"O\": 1}, \"7\": {\"O\": 1}, \"8\": {\"O\": 1}, \"9\": {\"O\": 1}}" n_minim_iter=1 energy=-11287.663395748667 stress="-0.00873442384835849 0.0028599409082422826 0.0019747490078598426 0.0028599409082422826 -0.01248873651692254 0.0010659758071443345 0.0019747490078598426 0.0010659758071443345 -0.013296500414659027" free_energy=-11287.663395748667 pbc="T T T"
In      10.48210307       5.65827263       3.90695774        0      -0.01326234      -0.00715906      -0.00494323
In       7.86003352       4.24287113       2.92964289        1       0.01326234       0.00715906       0.00494323
In       4.36805755       2.35789138       1.62809086        2      -0.01326234      -0.00715906      -0.00494323
In       1.74598799       0.94248988       0.65077602        3       0.01326234       0.00715906       0.00494323
O        5.97202142       2.28992003       0.21294188        4       0.00000000       0.06086184      -0.08814348
O        7.03672789       5.07790693       1.13943344        5      -0.05088080       0.09425805       0.00000000
O        8.10636183       2.16258498       2.49180876        6       0.05088080      -0.03339622      -0.08814348
O        4.12172924       4.43817753       2.06592500        7      -0.05088080       0.03339622       0.08814348
O        6.25606965       4.31084248       4.34479188        8       0.00000000      -0.06086184       0.08814348
O        5.19136318       1.52285558       3.41830032        9       0.05088080      -0.09425805      -0.00000000
10
Lattice="5.809840819393766 -0.02085513094917725 -0.014400174864688024 3.170551584919916 4.8684995563872375 -0.014400174864690219 3.170551584919916 1.7114738448197544 4.557779346795626" Properties=species:S:1:pos:R:3:spacegroup_kinds:I:1:forces:R:3 spacegroup="P 1" unit_cell=conventional occupancy="_JSON {\"0\": {\"In\": 1}, \"1\": {\"In\": 1}, \"2\": {\"In\": 1}, \"3\": {\"In\": 1}, \"4\": {\"O\": 1}, \"5\": {\"O\": 1}, \"6\": {\"O\": 1}, \"7\": {\"O\": 1}, \"8\": {\"O\": 1}, \"9\": {\"O\": 1}}" n_minim_iter=2 energy=-11287.667081248323 stress="-0.010034103346682446 -0.00010519348606780223 -7.263462325650342e-05 -0.00010519348606780223 -0.009896013347268886 -3.920840131907968e-05 -7.263462325650342e-05 -3.920840131907968e-05 -0.009866302422529333" free_energy=-11287.667081248323 pbc="T T T"
In      10.41584397       5.62250576       3.88226122        0       0.04697240       0.02535585       0.01750786
In       7.81057202       4.21617166       2.91120728        1      -0.04697240      -0.02535585      -0.01750786
In       4.34037197       2.34294662       1.61777172        2       0.04697240       0.02535585       0.01750786
In       1.73510003       0.93661253       0.64671779        3      -0.04697240      -0.02535585      -0.01750786
O        5.94265641       2.27169964       0.19476124        4      -0.00000000       0.04893604      -0.07087188
O        6.99092638       5.05841960       1.11784458        5      -0.04091077       0.07578831       0.00000000
O        8.06493803       2.13261875       2.47365091        6       0.04091077      -0.02685227      -0.07087188
O        4.08600597       4.42649953       2.05532809        7      -0.04091077       0.02685227       0.07087188
O        6.20828759       4.28741864       4.33421777        8      -0.00000000      -0.04893604       0.07087188
O        5.16001762       1.50069868       3.41113442        9       0.04091077      -0.07578831      -0.00000000
10
Lattice="5.79663389477285 -0.03458594167261324 -0.023881106724251623 3.1518256306434087 4.86499289736482 -0.023881106724253875 3.151825630643408 1.7013655150527933 4.557859320213566" Properties=species:S:1:pos:R:3:spacegroup_kinds:I:1:forces:R:3 spacegroup="P 1" unit_cell=conventional occupancy="_JSON {\"0\": {\"In\": 1}, \"1\": {\"In\": 1}, \"2\": {\"In\": 1}, \"3\": {\"In\": 1}, \"4\": {\"O\": 1}, \"5\": {\"O\": 1}, \"6\": {\"O\": 1}, \"7\": {\"O\": 1}, \"8\": {\"O\": 1}, \"9\": {\"O\": 1}}" n_minim_iter=3 energy=-11287.67242503019 stress="-0.006727904860444125 -0.002058433245039735 -0.0014213192307180882 -0.002058433245039735 -0.004025750425206346 -0.0007672326476745161 -0.0014213192307180882 -0.0007672326476745161 -0.003444364965180099" free_energy=-11287.67242503019 pbc="T T T"
In      10.38098908       5.60369098       3.86926987        0       0.02146024       0.01158430       0.00799880
In       7.76943866       4.19396774       2.89587579        1      -0.02146024      -0.01158430      -0.00799880
In       4.33084650       2.33780474       1.61422132        2       0.02146024       0.01158430       0.00799880
In       1.71929608       0.92808151       0.64082724        3      -0.02146024      -0.01158430      -0.00799880
O        5.92338824       2.26950167       0.16863974        4      -0.00000000       0.00091524      -0.00132549
O        6.95267793       5.06078073       1.10364317        5      -0.00076514       0.00141745      -0.00000000
O        8.04592418       2.10755030       2.44756940        6       0.00076514      -0.00050221      -0.00132549
O        4.05436098       4.42422218       2.06252771        7      -0.00076514       0.00050221       0.00132549
O        6.17689692       4.26227081       4.34145737        8       0.00000000      -0.00091524       0.00132549
O        5.14760724       1.47099176       3.40645394        9       0.00076514      -0.00141745      -0.00000000
10
Lattice="5.80764421840955 -0.02313520475678708 -0.01597453378930902 3.167440108902662 4.867914313321437 -0.01597453378931129 3.1674401089026616 1.7097942601545375 4.557789873997276" Properties=species:S:1:pos:R:3:spacegroup_kinds:I:1:forces:R:3 spacegroup="P 1" unit_cell=conventional occupancy="_JSON {\"0\": {\"In\": 1}, \"1\": {\"In\": 1}, \"2\": {\"In\": 1}, \"3\": {\"In\": 1}, \"4\": {\"O\": 1}, \"5\": {\"O\": 1}, \"6\": {\"O\": 1}, \"7\": {\"O\": 1}, \"8\": {\"O\": 1}, \"9\": {\"O\": 1}}" n_minim_iter=4 energy=-11287.67374952427 stress="-0.005415350798702442 -0.00010618104558801418 -7.33165185930074e-05 -0.00010618104558801418 -0.0052759644078236075 -3.957649049981438e-05 -7.33165185930074e-05 -3.957649049981438e-05 -0.005245974551064708" free_energy=-11287.67374952427 pbc="T T T"
In      10.41776455       5.62354249       3.88297707        0      -0.01362285      -0.00735366      -0.00507760
In       7.79602211       4.20831757       2.90578415        1       0.01362285       0.00735366       0.00507760
In       4.34650233       2.34625581       1.62005666        2      -0.01362285      -0.00735366      -0.00507760
In       1.72475990       0.93103089       0.64286374        3       0.01362285       0.00735366       0.00507760
O        5.93945322       2.28038403       0.17731569        4       0.00000000       0.00400694      -0.00580308
O        6.97700429       5.07282572       1.11548567        5      -0.00334982       0.00620564      -0.00000000
O        8.06934226       2.12348835       2.45621062        6       0.00334982      -0.00219870      -0.00580308
O        4.07318218       4.43108503       2.06963019        7      -0.00334982       0.00219870       0.00580308
O        6.20307122       4.27418935       4.34852513        8       0.00000000      -0.00400694       0.00580308
O        5.16552015       1.48174766       3.41035514        9       0.00334982      -0.00620564      -0.00000000
10
Lattice="5.809810070448576 -0.02088703835363239 -0.014422206479102232 3.1705080375527506 4.868491358405628 -0.014422206479104475 3.1705080375527497 1.711450337812246 4.557779486560573" Properties=species:S:1:pos:R:3:spacegroup_kinds:I:1:forces:R:3 spacegroup="P 1" unit_cell=conventional occupancy="_JSON {\"0\": {\"In\": 1}, \"1\": {\"In\": 1}, \"2\": {\"In\": 1}, \"3\": {\"In\": 1}, \"4\": {\"O\": 1}, \"5\": {\"O\": 1}, \"6\": {\"O\": 1}, \"7\": {\"O\": 1}, \"8\": {\"O\": 1}, \"9\": {\"O\": 1}}" n_minim_iter=5 energy=-11287.673791142508 stress="-0.005128252877655805 0.00016689779705277813 0.00011524058468086476 0.00016689779705277813 -0.005347343594533091 6.220723587105925e-05 0.00011524058468086476 6.220723587105925e-05 -0.005394482337614316" free_energy=-11287.673791142508 pbc="T T T"
In      10.42444385       5.62714800       3.88546662        0      -0.01106249      -0.00597157      -0.00412328
In       7.80179537       4.21143400       2.90793599        1       0.01106249       0.00597157       0.00412328
In       4.34903078       2.34762067       1.62099908        2      -0.01106249      -0.00597157      -0.00412328
In       1.72638230       0.93190667       0.64346846        3       0.01106249       0.00597157       0.00412328
O        5.94261158       2.28272704       0.17872261        4       0.00000000       0.00182171      -0.00263830
O        6.98161418       5.07551135       1.11781156        5      -0.00152296       0.00282132       0.00000000
O        8.07411701       2.12650669       2.45761236        6       0.00152296      -0.00099961      -0.00263830
O        4.07670914       4.43254798       2.07132272        7      -0.00152296       0.00099961       0.00263830
O        6.20821458       4.27632763       4.35021246        8      -0.00000000      -0.00182171       0.00263830
O        5.16921198       1.48354332       3.41112351        9       0.00152296      -0.00282132      -0.00000000
10
Lattice="5.809491602282425 -0.021217521467644683 -0.01465040042538824 3.1700570015818217 4.868406460735316 -0.01465040042539049 3.17005700158182 1.7112068671584355 4.557780946793274" Properties=species:S:1:pos:R:3:spacegroup_kinds:I:1:forces:R:3 spacegroup="P 1" unit_cell=conventional occupancy="_JSON {\"0\": {\"In\": 1}, \"1\": {\"In\": 1}, \"2\": {\"In\": 1}, \"3\": {\"In\": 1}, \"4\": {\"O\": 1}, \"5\": {\"O\": 1}, \"6\": {\"O\": 1}, \"7\": {\"O\": 1}, \"8\": {\"O\": 1}, \"9\": {\"O\": 1}}" n_minim_iter=6 energy=-11287.67381612358 stress="-0.005223896055724916 1.1738987521526686e-05 8.10560653900754e-06 1.1738987521526686e-05 -0.005239306106465201 4.3754307895039976e-06 8.10560653900754e-06 4.3754307895039976e-06 -0.0052426216714713215" free_energy=-11287.67381612358 pbc="T T T"
In      10.42267806       5.62619482       3.88480846        0       0.00003381       0.00001825       0.00001260
In       7.80173036       4.21139890       2.90791176        1      -0.00003381      -0.00001825      -0.00001260
In       4.34787526       2.34699692       1.62056839        2       0.00003381       0.00001825       0.00001260
In       1.72692755       0.93220100       0.64367169        3      -0.00003381      -0.00001825      -0.00001260
O        5.94214721       2.28239392       0.17849937        4      -0.00000000       0.00049825      -0.00072159
O        6.98092694       5.07513405       1.11746964        5      -0.00041654       0.00077165       0.00000000
O        8.07342448       2.12605673       2.45738984        6       0.00041654      -0.00027340      -0.00072159
O        4.07618114       4.43233908       2.07109031        7      -0.00041654       0.00027340       0.00072159
O        6.20745841       4.27600190       4.34998078        8      -0.00000000      -0.00049825       0.00072159
O        5.16867868       1.48326177       3.41101051        9       0.00041654      -0.00077165       0.00000000
