10
Lattice="5.745240082123222 0.017141028892942146 0.011835639585321186 3.1668687281840464 4.793643694994104 0.011835639585315466 3.166868728184042 1.709485827022592 4.478483913572765" Properties=species:S:1:pos:R:3:spacegroup_kinds:I:1:forces:R:3 spacegroup="P 1" unit_cell=conventional occupancy="_JSON {\"0\": {\"In\": 1}, \"1\": {\"In\": 1}, \"2\": {\"In\": 1}, \"3\": {\"In\": 1}, \"4\": {\"O\": 1}, \"5\": {\"O\": 1}, \"6\": {\"O\": 1}, \"7\": {\"O\": 1}, \"8\": {\"O\": 1}, \"9\": {\"O\": 1}}" n_minim_iter=1 energy=-11287.762871803274 stress="0.01108762590903507 0.00015476414759094722 0.00010686247050006078 0.00015476414759094722 0.010884463319317694 5.768470073286947e-05 0.00010686247050006078 5.768470073286947e-05 0.010840751613493347" free_energy=-11287.762871803274 pbc="T T T"
In      10.37203576       5.59885794       3.86593273        0       0.02413827       0.01302991       0.00899697
In       7.74643056       4.18154789       2.88730006        1      -0.02413827      -0.01302991      -0.00899697
In       4.33254699       2.33872267       1.61485514        2       0.02413827       0.01302991       0.00899697
In       1.70694179       0.92141262       0.63622246        3      -0.02413827      -0.01302991      -0.00899697
O        5.89236443       2.31084694       0.15792662        4      -0.00000000       0.08330635      -0.12064887
O        6.91382890       5.07652444       1.13737444        5      -0.06964453       0.12901837      -0.00000000
O        8.03776869       2.12452543       2.39716858        6       0.06964453      -0.04571202      -0.12064887
O        4.04120886       4.39574514       2.10498662        7      -0.06964453       0.04571202       0.12064887
O        6.18661312       4.20942362       4.34422858        8       0.00000000      -0.08330635       0.12064887
O        5.16514865       1.44374613       3.36478076        9       0.06964453      -0.12901837      -0.00000000
10
Lattice="5.739400671862885 0.011140436113357516 0.007692314591180179 3.1586479907272973 4.792054575249677 0.007692314591174452 3.1586479907272924 1.7050482467576071 4.478465886897428" Properties=species:S:1:pos:R:3:spacegroup_kinds:I:1:forces:R:3 spacegroup="P 1" unit_cell=conventional occupancy="_JSON {\"0\": {\"In\": 1}, \"1\": {\"In\": 1}, \"2\": {\"In\": 1}, \"3\": {\"In\": 1}, \"4\": {\"O\": 1}, \"5\": {\"O\": 1}, \"6\": {\"O\": 1}, \"7\": {\"O\": 1}, \"8\": {\"O\": 1}, \"9\": {\"O\": 1}}" n_minim_iter=2 energy=-11287.766425243108 stress="0.012828505414290026 -0.000565132734487329 -0.0003902162118285808 -0.000565132734487329 0.013570368638743254 -0.00021063995319853945 -0.0003902162118285808 -0.00021063995319853945 0.013729985158389142" free_energy=-11287.766425243108 pbc="T T T"
In      10.35422784       5.58924517       3.85929525        0       0.07882893       0.04255211       0.02938163
In       7.73081715       4.17311972       2.88148053        1      -0.07882893      -0.04255211      -0.02938163
In       4.32587952       2.33512354       1.61236999        2       0.07882893       0.04255211       0.02938163
In       1.70246882       0.91899810       0.63455527        3      -0.07882893      -0.04255211      -0.02938163
O        5.88387450       2.31004394       0.14624190        4       0.00000000      -0.00856146       0.01239919
O        6.89687794       5.07778248       1.13115495        5       0.00715743      -0.01325933      -0.00000000
O        8.02951906       2.11344391       2.38547485        6      -0.00715743       0.00469786       0.01239919
O        4.02717760       4.39479936       2.10837567        7       0.00715743      -0.00469786      -0.01239919
O        6.17282216       4.19819933       4.34760862        8       0.00000000       0.00856146      -0.01239919
O        5.15981872       1.43046079       3.36269557        9      -0.00715743       0.01325933      -0.00000000
10
Lattice="5.744279817842542 0.016154947663281592 0.01115476435262648 3.1655174413712888 4.793381993580455 0.011154764352620755 3.165517441371284 1.70875639809676 4.478480427233385" Properties=species:S:1:pos:R:3:spacegroup_kinds:I:1:forces:R:3 spacegroup="P 1" unit_cell=conventional occupancy="_JSON {\"0\": {\"In\": 1}, \"1\": {\"In\": 1}, \"2\": {\"In\": 1}, \"3\": {\"In\": 1}, \"4\": {\"O\": 1}, \"5\": {\"O\": 1}, \"6\": {\"O\": 1}, \"7\": {\"O\": 1}, \"8\": {\"O\": 1}, \"9\": {\"O\": 1}}" n_minim_iter=3 energy=-11287.766780378666 stress="0.014329787808474057 0.0006977096569311308 0.00048175871565549926 0.0006977096569311308 0.013413887694596336 0.0002600548890100423 0.00048175871565549926 0.0002600548890100423 0.013216826043679115" free_energy=-11287.766780378666 pbc="T T T"
In      10.37134754       5.59848644       3.86567622        0       0.04924810       0.02658428       0.01835607
In       7.74162452       4.17895358       2.88550872        1      -0.04924810      -0.02658428      -0.01835607
In       4.33369019       2.33933977       1.61528124        2       0.04924810       0.02658428       0.01835607
In       1.70396717       0.91980691       0.63511374        3      -0.04924810      -0.02658428      -0.01835607
O        5.89096859       2.31468357       0.15025854        4      -0.00000000      -0.00973178       0.01409411
O        6.90772455       5.08287722       1.13635226        5       0.00813582      -0.01507183      -0.00000000
O        8.03973006       2.12052635       2.38949875        6      -0.00813582       0.00534004       0.01409411
O        4.03558465       4.39776700       2.11129121        7       0.00813582      -0.00534004      -0.01409411
O        6.18434612       4.20360979       4.35053142        8      -0.00000000       0.00973178      -0.01409411
O        5.16759016       1.43541613       3.36443770        9      -0.00813582       0.01507183       0.00000000
10
Lattice="5.737889810197612 0.009586234161860262 0.006619159983273736 3.1565196273454936 4.791644311928602 0.006619159983268012 3.156519627345488 1.7038993494245525 4.478462462982938" Properties=species:S:1:pos:R:3:spacegroup_kinds:I:1:forces:R:3 spacegroup="P 1" unit_cell=conventional occupancy="_JSON {\"0\": {\"In\": 1}, \"1\": {\"In\": 1}, \"2\": {\"In\": 1}, \"3\": {\"In\": 1}, \"4\": {\"O\": 1}, \"5\": {\"O\": 1}, \"6\": {\"O\": 1}, \"7\": {\"O\": 1}, \"8\": {\"O\": 1}, \"9\": {\"O\": 1}}" n_minim_iter=4 energy=-11287.767591416143 stress="0.013926236132426679 -6.874393712655416e-05 -4.746672256500423e-05 -6.874393712655416e-05 0.01401647794258065 -2.5622688246482652e-05 -4.746672256500423e-05 -2.5622688246482652e-05 0.014035894031670637" free_energy=-11287.767591416143 pbc="T T T"
In      10.35444658       5.58936325       3.85937678        0       0.00388837       0.00209896       0.00144930
In       7.72194703       4.16833161       2.87817440        1      -0.00388837      -0.00209896      -0.00144930
In       4.32898205       2.33679830       1.61352639        2       0.00388837       0.00209896       0.00144930
In       1.69648250       0.91576666       0.63232401        3      -0.00388837      -0.00209896      -0.00144930
O        5.88167718       2.30862443       0.14497102        4      -0.00000000       0.01351585      -0.01957440
O        6.89350278       5.07623244       1.12954436        5      -0.01129932       0.02093229       0.00000000
O        8.02637119       2.11123942       2.38420225        6       0.01129932      -0.00741644      -0.01957440
O        4.02455788       4.39389048       2.10749854        7      -0.01129932       0.00741644       0.01957440
O        6.16925190       4.19650547       4.34672977        8       0.00000000      -0.01351585       0.01957440
O        5.15742629       1.42889747       3.36215643        9       0.01129932      -0.02093229      -0.00000000
10
Lattice="5.73708889550481 0.008762070832688137 0.006050086785600475 3.155391143304792 4.791426979675644 0.006050086785594746 3.155391143304785 1.7032901901447781 4.478460855391096" Properties=species:S:1:pos:R:3:spacegroup_kinds:I:1:forces:R:3 spacegroup="P 1" unit_cell=conventional occupancy="_JSON {\"0\": {\"In\": 1}, \"1\": {\"In\": 1}, \"2\": {\"In\": 1}, \"3\": {\"In\": 1}, \"4\": {\"O\": 1}, \"5\": {\"O\": 1}, \"6\": {\"O\": 1}, \"7\": {\"O\": 1}, \"8\": {\"O\": 1}, \"9\": {\"O\": 1}}" n_minim_iter=5 energy=-11287.767698604754 stress="0.014431517109436803 -3.6508614111271e-05 -2.5208684498939666e-05 -3.6508614111271e-05 0.01447944283532688 -1.3607729006053598e-05 -2.5208684498939666e-05 -1.3607729006053598e-05 0.014489754356575424" free_energy=-11287.767698604754 pbc="T T T"
In      10.35279811       5.58847340       3.85876235        0       0.00123856       0.00066858       0.00046164
In       7.71900867       4.16674547       2.87707919        1      -0.00123856      -0.00066858      -0.00046164
In       4.32886252       2.33673378       1.61348184        2       0.00123856       0.00066858       0.00046164
In       1.69507308       0.91500585       0.63179868        3      -0.00123856      -0.00066858      -0.00046164
O        5.88051225       2.30861660       0.14321845        4      -0.00000000       0.00075027      -0.00108658
O        6.89109067       5.07656420       1.12869035        5      -0.00062723       0.00116195      -0.00000000
O        8.02532497       2.10966184       2.38244887        6       0.00062723      -0.00041169      -0.00108658
O        4.02254622       4.39381741       2.10811216        7      -0.00062723       0.00041169       0.00108658
O        6.16735894       4.19486265       4.34734259        8      -0.00000000      -0.00075027       0.00108658
O        5.15678052       1.42691505       3.36187069        9       0.00062723      -0.00116195      -0.00000000
