10
Lattice="5.684930654914517 0.008682411234077788 0.005995082952138593 3.1267041814315126 4.74786614146506 0.00599508295213321 3.126704181431506 1.6878048767478877 4.437745321254477" Properties=species:S:1:pos:R:3:spacegroup_kinds:I:1:forces:R:3 spacegroup="P 1" unit_cell=conventional occupancy="_JSON {\"0\": {\"In\": 1}, \"1\": {\"In\": 1}, \"2\": {\"In\": 1}, \"3\": {\"In\": 1}, \"4\": {\"O\": 1}, \"5\": {\"O\": 1}, \"6\": {\"O\": 1}, \"7\": {\"O\": 1}, \"8\": {\"O\": 1}, \"9\": {\"O\": 1}}" n_minim_iter=1 energy=-11287.81174118473 stress="0.011672014491340687 0.00018932928343060894 0.00013072920881084055 0.00018932928343060894 0.011423477419247792 7.056804506578364e-05 0.00013072920881084055 7.056804506578364e-05 0.01137000311423909" free_energy=-11287.81174118473 pbc="T T T"
In      10.25867656       5.53766629       3.82368075        0       0.12004632       0.06480139       0.04474445
In       7.64883198       4.12886387       2.85092248        1      -0.12004632      -0.06480139      -0.04474445
In       4.28950705       2.31548957       1.59881301        2       0.12004632       0.06480139       0.04474445
In       1.67966247       0.90668715       0.62605474        3      -0.12004632      -0.06480139      -0.04474445
O        5.82705009       2.28762802       0.14191639        4       0.00000000       0.04058469      -0.05877699
O        6.82844092       5.03041106       1.11842896        5      -0.03392900       0.06285439       0.00000000
O        7.95236343       2.09048203       2.36078905        6       0.03392900      -0.02226970      -0.05877699
O        3.98597560       4.35387141       2.08894644        7      -0.03392900       0.02226970       0.05877699
O        6.11128894       4.15672542       4.30781910        8       0.00000000      -0.04058469       0.05877699
O        5.10989810       1.41394238       3.33130653        9       0.03392900      -0.06285439       0.00000000
10
Lattice="5.676019392604187 -0.000500485277065896 -0.0003455780510007878 3.114137429862578 4.745455137669436 -0.00034557805100617414 3.1141374298625726 1.681021304221619 4.437737256509276" Properties=species:S:1:pos:R:3:spacegroup_kinds:I:1:forces:R:3 spacegroup="P 1" unit_cell=conventional occupancy="_JSON {\"0\": {\"In\": 1}, \"1\": {\"In\": 1}, \"2\": {\"In\": 1}, \"3\": {\"In\": 1}, \"4\": {\"O\": 1}, \"5\": {\"O\": 1}, \"6\": {\"O\": 1}, \"7\": {\"O\": 1}, \"8\": {\"O\": 1}, \"9\": {\"O\": 1}}" n_minim_iter=2 energy=-11287.817700730464 stress="0.014032855006070523 2.5839476684669694e-05 1.78417927825718e-05 2.5839476684669694e-05 0.01399893490909397 9.631057933392026e-06 1.78417927825718e-05 9.631057933392026e-06 0.013991636785218023" free_energy=-11287.817700730464 pbc="T T T"
In      10.23797200       5.52648990       3.81596362        0       0.06077398       0.03280599       0.02265207
In       7.61846939       4.11247405       2.83960554        1      -0.06077398      -0.03280599      -0.02265207
In       4.28582487       2.31350192       1.59744057        2       0.06077398       0.03280599       0.02265207
In       1.66632226       0.89948607       0.62108249        3      -0.06077398      -0.03280599      -0.02265207
O        5.81408326       2.28230576       0.12997828        4      -0.00000000       0.00663536      -0.00960970
O        6.80596077       5.02600333       1.10891595        5      -0.00554720       0.01027633      -0.00000000
O        7.93634319       2.07578441       2.34884691        6       0.00554720      -0.00364097      -0.00960970
O        3.96795107       4.35019156       2.08819919        7      -0.00554720       0.00364097       0.00960970
O        6.09021100       4.14367021       4.30706782        8      -0.00000000      -0.00663536       0.00960970
O        5.09833349       1.39997264       3.32813016        9       0.00554720      -0.01027633      -0.00000000
10
Lattice="5.670617696712953 -0.006078493829530684 -0.004197114574457335 3.106510158363086 4.744000068122715 -0.00419711457446274 3.10651015836308 1.6769040787707523 4.437741201638632" Properties=species:S:1:pos:R:3:spacegroup_kinds:I:1:forces:R:3 spacegroup="P 1" unit_cell=conventional occupancy="_JSON {\"0\": {\"In\": 1}, \"1\": {\"In\": 1}, \"2\": {\"In\": 1}, \"3\": {\"In\": 1}, \"4\": {\"O\": 1}, \"5\": {\"O\": 1}, \"6\": {\"O\": 1}, \"7\": {\"O\": 1}, \"8\": {\"O\": 1}, \"9\": {\"O\": 1}}" n_minim_iter=3 energy=-11287.818751916235 stress="0.015484774000061223 -0.0002239751311410323 -0.0001546516804623904 -0.0002239751311410323 0.01577879150140174 -8.348147022549368e-05 -0.0001546516804623904 -8.348147022549368e-05 0.015842051208679396" free_energy=-11287.818751916235 pbc="T T T"
In      10.22645768       5.52027443       3.81167192        0       0.00537768       0.00290289       0.00200440
In       7.59899935       4.10196406       2.83234854        1      -0.00537768      -0.00290289      -0.00200440
In       4.28463868       2.31286161       1.59699844        2       0.00537768       0.00290289       0.00200440
In       1.65718034       0.89455123       0.61767505        3      -0.00537768      -0.00290289      -0.00200440
O        5.80621836       2.27911016       0.12267947        4      -0.00000000      -0.01138504       0.01648844
O        6.79229172       5.02338668       1.10313963        5       0.00951795      -0.01763226      -0.00000000
O        7.92665515       2.06684272       2.34155007        6      -0.00951795       0.00624722       0.01648844
O        3.95698287       4.34798294       2.08779690        7       0.00951795      -0.00624722      -0.01648844
O        6.07741967       4.13571551       4.30666750        8      -0.00000000       0.01138504      -0.01648844
O        5.09134631       1.39143898       3.32620735        9      -0.00951795       0.01763226      -0.00000000
10
Lattice="5.6729905883737395 -0.003627061568269455 -0.002504435045514135 3.109861625447362 4.744638662946061 -0.002504435045519569 3.1098616254473566 1.6787132113784018 4.4377386435053925" Properties=species:S:1:pos:R:3:spacegroup_kinds:I:1:forces:R:3 spacegroup="P 1" unit_cell=conventional occupancy="_JSON {\"0\": {\"In\": 1}, \"1\": {\"In\": 1}, \"2\": {\"In\": 1}, \"3\": {\"In\": 1}, \"4\": {\"O\": 1}, \"5\": {\"O\": 1}, \"6\": {\"O\": 1}, \"7\": {\"O\": 1}, \"8\": {\"O\": 1}, \"9\": {\"O\": 1}}" n_minim_iter=4 energy=-11287.818781468924 stress="0.015854113465171474 0.00034182398361817367 0.00023602465840638685 0.00034182398361817367 0.01540539296087394 0.0001274068619711254 0.00023602465840638685 0.0001274068619711254 0.015308847932382895" free_energy=-11287.818781468924 pbc="T T T"
In      10.23381046       5.52424349       3.81441250        0       0.00131556       0.00071014       0.00049034
In       7.60526030       4.10534374       2.83468216        1      -0.00131556      -0.00071014      -0.00049034
In       4.28745354       2.31438108       1.59804761        2       0.00131556       0.00071014       0.00049034
In       1.65890339       0.89548133       0.61831728        3      -0.00131556      -0.00071014      -0.00049034
O        5.80967376       2.28098863       0.12519997        4       0.00000000      -0.00675456       0.00978233
O        6.79790108       5.02527056       1.10567801        5       0.00564685      -0.01046093      -0.00000000
O        7.93130807       2.07051168       2.34406929        6      -0.00564685       0.00370637       0.00978233
O        3.96140578       4.34921314       2.08866049        7       0.00564685      -0.00370637      -0.00978233
O        6.08304009       4.13873620       4.30752981        8       0.00000000       0.00675456      -0.00978233
O        5.09481277       1.39445427       3.32705177        9      -0.00564685       0.01046093      -0.00000000
10
Lattice="5.671938545770801 -0.004713714975726241 -0.0032547539537397044 3.1083758990221617 4.744355420548477 -0.0032547539537451176 3.1083758990221564 1.6779112115215373 4.437739617886715" Properties=species:S:1:pos:R:3:spacegroup_kinds:I:1:forces:R:3 spacegroup="P 1" unit_cell=conventional occupancy="_JSON {\"0\": {\"In\": 1}, \"1\": {\"In\": 1}, \"2\": {\"In\": 1}, \"3\": {\"In\": 1}, \"4\": {\"O\": 1}, \"5\": {\"O\": 1}, \"6\": {\"O\": 1}, \"7\": {\"O\": 1}, \"8\": {\"O\": 1}, \"9\": {\"O\": 1}}" n_minim_iter=5 energy=-11287.818804596754 stress="0.015445844160636948 -6.654250585420893e-05 -4.594666327489979e-05 -6.654250585420893e-05 0.015533196094637785 -2.480215637620682e-05 -4.594666327489979e-05 -2.480215637620682e-05 0.01555199041248298" free_energy=-11287.818804596754 pbc="T T T"
In      10.23007613       5.52222768       3.81302062        0       0.00418046       0.00225662       0.00155817
In       7.60295939       4.10410170       2.83382455        1      -0.00418046      -0.00225662      -0.00155817
In       4.28573096       2.31345123       1.59740556        2       0.00418046       0.00225662       0.00155817
In       1.65861422       0.89532524       0.61820950        3      -0.00418046      -0.00225662      -0.00155817
O        5.80814186       2.27978289       0.12462287        4       0.00000000       0.00091616      -0.00132683
O        6.79572617       5.02385766       1.10455278        5      -0.00076591       0.00141888       0.00000000
O        7.92893346       2.06908992       2.34349268        6       0.00076591      -0.00050272      -0.00132683
O        3.95975690       4.34846301       2.08773744        7      -0.00076591       0.00050272       0.00132683
O        6.08054849       4.13777004       4.30660725        8      -0.00000000      -0.00091616       0.00132683
O        5.09296418       1.39369527       3.32667734        9       0.00076591      -0.00141888       0.00000000
