10
Lattice="5.084851248407702 -0.34393558310245964 -0.2374826871590265 2.5026371005809382 4.439685962605152 -0.23748268715902512 2.502637100580925 1.3509314786398474 4.235822660744134" Properties=species:S:1:pos:R:3:spacegroup_kinds:I:1:forces:R:3 spacegroup="P 1" unit_cell=conventional occupancy="_JSON {\"0\": {\"In\": 1}, \"1\": {\"In\": 1}, \"2\": {\"In\": 1}, \"3\": {\"In\": 1}, \"4\": {\"O\": 1}, \"5\": {\"O\": 1}, \"6\": {\"O\": 1}, \"7\": {\"O\": 1}, \"8\": {\"O\": 1}, \"9\": {\"O\": 1}}" n_minim_iter=1 energy=-11288.943437363943 stress="-0.17174727912858195 -0.0031779526153893 -0.002194331623805789 -0.0031779526153893 -0.16757550490633968 -0.0011845072001323482 -0.002194331623805789 -0.0011845072001323482 -0.16667792153824992" free_energy=-11288.943437363943 pbc="T T T"
In       8.86480439       4.78524965       3.30414764        0      -0.12035117      -0.06496595      -0.04485807
In       6.27038378       3.38477314       2.33713829        1       0.12035117       0.06496595       0.04485807
In       3.81974166       2.06190872       1.42371899        2      -0.12035117      -0.06496595      -0.04485807
In       1.22532105       0.66143221       0.45670964        3       0.12035117       0.06496595       0.04485807
O        5.06495698       1.85595173      -0.14342581        4      -0.00000000      -0.27104184       0.39253781
O        5.75928800       4.44138012       0.70273163        5       0.22659233      -0.41976842       0.00000000
O        6.87326306       1.49958300       1.97448552        6      -0.22659233       0.14872658       0.39253781
O        3.21686238       3.94709886       1.78637176        7       0.22659233      -0.14872658      -0.39253781
O        5.02516846       3.59073013       3.90428309        8       0.00000000       0.27104184      -0.39253781
O        4.33083744       1.00530174       3.05812565        9      -0.22659233       0.41976842      -0.00000000
10
Lattice="5.0946424147483365 -0.33263185378768323 -0.22967762090686203 2.517459701510952 4.441668823266252 -0.22967762090686064 2.5174597015109366 1.3589327658368682 4.234911508291035" Properties=species:S:1:pos:R:3:spacegroup_kinds:I:1:forces:R:3 spacegroup="P 1" unit_cell=conventional occupancy="_JSON {\"0\": {\"In\": 1}, \"1\": {\"In\": 1}, \"2\": {\"In\": 1}, \"3\": {\"In\": 1}, \"4\": {\"O\": 1}, \"5\": {\"O\": 1}, \"6\": {\"O\": 1}, \"7\": {\"O\": 1}, \"8\": {\"O\": 1}, \"9\": {\"O\": 1}}" n_minim_iter=2 energy=-11288.949948992538 stress="-0.16330398416491304 0.005335818687671099 0.0036843078235184153 0.005335818687671099 -0.17030844066804895 0.001988801098049208 0.0036843078235184153 0.001988801098049208 -0.17181549337900234" free_energy=-11288.949948992538 pbc="T T T"
In       8.89863614       4.80351214       3.31675763        0      -0.01130695      -0.00610353      -0.00421440
In       6.29570658       3.39844247       2.34657677        1       0.01130695       0.00610353       0.00421440
In       3.83385523       2.06952727       1.42897950        2      -0.01130695      -0.00610353      -0.00421440
In       1.23092567       0.66445760       0.45879863        3       0.01130695       0.00610353       0.00421440
O        5.07971166       1.86380138      -0.13132393        4      -0.00000000      -0.16783097       0.24306211
O        5.78406580       4.44850690       0.71421144        5       0.14030753      -0.25992349       0.00000000
O        6.89281721       1.51627178       1.98613183        6      -0.14030753       0.09209252       0.24306211
O        3.23674460       3.95169795       1.78942444        7       0.14030753      -0.09209252      -0.24306211
O        5.04985015       3.60416835       3.90688019        8       0.00000000       0.16783097      -0.24306211
O        4.34549600       1.01946283       3.06134482        9      -0.14030753       0.25992349      -0.00000000
10
Lattice="4.933602056287 -0.5251151956433896 -0.36258466368768344 2.2681763053312745 4.412658095346695 -0.36258466368768183 2.268176305331258 1.2243687945270838 4.254872519801094" Properties=species:S:1:pos:R:3:spacegroup_kinds:I:1:forces:R:3 spacegroup="P 1" unit_cell=conventional occupancy="_JSON {\"0\": {\"In\": 1}, \"1\": {\"In\": 1}, \"2\": {\"In\": 1}, \"3\": {\"In\": 1}, \"4\": {\"O\": 1}, \"5\": {\"O\": 1}, \"6\": {\"O\": 1}, \"7\": {\"O\": 1}, \"8\": {\"O\": 1}, \"9\": {\"O\": 1}}" n_minim_iter=3 energy=-11289.493013895966 stress="0.3155922098160075 0.074835280687015 0.0516727097313552 0.074835280687015 0.21735415128800054 0.027893093308255165 0.0516727097313552 0.027893093308255165 0.19621761737226928" free_energy=-11289.493013895966 pbc="T T T"
In       8.29822690       4.47940931       3.09296919        0      -2.82094283      -1.52275392      -1.05144019
In       5.90670509       3.18845823       2.20158560        1       2.82094283       1.52275392       1.05144019
In       3.56324956       1.92345347       1.32811759        2      -2.82094283      -1.52275392      -1.05144019
In       1.17172776       0.63250238       0.43673400        3       2.82094283       1.52275392       1.05144019
O        4.83428969       1.62438843      -0.18080787        4      -0.00000000       1.19735833      -1.73408066
O        5.45927747       4.16487158       0.51984113        5      -1.00099753       1.85437500      -0.00000000
O        6.47747821       1.29345062       1.94662839        6       1.00099753      -0.65701667      -1.73408066
O        2.99247644       3.81846107       1.58307480        7      -1.00099753       0.65701667       1.73408066
O        4.63566497       3.48752327       3.71051106        8       0.00000000      -1.19735833       1.73408066
O        4.01067718       0.94704012       3.00986206        9       1.00099753      -1.85437500      -0.00000000
10
Lattice="4.924291649669008 -0.5367128263824629 -0.3705926647434302 2.2533718047076894 4.411238422342622 -0.37059266474342833 2.2533718047076716 1.216377277933126 4.256382226685174" Properties=species:S:1:pos:R:3:spacegroup_kinds:I:1:forces:R:3 spacegroup="P 1" unit_cell=conventional occupancy="_JSON {\"0\": {\"In\": 1}, \"1\": {\"In\": 1}, \"2\": {\"In\": 1}, \"3\": {\"In\": 1}, \"4\": {\"O\": 1}, \"5\": {\"O\": 1}, \"6\": {\"O\": 1}, \"7\": {\"O\": 1}, \"8\": {\"O\": 1}, \"9\": {\"O\": 1}}" n_minim_iter=4 energy=-11289.503430990846 stress="0.33373235602940277 0.07001568502085352 0.04834484664749172 0.07001568502085352 0.24182109572887536 0.02609670221445107 0.04834484664749172 0.02609670221445107 0.22204581209730753" free_energy=-11289.503430990846 pbc="T T T"
In       8.26258881       4.46017176       3.07968593        0      -2.90815744      -1.56983265      -1.08394738
In       5.88396406       3.17618255       2.19310942        1       2.90815744       1.56983265       1.08394738
In       3.54707118       1.91472033       1.32208748        2      -2.90815744      -1.56983265      -1.08394738
In       1.16844643       0.63073111       0.43551097        3       2.90815744       1.56983265       1.08394738
O        4.81990463       1.61051405      -0.18434951        4       0.00000000       1.34753705      -1.95157780
O        5.43985050       4.14873813       0.50820656        5      -1.12654769       2.08696006       0.00000000
O        6.45333057       1.27995308       1.94384160        6       1.12654769      -0.73942302      -1.95157780
O        2.97770468       3.81094980       1.57135529        7      -1.12654769       0.73942302       1.95157780
O        4.61113061       3.48038882       3.69954641        8       0.00000000      -1.34753705       1.95157780
O        3.99118474       0.94216474       3.00699034        9       1.12654769      -2.08696006      -0.00000000
10
Lattice="4.837664447236397 -0.6475001407857588 -0.4470897485586594 2.113218819110047 4.399609068875528 -0.447089748558657 2.1132188191100307 1.1407222498728198 4.272610671573422" Properties=species:S:1:pos:R:3:spacegroup_kinds:I:1:forces:R:3 spacegroup="P 1" unit_cell=conventional occupancy="_JSON {\"0\": {\"In\": 1}, \"1\": {\"In\": 1}, \"2\": {\"In\": 1}, \"3\": {\"In\": 1}, \"4\": {\"O\": 1}, \"5\": {\"O\": 1}, \"6\": {\"O\": 1}, \"7\": {\"O\": 1}, \"8\": {\"O\": 1}, \"9\": {\"O\": 1}}" n_minim_iter=5 energy=-11290.398235832075 stress="0.31192553312796933 -0.05051004998259738 -0.034876479748695746 -0.05051004998259738 0.3782312809123467 -0.01882643486172273 -0.034876479748695746 -0.01882643486172273 0.392497378062808" free_energy=-11290.398235832075 pbc="T T T"
In       7.90326784       4.26620916       2.94575747        0      -1.57098551      -0.84802298      -0.58554795
In       5.69288528       3.07303761       2.12188929        1       1.57098551       0.84802298       0.58554795
In       3.37121679       1.81979357       1.25654188        2      -1.57098551      -0.84802298      -0.58554795
In       1.16083424       0.62662202       0.43267370        3       1.57098551       0.84802298       0.58554795
O        4.68485774       1.52683873      -0.28754501        4      -0.00000000       0.80702596      -1.16877970
O        5.21697350       4.07090093       0.39751804        5      -0.67467772       1.24985873       0.00000000
O        6.26596080       1.12556119       1.84876033        6       0.67467772      -0.44283277      -1.16877970
O        2.79814128       3.76726999       1.52967085        7      -0.67467772       0.44283277       1.16877970
O        4.37924433       3.36599245       3.66597618        8       0.00000000      -0.80702596       1.16877970
O        3.84712857       0.82193025       2.98091313        9       0.67467772      -1.24985873       0.00000000
10
Lattice="4.866020943915498 -0.6106368350627882 -0.4216361539590909 2.159596555678294 4.403087540313305 -0.4216361539590885 2.159596555678277 1.1657570998011475 4.266845124708752" Properties=species:S:1:pos:R:3:spacegroup_kinds:I:1:forces:R:3 spacegroup="P 1" unit_cell=conventional occupancy="_JSON {\"0\": {\"In\": 1}, \"1\": {\"In\": 1}, \"2\": {\"In\": 1}, \"3\": {\"In\": 1}, \"4\": {\"O\": 1}, \"5\": {\"O\": 1}, \"6\": {\"O\": 1}, \"7\": {\"O\": 1}, \"8\": {\"O\": 1}, \"9\": {\"O\": 1}}" n_minim_iter=6 energy=-11290.672136873602 stress="0.36720016215535867 0.006605201836101667 0.004560799050246202 0.006605201836101667 0.3585293561065889 0.0024619338540573087 0.004560799050246202 0.0024619338540573087 0.35666377784733466" free_energy=-11290.672136873602 pbc="T T T"
In       7.99168974       4.31393958       2.97871466        0      -0.37533651      -0.20260784      -0.13989787
In       5.78613134       3.12337213       2.15664456        1       0.37533651       0.20260784       0.13989787
In       3.39908271       1.83483568       1.26692825        2      -0.37533651      -0.20260784      -0.13989787
In       1.19352431       0.64426823       0.44485816        3       0.37533651       0.20260784       0.13989787
O        4.72931398       1.58128574      -0.29202173        4       0.00000000      -0.39514781       0.57227495
O        5.26817338       4.13788120       0.43425705        5       0.33034554      -0.61197405       0.00000000
O        6.35005113       1.16206040       1.84140083        6      -0.33034554       0.21682624       0.57227495
O        2.83516291       3.79614740       1.58217198        7       0.33034554      -0.21682624      -0.57227495
O        4.45590006       3.37692206       3.71559454        8       0.00000000       0.39514781      -0.57227495
O        3.91704066       0.82032661       2.98931576        9      -0.33034554       0.61197405      -0.00000000
10
Lattice="4.860666343027715 -0.6175512764369578 -0.42641047856641834 2.1508778617341884 4.402405172309015 -0.4264104785664161 2.1508778617341697 1.1610507210381276 4.267898595395767" Properties=species:S:1:pos:R:3:spacegroup_kinds:I:1:forces:R:3 spacegroup="P 1" unit_cell=conventional occupancy="_JSON {\"0\": {\"In\": 1}, \"1\": {\"In\": 1}, \"2\": {\"In\": 1}, \"3\": {\"In\": 1}, \"4\": {\"O\": 1}, \"5\": {\"O\": 1}, \"6\": {\"O\": 1}, \"7\": {\"O\": 1}, \"8\": {\"O\": 1}, \"9\": {\"O\": 1}}" n_minim_iter=7 energy=-11290.721631845176 stress="0.3809244490958479 0.0018078140627315142 0.0012482702054443895 0.0018078140627315142 0.37855128844061053 0.0006738202347875505 0.0012482702054443895 0.0006738202347875505 0.3780406880557584" free_energy=-11290.721631845176 pbc="T T T"
In       7.96491310       4.29948546       2.96873430        0      -0.29044094      -0.15678094      -0.10825504
In       5.77871999       3.11937146       2.15388216        1       0.29044094       0.15678094       0.10825504
In       3.38370207       1.82653316       1.26119548        2      -0.29044094      -0.15678094      -0.10825504
In       1.19750896       0.64641915       0.44634334        3       0.29044094       0.15678094       0.10825504
O        4.72093868       1.56796971      -0.28670914        4      -0.00000000      -0.07885635       0.11420414
O        5.26110938       4.12050199       0.42735893        5       0.06592430      -0.12212655       0.00000000
O        6.33164585       1.15689618       1.84724015        6      -0.06592430       0.04327020       0.11420414
O        2.83077620       3.78900843       1.56783748        7       0.06592430      -0.04327020      -0.11420414
O        4.44148337       3.37793491       3.70178678        8       0.00000000       0.07885635      -0.11420414
O        3.90131268       0.82540263       2.98771871        9      -0.06592430       0.12212655      -0.00000000
10
Lattice="4.856606379213315 -0.6228081897223205 -0.4300403033199627 2.1442552651806444 4.401895605480189 -0.4300403033199601 2.144255265180625 1.1574758223233128 4.268708154086224" Properties=species:S:1:pos:R:3:spacegroup_kinds:I:1:forces:R:3 spacegroup="P 1" unit_cell=conventional occupancy="_JSON {\"0\": {\"In\": 1}, \"1\": {\"In\": 1}, \"2\": {\"In\": 1}, \"3\": {\"In\": 1}, \"4\": {\"O\": 1}, \"5\": {\"O\": 1}, \"6\": {\"O\": 1}, \"7\": {\"O\": 1}, \"8\": {\"O\": 1}, \"9\": {\"O\": 1}}" n_minim_iter=8 energy=-11290.732465704776 stress="0.3943579266475588 0.00014605174285295378 0.00010084667417528415 0.00014605174285295378 0.3941662010421715 5.4437357660440856e-05 0.00010084667417528415 5.4437357660440856e-05 0.39412495007502363" free_energy=-11290.732465704776 pbc="T T T"
In       7.94128645       4.28673172       2.95992802        0      -0.05879413      -0.03173726      -0.02191413
In       5.77638890       3.11811313       2.15301330        1       0.05879413       0.03173726       0.02191413
In       3.36872799       1.81845011       1.25561424        2      -0.05879413      -0.03173726      -0.02191413
In       1.20383045       0.64983151       0.44869953        3       0.05879413       0.03173726       0.02191413
O        4.71458241       1.56067966      -0.28676759        4      -0.00000000       0.00858402      -0.01243185
O        5.25338656       4.11168070       0.42211658        5      -0.00717628       0.01329425       0.00000000
O        6.32003353       1.15142139       1.84758649        6       0.00717628      -0.00471024      -0.01243185
O        2.82508337       3.78514184       1.56104105        7      -0.00717628       0.00471024       0.01243185
O        4.43053449       3.37588357       3.69539513        8       0.00000000      -0.00858402       0.01243185
O        3.89173034       0.82488254       2.98651096        9       0.00717628      -0.01329425      -0.00000000
10
Lattice="4.855916709885829 -0.623702415267906 -0.4306577534935574 2.1431292515399147 4.401809719575965 -0.4306577534935542 2.1431292515398934 1.1568679965733122 4.268846606110593" Properties=species:S:1:pos:R:3:spacegroup_kinds:I:1:forces:R:3 spacegroup="P 1" unit_cell=conventional occupancy="_JSON {\"0\": {\"In\": 1}, \"1\": {\"In\": 1}, \"2\": {\"In\": 1}, \"3\": {\"In\": 1}, \"4\": {\"O\": 1}, \"5\": {\"O\": 1}, \"6\": {\"O\": 1}, \"7\": {\"O\": 1}, \"8\": {\"O\": 1}, \"9\": {\"O\": 1}}" n_minim_iter=9 energy=-11290.732780727416 stress="0.3969073243641867 0.00015743694857188242 0.00010870799981495906 0.00015743694857188242 0.3967006531260382 5.868092501298089e-05 0.00010870799981495906 5.868092501298089e-05 0.3966561865123263" free_energy=-11290.732780727416 pbc="T T T"
In       7.93704706       4.28444329       2.95834788        0      -0.00541372      -0.00292234      -0.00201784
In       5.77621575       3.11801966       2.15294876        1       0.00541372       0.00292234       0.00201784
In       3.36595946       1.81695564       1.25458234        2      -0.00541372      -0.00292234      -0.00201784
In       1.20512814       0.65053201       0.44918321        3       0.00541372       0.00292234       0.00201784
O        4.71350215       1.55987049      -0.28740100        4      -0.00000000       0.00170716      -0.00247240
O        5.25171410       4.11084774       0.42122502        5      -0.00142719       0.00264392       0.00000000
O        6.31841946       1.15025422       1.84702230        6       0.00142719      -0.00093676      -0.00247240
O        2.82375574       3.78472108       1.56050879        7      -0.00142719       0.00093676       0.00247240
O        4.42867305       3.37510481       3.69493209        8       0.00000000      -0.00170716       0.00247240
O        3.89046110       0.82412756       2.98630608        9       0.00142719      -0.00264392      -0.00000000
