10
Lattice="5.73708889550481 0.008762070832688137 0.006050086785600475 3.155391143304792 4.791426979675644 0.006050086785594746 3.155391143304785 1.7032901901447781 4.478460855391096" Properties=species:S:1:pos:R:3:spacegroup_kinds:I:1:forces:R:3 spacegroup="P 1" unit_cell=conventional occupancy="_JSON {\"0\": {\"In\": 1}, \"1\": {\"In\": 1}, \"2\": {\"In\": 1}, \"3\": {\"In\": 1}, \"4\": {\"O\": 1}, \"5\": {\"O\": 1}, \"6\": {\"O\": 1}, \"7\": {\"O\": 1}, \"8\": {\"O\": 1}, \"9\": {\"O\": 1}}" n_minim_iter=5 energy=-11287.767698604754 stress="0.014431517109436803 -3.6508614111271e-05 -2.5208684498939666e-05 -3.6508614111271e-05 0.01447944283532688 -1.3607729006053598e-05 -2.5208684498939666e-05 -1.3607729006053598e-05 0.014489754356575424" free_energy=-11287.767698604754 pbc="T T T"
In      10.35279811       5.58847340       3.85876235        0       0.00123856       0.00066858       0.00046164
In       7.71900867       4.16674547       2.87707919        1      -0.00123856      -0.00066858      -0.00046164
In       4.32886252       2.33673378       1.61348184        2       0.00123856       0.00066858       0.00046164
In       1.69507308       0.91500585       0.63179868        3      -0.00123856      -0.00066858      -0.00046164
O        5.88051225       2.30861660       0.14321845        4      -0.00000000       0.00075027      -0.00108658
O        6.89109067       5.07656420       1.12869035        5      -0.00062723       0.00116195      -0.00000000
O        8.02532497       2.10966184       2.38244887        6       0.00062723      -0.00041169      -0.00108658
O        4.02254622       4.39381741       2.10811216        7      -0.00062723       0.00041169       0.00108658
O        6.16735894       4.19486265       4.34734259        8      -0.00000000      -0.00075027       0.00108658
O        5.15678052       1.42691505       3.36187069        9       0.00062723      -0.00116195      -0.00000000
