10
Lattice="4.855916709885829 -0.623702415267906 -0.4306577534935574 2.1431292515399147 4.401809719575965 -0.4306577534935542 2.1431292515398934 1.1568679965733122 4.268846606110593" Properties=species:S:1:pos:R:3:spacegroup_kinds:I:1:forces:R:3 spacegroup="P 1" unit_cell=conventional occupancy="_JSON {\"0\": {\"In\": 1}, \"1\": {\"In\": 1}, \"2\": {\"In\": 1}, \"3\": {\"In\": 1}, \"4\": {\"O\": 1}, \"5\": {\"O\": 1}, \"6\": {\"O\": 1}, \"7\": {\"O\": 1}, \"8\": {\"O\": 1}, \"9\": {\"O\": 1}}" n_minim_iter=9 energy=-11290.732780727416 stress="0.3969073243641867 0.00015743694857188242 0.00010870799981495906 0.00015743694857188242 0.3967006531260382 5.868092501298089e-05 0.00010870799981495906 5.868092501298089e-05 0.3966561865123263" free_energy=-11290.732780727416 pbc="T T T"
In       7.93704706       4.28444329       2.95834788        0      -0.00541372      -0.00292234      -0.00201784
In       5.77621575       3.11801966       2.15294876        1       0.00541372       0.00292234       0.00201784
In       3.36595946       1.81695564       1.25458234        2      -0.00541372      -0.00292234      -0.00201784
In       1.20512814       0.65053201       0.44918321        3       0.00541372       0.00292234       0.00201784
O        4.71350215       1.55987049      -0.28740100        4      -0.00000000       0.00170716      -0.00247240
O        5.25171410       4.11084774       0.42122502        5      -0.00142719       0.00264392       0.00000000
O        6.31841946       1.15025422       1.84702230        6       0.00142719      -0.00093676      -0.00247240
O        2.82375574       3.78472108       1.56050879        7      -0.00142719       0.00093676       0.00247240
O        4.42867305       3.37510481       3.69493209        8       0.00000000      -0.00170716       0.00247240
O        3.89046110       0.82412756       2.98630608        9       0.00142719      -0.00264392      -0.00000000
