10
Lattice="6.421205243761455 0.1750158321089308 0.1208459727536273 3.669769701977663 5.272124586771933 0.12084597275361703 3.6697697019776676 1.980953374586231 4.8873024395152065" Properties=species:S:1:pos:R:3:spacegroup_kinds:I:1:forces:R:3 spacegroup="P 1" unit_cell=conventional occupancy="_JSON {\"0\": {\"In\": 1}, \"1\": {\"In\": 1}, \"2\": {\"In\": 1}, \"3\": {\"In\": 1}, \"4\": {\"O\": 1}, \"5\": {\"O\": 1}, \"6\": {\"O\": 1}, \"7\": {\"O\": 1}, \"8\": {\"O\": 1}, \"9\": {\"O\": 1}}" n_minim_iter=4 energy=-11286.89876808343 stress="0.029647449758617755 -0.0002089678313842115 -0.00014428935316167685 -0.0002089678313842115 0.0299217668152778 -7.788785324484031e-05 -0.00014428935316167685 -7.788785324484031e-05 0.029980787850122124" free_energy=-11286.89876808343 pbc="T T T"
In      11.68488882       6.30754021       4.35526788        0      -0.00282317      -0.00152396      -0.00105227
In       8.95622816       4.83460049       3.33822370        1       0.00282317       0.00152396       0.00105227
In       4.80451650       2.59349331       1.79077069        2      -0.00282317      -0.00152396      -0.00105227
In       2.07585584       1.12055360       0.77372651        3       0.00282317       0.00152396       0.00105227
O        6.65078879       2.60597891       0.38472662        4       0.00000000      -0.00105356       0.00152583
O        7.93270020       5.60499191       1.40309457        5       0.00088078      -0.00163167       0.00000000
O        9.03864708       2.57205735       2.82837784        6      -0.00088078       0.00057811       0.00152583
O        4.72209758       4.85603646       2.30061655        7       0.00088078      -0.00057811      -0.00152583
O        7.10995587       4.82211490       4.74426777        8      -0.00000000       0.00105356      -0.00152583
O        5.82804445       1.82310190       3.72589982        9      -0.00088078       0.00163167       0.00000000
