10
Lattice="6.207504478772586 0.09444763973448107 0.0652147680610624 3.4851520132545484 5.137679209053519 0.06521476806105998 3.4851520132545497 1.881296158143646 4.781289092542728" Properties=species:S:1:pos:R:3:spacegroup_kinds:I:1:forces:R:3 spacegroup="P 1" unit_cell=conventional occupancy="_JSON {\"0\": {\"In\": 1}, \"1\": {\"In\": 1}, \"2\": {\"In\": 1}, \"3\": {\"In\": 1}, \"4\": {\"O\": 1}, \"5\": {\"O\": 1}, \"6\": {\"O\": 1}, \"7\": {\"O\": 1}, \"8\": {\"O\": 1}, \"9\": {\"O\": 1}}" n_minim_iter=6 energy=-11287.240293685792 stress="0.044557906553975665 -8.314264714548226e-05 -5.740882967304666e-05 -8.314264714548226e-05 0.04466704989161613 -3.098946953369591e-05 -5.740882967304666e-05 -3.098946953369591e-05 0.04469053276360387" free_energy=-11287.240293685792 pbc="T T T"
In      11.23950326       6.06711967       4.18926087        0      -0.00027344      -0.00014760      -0.00010192
In       8.52720951       4.60301486       3.17831708        1       0.00027344       0.00014760       0.00010192
In       4.65059901       2.51040816       1.73340156        2      -0.00027344      -0.00014760      -0.00010192
In       1.93830525       1.04630335       0.72245776        3       0.00027344       0.00014760       0.00010192
O        6.39820437       2.48384754       0.30719691        4       0.00000000      -0.00070361       0.00101901
O        7.59046508       5.41389316       1.29314443        5       0.00058822      -0.00108970       0.00000000
O        8.69109568       2.40502164       2.69784146        6      -0.00058822       0.00038609       0.00101901
O        4.48671284       4.70840137       2.21387717        7       0.00058822      -0.00038609      -0.00101901
O        6.77960414       4.62957548       4.60452172        8       0.00000000       0.00070361      -0.00101901
O        5.58734344       1.69952986       3.61857421        9      -0.00058822       0.00108970      -0.00000000
