10
Lattice="5.927998749216272 -1.1270948114441171e-16 -1.3704558099446245e-16 3.2528224157194408 4.955836508855272 7.511328387056628e-16 3.25282241571944 1.7558839013457777 4.634348630336041" Properties=species:S:1:pos:R:3:spacegroup_kinds:I:1:forces:R:3 spacegroup="P 1" unit_cell=conventional occupancy="_JSON {\"0\": {\"In\": 1}, \"1\": {\"In\": 1}, \"2\": {\"In\": 1}, \"3\": {\"In\": 1}, \"4\": {\"O\": 1}, \"5\": {\"O\": 1}, \"6\": {\"O\": 1}, \"7\": {\"O\": 1}, \"8\": {\"O\": 1}, \"9\": {\"O\": 1}}" n_minim_iter=1 energy=-11287.660717742898 stress="0.007245269965685737 -0.005122587076305214 -0.003537074392999808 -0.005122587076305214 0.013969812244083208 -0.001909324024158792 -0.003537074392999808 -0.001909324024158792 0.015416639657445719" free_energy=-11287.660717742898 pbc="T T T"
In      10.65830578       5.75338741       3.97263316        0      -0.04971000      -0.02683361      -0.01852823
In       7.99215960       4.31419321       2.97888979        1       0.04971000       0.02683361       0.01852823
In       4.44148399       2.39752721       1.65545885        2      -0.04971000      -0.02683361      -0.01852823
In       1.77533781       0.95833301       0.66171547        3       0.04971000       0.02683361       0.01852823
O        6.07241027       2.32841327       0.21652141        4       0.00000000      -0.02855038       0.04134824
O        7.15501431       5.16326585       1.15858716        5       0.02386826      -0.04421659       0.00000000
O        8.24262865       2.19893774       2.53369572        6      -0.02386826       0.01566622       0.04134824
O        4.19101494       4.51278269       2.10065291        7       0.02386826      -0.01566622      -0.04134824
O        6.36123332       4.38330715       4.41782723        8       0.00000000       0.02855038      -0.04134824
O        5.27862928       1.54845457       3.47576148        9      -0.02386826       0.04421659      -0.00000000
10
Lattice="5.954892399876613 0.027642095099045774 0.019086478239942476 3.2906884786654342 4.963151913442533 0.019086478239943513 3.2906884786654307 1.7763241227402529 4.634427021815204" Properties=species:S:1:pos:R:3:spacegroup_kinds:I:1:forces:R:3 spacegroup="P 1" unit_cell=conventional occupancy="_JSON {\"0\": {\"In\": 1}, \"1\": {\"In\": 1}, \"2\": {\"In\": 1}, \"3\": {\"In\": 1}, \"4\": {\"O\": 1}, \"5\": {\"O\": 1}, \"6\": {\"O\": 1}, \"7\": {\"O\": 1}, \"8\": {\"O\": 1}, \"9\": {\"O\": 1}}" n_minim_iter=2 energy=-11287.672756926417 stress="0.0052291229166742444 -0.0019310554427442107 -0.0013333666484476754 -0.0019310554427442107 0.0077640654729540575 -0.0007197555642894248 -0.0013333666484476754 -0.0007197555642894248 0.008309474249162074" free_energy=-11287.672756926417 pbc="T T T"
In      10.74594373       5.80069466       4.00529815        0      -0.12643095      -0.06824783      -0.04712417
In       8.05846032       4.34998255       3.00360182        1       0.12643095       0.06824783       0.04712417
In       4.47780905       2.41713559       1.66899816        2      -0.12643095      -0.06824783      -0.04712417
In       1.79032564       0.96642349       0.66730184        3       0.12643095       0.06824783       0.04712417
O        6.11151354       2.35322604       0.23976618        4      -0.00000000      -0.01497295       0.02168466
O        7.21543967       5.19016823       1.18723648        5       0.01251746      -0.02318894       0.00000000
O        8.29827589       2.23839641       2.55697969        6      -0.01251746       0.00821599       0.02168466
O        4.23799347       4.52872173       2.11562030        7       0.01251746      -0.00821599      -0.02168466
O        6.42475582       4.41389210       4.43283381        8       0.00000000       0.01497295      -0.02168466
O        5.32082969       1.57694991       3.48536351        9      -0.01251746       0.02318894      -0.00000000
10
Lattice="5.967255219734153 0.04028057643193209 0.02781317200471381 3.3080380614017195 4.966552281673854 0.027813172004714802 3.3080380614017155 1.785689482765593 4.634514884028003" Properties=species:S:1:pos:R:3:spacegroup_kinds:I:1:forces:R:3 spacegroup="P 1" unit_cell=conventional occupancy="_JSON {\"0\": {\"In\": 1}, \"1\": {\"In\": 1}, \"2\": {\"In\": 1}, \"3\": {\"In\": 1}, \"4\": {\"O\": 1}, \"5\": {\"O\": 1}, \"6\": {\"O\": 1}, \"7\": {\"O\": 1}, \"8\": {\"O\": 1}, \"9\": {\"O\": 1}}" n_minim_iter=3 energy=-11287.674679454934 stress="0.0072196997660258395 0.0010855672167893306 0.0007495689069524537 0.0010855672167893306 0.005794649784695098 0.0004046196849584703 0.0007495689069524537 0.0004046196849584703 0.005488041346904468" free_energy=-11287.674679454934 pbc="T T T"
In      10.78458570       5.82155372       4.01970103        0      -0.14679829      -0.07924219      -0.05471562
In       8.09041133       4.36722981       3.01551081        1       0.14679829       0.07924219       0.05471562
In       4.49292003       2.42529255       1.67463042        2      -0.14679829      -0.07924219      -0.05471562
In       1.79874565       0.97096864       0.67044020        3       0.14679829       0.07924219       0.05471562
O        6.12946045       2.36453988       0.25047933        4       0.00000000      -0.01508404       0.02184555
O        7.24319538       5.20243793       1.20034848        5       0.01261033      -0.02336099       0.00000000
O        8.32376358       2.25649370       2.56773678        6      -0.01261033       0.00827694       0.02184555
O        4.25956777       4.53602865       2.12240446        7       0.01261033      -0.00827694      -0.02184555
O        6.45387090       4.42798248       4.43966190        8      -0.00000000       0.01508404      -0.02184555
O        5.34013597       1.59008442       3.48979275        9      -0.01261033       0.02336099       0.00000000
10
Lattice="5.972220819709837 0.04534497199410749 0.03131006597565103 3.3149966545249323 4.967924603529057 0.0313100659756521 3.314996654524928 1.7894457534989783 4.634559211172649" Properties=species:S:1:pos:R:3:spacegroup_kinds:I:1:forces:R:3 spacegroup="P 1" unit_cell=conventional occupancy="_JSON {\"0\": {\"In\": 1}, \"1\": {\"In\": 1}, \"2\": {\"In\": 1}, \"3\": {\"In\": 1}, \"4\": {\"O\": 1}, \"5\": {\"O\": 1}, \"6\": {\"O\": 1}, \"7\": {\"O\": 1}, \"8\": {\"O\": 1}, \"9\": {\"O\": 1}}" n_minim_iter=4 energy=-11287.681837705548 stress="0.0029993154611719663 6.038306186822983e-05 4.1693657862145403e-05 6.038306186822983e-05 0.0029200491759655287 2.2506367845268383e-05 4.1693657862145403e-05 2.2506367845268383e-05 0.0029029945352709086" free_energy=-11287.681837705548 pbc="T T T"
In      10.78708217       5.82290132       4.02063153        0      -0.02753533      -0.01486366      -0.01026315
In       8.11623904       4.38117169       3.02513748        1       0.02753533       0.01486366       0.01026315
In       4.48597510       2.42154365       1.67204186        2      -0.02753533      -0.01486366      -0.01026315
In       1.81513197       0.97981402       0.67654781        3       0.02753533       0.01486366       0.01026315
O        6.13666395       2.36752957       0.25701525        4      -0.00000000      -0.03240124       0.04692528
O        7.25562605       5.20496655       1.20560490        5       0.02708760      -0.05018052      -0.00000000
O        8.33269850       2.26459953       2.57429486        6      -0.02708760       0.01777927       0.04692528
O        4.26951564       4.53811582       2.12288449        7       0.02708760      -0.01777927      -0.04692528
O        6.46555019       4.43518577       4.44016410        8      -0.00000000       0.03240124      -0.04692528
O        5.34658809       1.59774879       3.49157444        9      -0.02708760       0.05018052       0.00000000
10
Lattice="5.975418254825685 0.048602433508432984 0.03355929737753455 3.3194744110899173 4.968810234932131 0.03355929737753569 3.3194744110899133 1.791862860755928 4.63459047440552" Properties=species:S:1:pos:R:3:spacegroup_kinds:I:1:forces:R:3 spacegroup="P 1" unit_cell=conventional occupancy="_JSON {\"0\": {\"In\": 1}, \"1\": {\"In\": 1}, \"2\": {\"In\": 1}, \"3\": {\"In\": 1}, \"4\": {\"O\": 1}, \"5\": {\"O\": 1}, \"6\": {\"O\": 1}, \"7\": {\"O\": 1}, \"8\": {\"O\": 1}, \"9\": {\"O\": 1}}" n_minim_iter=5 energy=-11287.682879242471 stress="0.0013253755798300058 -9.785394617117831e-05 -6.756677627004532e-05 -9.785394617117831e-05 0.0014538307881930051 -3.647276052082734e-05 -6.756677627004532e-05 -3.647276052082734e-05 0.0014814687309429853" free_energy=-11287.682879242471 pbc="T T T"
In      10.79183882       5.82546898       4.02240447        0       0.01272955       0.00687145       0.00474464
In       8.12971180       4.38844433       3.03015914        1      -0.01272955      -0.00687145      -0.00474464
In       4.48465528       2.42083121       1.67154993        2       0.01272955       0.00687145       0.00474464
In       1.82252826       0.98380657       0.67930461        3      -0.01272955      -0.00687145      -0.00474464
O        6.14130090       2.36926289       0.26149604        4      -0.00000000      -0.03590050       0.05199309
O        7.26378554       5.20630014       1.20898657        5       0.03001300      -0.05559989       0.00000000
O        8.33829068       2.26991940       2.57879128        6      -0.03001300       0.01969939       0.05199309
O        4.27607641       4.53935614       2.12291780        7       0.03001300      -0.01969939      -0.05199309
O        6.47306619       4.44001265       4.44021303        8       0.00000000       0.03590050      -0.05199309
O        5.35058155       1.60297540       3.49272251        9      -0.03001300       0.05559989      -0.00000000
10
Lattice="5.977061893625623 0.050275838450083814 0.034714759975104946 3.3217752864802024 4.969266091314976 0.03471475997510605 3.3217752864801984 1.793104880620671 4.6346073714984" Properties=species:S:1:pos:R:3:spacegroup_kinds:I:1:forces:R:3 spacegroup="P 1" unit_cell=conventional occupancy="_JSON {\"0\": {\"In\": 1}, \"1\": {\"In\": 1}, \"2\": {\"In\": 1}, \"3\": {\"In\": 1}, \"4\": {\"O\": 1}, \"5\": {\"O\": 1}, \"6\": {\"O\": 1}, \"7\": {\"O\": 1}, \"8\": {\"O\": 1}, \"9\": {\"O\": 1}}" n_minim_iter=6 energy=-11287.683290560268 stress="0.0015683197475280975 9.102569501870168e-05 6.285196354671182e-05 9.102569501870168e-05 0.0014488281479631752 3.39276904547142e-05 6.285196354671182e-05 3.39276904547142e-05 0.0014231187817889907" free_energy=-11287.683290560268 pbc="T T T"
In      10.79481879       5.82707757       4.02351518        0       0.03287869       0.01774802       0.01225476
In       8.13609992       4.39189266       3.03254016        1      -0.03287869      -0.01774802      -0.01225476
In       4.48451256       2.42075417       1.67149673        2       0.03287869       0.01774802       0.01225476
In       1.82579369       0.98556925       0.68052172        3      -0.03287869      -0.01774802      -0.01225476
O        6.14368407       2.36962098       0.26456949        4       0.00000000      -0.03068786       0.04444387
O        7.26842386       5.20616107       1.21072399        5       0.02565521      -0.04752697       0.00000000
O        8.34071956       2.27294503       2.58187318        6      -0.02565521       0.01683910       0.04444387
O        4.27989292       4.53970179       2.12216372        7       0.02565521      -0.01683910      -0.04444387
O        6.47692841       4.44302584       4.43946740        8      -0.00000000       0.03068786      -0.04444387
O        5.35218861       1.60648576       3.49331291        9      -0.02565521       0.04752697       0.00000000
10
Lattice="5.975862306804831 0.04905460012294344 0.033871512071021403 3.3200960856555977 4.968933350901221 0.03387151207102252 3.3200960856555954 1.7921984426667272 4.6345949841524865" Properties=species:S:1:pos:R:3:spacegroup_kinds:I:1:forces:R:3 spacegroup="P 1" unit_cell=conventional occupancy="_JSON {\"0\": {\"In\": 1}, \"1\": {\"In\": 1}, \"2\": {\"In\": 1}, \"3\": {\"In\": 1}, \"4\": {\"O\": 1}, \"5\": {\"O\": 1}, \"6\": {\"O\": 1}, \"7\": {\"O\": 1}, \"8\": {\"O\": 1}, \"9\": {\"O\": 1}}" n_minim_iter=7 energy=-11287.684346332177 stress="0.0015037793625542527 -0.00022339783033462415 -0.00015425306161675415 -0.00022339783033462415 0.0017970390241838117 -8.326629481903636e-05 -0.00015425306161675415 -8.326629481903636e-05 0.0018601356784661292" free_energy=-11287.684346332177 pbc="T T T"
In      10.78998703       5.82446937       4.02171426        0       0.02456272       0.01325903       0.00915518
In       8.13409469       4.39081023       3.03179276        1      -0.02456272      -0.01325903      -0.00915518
In       4.48195979       2.41937618       1.67054525        2       0.02456272       0.01325903       0.00915518
In       1.82606745       0.98571703       0.68062376        3      -0.02456272      -0.01325903      -0.00915518
O        6.14194478       2.36448428       0.26938724        4      -0.00000000      -0.00209223       0.00303008
O        7.26911457       5.19871196       1.20945602        5       0.00174911      -0.00324028      -0.00000000
O        8.33487107       2.27341213       2.58668473        6      -0.00174911       0.00114805       0.00303008
O        4.28118341       4.53677428       2.11565328        7       0.00174911      -0.00114805      -0.00303008
O        6.47410971       4.44570212       4.43295077        8      -0.00000000       0.00209223      -0.00303008
O        5.34693992       1.61147445       3.49288200        9      -0.00174911       0.00324028       0.00000000
10
Lattice="5.9757937786193125 0.04898482317212712 0.03382333206698644 3.320000148864388 4.96891434913372 0.033823332066987594 3.3200001488643847 1.7921466556812404 4.634594285517305" Properties=species:S:1:pos:R:3:spacegroup_kinds:I:1:forces:R:3 spacegroup="P 1" unit_cell=conventional occupancy="_JSON {\"0\": {\"In\": 1}, \"1\": {\"In\": 1}, \"2\": {\"In\": 1}, \"3\": {\"In\": 1}, \"4\": {\"O\": 1}, \"5\": {\"O\": 1}, \"6\": {\"O\": 1}, \"7\": {\"O\": 1}, \"8\": {\"O\": 1}, \"9\": {\"O\": 1}}" n_minim_iter=8 energy=-11287.684476429107 stress="0.001665351174085981 -5.458760817986771e-05 -3.769197725386172e-05 -5.458760817986771e-05 0.0017370096315116328 -2.034624820564166e-05 -3.769197725386172e-05 -2.034624820564166e-05 0.0017524273969650006" free_energy=-11287.684476429107 pbc="T T T"
In      10.79134923       5.82520469       4.02222198        0       0.00516130       0.00278609       0.00192376
In       8.13234190       4.38986406       3.03113945        1      -0.00516130      -0.00278609      -0.00192376
In       4.48345219       2.42018178       1.67110151        2       0.00516130       0.00278609       0.00192375
In       1.82444486       0.98484115       0.68001897        3      -0.00516130      -0.00278609      -0.00192375
O        6.14184541       2.36457427       0.26910714        4      -0.00000000      -0.00045704       0.00066191
O        7.26883346       5.19888025       1.20938357        5       0.00038209      -0.00070783       0.00000000
O        8.33485752       2.27322840       2.58640428        6      -0.00038209       0.00025079       0.00066191
O        4.28093657       4.53681744       2.11583667        7       0.00038209      -0.00025079      -0.00066191
O        6.47394867       4.44547157       4.43313382        8      -0.00000000       0.00045704      -0.00066191
O        5.34696063       1.61116559       3.49285738        9      -0.00038209       0.00070783      -0.00000000
