10
Lattice="4.803130825828438 -0.6169225042139085 -0.42597632018189296 2.119832523249357 4.353960172027672 -0.4259763201818898 2.119832523249336 1.144292348434104 4.222442424269871" Properties=species:S:1:pos:R:3:spacegroup_kinds:I:1:forces:R:3 spacegroup="P 1" unit_cell=conventional occupancy="_JSON {\"0\": {\"In\": 1}, \"1\": {\"In\": 1}, \"2\": {\"In\": 1}, \"3\": {\"In\": 1}, \"4\": {\"O\": 1}, \"5\": {\"O\": 1}, \"6\": {\"O\": 1}, \"7\": {\"O\": 1}, \"8\": {\"O\": 1}, \"9\": {\"O\": 1}}" n_minim_iter=9 energy=-11290.732780727416 stress="0.3969073243641867 0.00015743694857188242 0.00010870799981495906 0.00015743694857188242 0.3967006531260382 5.868092501298089e-05 0.00010870799981495906 5.868092501298089e-05 0.3966561865123263" free_energy=-11290.732780727416 pbc="T T T"
In       7.85076798       4.23786957       2.92618938        0      -0.00541372      -0.00292234      -0.00201784
In       5.71342582       3.08412546       2.12954529        1       0.00541372       0.00292234       0.00201784
In       3.32937004       1.79720456       1.24094449        2      -0.00541372      -0.00292234      -0.00201784
In       1.19202788       0.64346045       0.44430040        3       0.00541372       0.00292234       0.00201784
O        4.66226438       1.54291403      -0.28427683        4      -0.00000000       0.00170716      -0.00247240
O        5.19462573       4.06616108       0.41664612        5      -0.00142719       0.00264392       0.00000000
O        6.24973555       1.13775047       1.82694439        6       0.00142719      -0.00093676      -0.00247240
O        2.79306031       3.74357955       1.54354540        7      -0.00142719       0.00093676       0.00247240
O        4.38053149       3.33841598       3.65476661        8       0.00000000      -0.00170716       0.00247240
O        3.84817013       0.81516894       2.95384366        9       0.00142719      -0.00264392      -0.00000000
