10
Lattice="5.6849306549145115 0.008682411234086019 0.005995082952140131 3.1267041814315077 4.747866141465069 0.005995082952134454 3.126704181431501 1.6878048767478955 4.43774532125448" Properties=species:S:1:pos:R:3:spacegroup_kinds:I:1:forces:R:3 spacegroup="P 1" unit_cell=conventional occupancy="_JSON {\"0\": {\"In\": 1}, \"1\": {\"In\": 1}, \"2\": {\"In\": 1}, \"3\": {\"In\": 1}, \"4\": {\"O\": 1}, \"5\": {\"O\": 1}, \"6\": {\"O\": 1}, \"7\": {\"O\": 1}, \"8\": {\"O\": 1}, \"9\": {\"O\": 1}}" n_minim_iter=5 energy=-11287.767698604754 stress="0.014431517109436803 -3.6508614111271e-05 -2.5208684498939666e-05 -3.6508614111271e-05 0.01447944283532688 -1.3607729006053598e-05 -2.5208684498939666e-05 -1.3607729006053598e-05 0.014489754356575424" free_energy=-11287.767698604754 pbc="T T T"
In      10.25867656       5.53766629       3.82368075        0       0.00123856       0.00066858       0.00046164
In       7.64883198       4.12886387       2.85092248        1      -0.00123856      -0.00066858      -0.00046164
In       4.28950705       2.31548957       1.59881301        2       0.00123856       0.00066858       0.00046164
In       1.67966247       0.90668715       0.62605474        3      -0.00123856      -0.00066858      -0.00046164
O        5.82705009       2.28762802       0.14191639        4      -0.00000000       0.00075027      -0.00108658
O        6.82844092       5.03041106       1.11842896        5      -0.00062723       0.00116195      -0.00000000
O        7.95236343       2.09048203       2.36078905        6       0.00062723      -0.00041169      -0.00108658
O        3.98597560       4.35387141       2.08894644        7      -0.00062723       0.00041169       0.00108658
O        6.11128894       4.15672542       4.30781910        8      -0.00000000      -0.00075027       0.00108658
O        5.10989810       1.41394238       3.33130653        9       0.00062723      -0.00116195      -0.00000000
