80
Lattice="11.758813951218944 8.367704546226984e-07 5.777782402527284e-07 6.452318795572261 9.830426628569425 5.777782389204622e-07 6.452318795572258 3.48298223866928 9.192721165400451" Properties=species:S:1:pos:R:3:spacegroup_kinds:I:1:forces:R:3 spacegroup="P 1" unit_cell=conventional occupancy="_JSON {\"0\": {\"In\": 1}, \"1\": {\"In\": 1}, \"2\": {\"In\": 1}, \"3\": {\"In\": 1}, \"4\": {\"O\": 1}, \"5\": {\"O\": 1}, \"6\": {\"O\": 1}, \"7\": {\"O\": 1}, \"8\": {\"O\": 1}, \"9\": {\"O\": 1}}" n_minim_iter=2 energy=-90298.95791566324 stress="3.5597148037437274e-05 -3.686566222424912e-05 -4.004274816118367e-05 -3.686566222424912e-05 0.0001189211443307022 -2.570002806746558e-05 -4.004274816118367e-05 -2.570002806746558e-05 0.0001257928917593237" free_energy=-11287.36979433259 pbc="T T T"
In      10.57113581       5.70633279       3.94014260        0       0.00532607       0.00287330       0.00217242
In      16.45054279       5.70633321       3.94014289        0       0.00505324       0.00259907       0.00190973
In      13.79729521      10.62154610       3.94014289        0       0.00476958       0.00259521       0.00147046
In      19.67670218      10.62154652       3.94014318        0       0.00514785       0.00278012       0.00196098
In      13.79729521       7.44782391       8.53650318        0      -0.00945846      -0.01696963       0.00805672
In      19.67670218       7.44782433       8.53650347        0       0.00508684       0.00265655       0.00192630
In      17.02345461      12.36303722       8.53650347        0       0.00849138       0.00854566       0.00368583
In      22.90286158      12.36303764       8.53650376        0       0.00504202       0.00264265       0.00191913
In       7.92645286       4.27872450       2.95439914        1      -0.00298859      -0.00078689       0.00194813
In      13.80585984       4.27872492       2.95439943        1      -0.00532842      -0.00299512      -0.00191573
In      11.15261226       9.19393781       2.95439943        1      -0.00450071      -0.00110107      -0.00386823
In      17.03201923       9.19393823       2.95439972        1      -0.00516888      -0.00279766      -0.00193065
In      11.15261226       6.02021562       7.55075972        1      -0.01287772      -0.01040020      -0.00536427
In      17.03201923       6.02021604       7.55076001        1      -0.00530718      -0.00292979      -0.00191851
In      14.37877166      10.93542893       7.55076001        1      -0.00479882      -0.00192365      -0.00215473
In      20.25817863      10.93542935       7.55076030        1      -0.00531654      -0.00305962      -0.00196265
In       4.40527292       2.37798036       1.64196202        2      -0.00924033      -0.00350550       0.01076523
In      10.28467990       2.37798078       1.64196231        2       0.00630100       0.00260920       0.00235333
In       7.63143232       7.29319367       1.64196231        2       0.00609702       0.00582669       0.00279358
In      13.51083929       7.29319409       1.64196260        2       0.00517590       0.00189656       0.00213809
In       7.63143232       4.11947148       6.23832260        2       0.00515952       0.00278811       0.00190605
In      13.51083929       4.11947190       6.23832289        2       0.00375916       0.00280903       0.00403307
In      10.85759172       9.03468479       6.23832289        2       0.00504095       0.00277121       0.00179159
In      16.73699869       9.03468521       6.23832318        2       0.00509003       0.00272696       0.00197568
In       1.76058997       0.95037208       0.65621856        3      -0.00343867      -0.00241810      -0.00211032
In       7.63999695       0.95037250       0.65621885        3      -0.00669347      -0.01198551      -0.00113288
In       4.98674937       5.86558539       0.65621885        3      -0.00785518       0.00290108      -0.00108618
In      10.86615634       5.86558581       0.65621914        3      -0.00522394      -0.00286818      -0.00191585
In       4.98674937       2.69186320       5.25257914        3      -0.00532768      -0.00299820      -0.00185556
In      10.86615634       2.69186362       5.25257943        3      -0.00460094      -0.00163550      -0.00016301
In       8.21290877       7.60707651       5.25257943        3      -0.00518108      -0.00278506      -0.00193820
In      14.09231574       7.60707693       5.25257972        3      -0.00519135      -0.00284240      -0.00213864
O        6.01682752       2.30114489       0.21378341        4       0.05713801       0.05879255      -0.02741224
O       11.90204192       2.30999321       0.21378370        4      -0.00127367       0.00290637      -0.00402764
O        9.24879434       7.22520610       0.21378370        4      -0.00121054       0.00094924      -0.00402263
O       15.12820131       7.22520652       0.21378399        4       0.00122065       0.00109775      -0.00400289
O        9.24879434       4.05148391       4.81014399        4      -0.00064231       0.00251601      -0.00501547
O       15.12820131       4.05148433       4.81014428        4       0.00018193       0.00304141      -0.00401039
O       12.47495374       8.96669722       4.81014428        4       0.00019054       0.00174648      -0.00218081
O       18.35436071       8.96669764       4.81014457        4      -0.00001446       0.00274454      -0.00404263
O        7.09580894       5.12197299       1.14909058        5      -0.00606434      -0.00702213      -0.00443023
O       12.97521592       5.12197341       1.14909087        5      -0.00234833       0.00460001      -0.00000782
O       10.32196834      10.03718630       1.14909087        5      -0.01125486      -0.00368131       0.00448674
O       16.20137531      10.03718672       1.14909116        5      -0.00225521       0.00448744      -0.00002415
O       10.32196834       6.86346411       5.74545116        5      -0.00223122       0.00447251      -0.00001879
O       16.20137531       6.86346453       5.74545145        5      -0.00260338       0.00442020       0.00041822
O       13.54812774      11.77867742       5.74545145        5      -0.00225424       0.00453115      -0.00020917
O       19.42753471      11.77867784       5.74545174        5      -0.00210001       0.00411799      -0.00035468
O        8.17562033       2.18054844       2.51196370        6      -0.00006252       0.00077987      -0.00803873
O       14.05502731       2.18054886       2.51196399        6       0.00204114      -0.00136049      -0.00377040
O       11.40177973       7.09576175       2.51196399        6       0.00203544      -0.00304904      -0.00327830
O       17.28118670       7.09576217       2.51196428        6       0.00254723      -0.00199133      -0.00436734
O       11.40177973       3.92203956       7.10832428        6      -0.00003439      -0.00597013      -0.01208655
O       17.28118670       3.92203998       7.10832457        6       0.00203641      -0.00127671      -0.00382885
O       14.62793913       8.83725287       7.10832457        6       0.00204574      -0.00190659      -0.00359732
O       20.50734610       8.83725329       7.10832486        6       0.00254514      -0.00136747      -0.00395229
O        4.15610545       4.47615642       2.08439746        7      -0.00015579       0.00102957       0.00257613
O       10.03551243       4.47615684       2.08439775        7      -0.00232315       0.00163278       0.00395879
O        7.38226485       9.39136973       2.08439775        7      -0.00296853       0.00121253       0.00429274
O       13.26167182       9.39137015       2.08439804        7      -0.00014219      -0.00232540       0.00746066
O        7.38226485       6.21764754       6.68075804        7      -0.00276764       0.00163724       0.00372388
O       13.26167182       6.21764796       6.68075833        7      -0.00141097       0.00424779       0.00844265
O       10.60842425      11.13286085       6.68075833        7      -0.00181393       0.00053194       0.00398222
O       16.48783122      11.13286127       6.68075862        7      -0.00277274       0.00069304       0.00341028
O        6.30909085       4.34671208       4.38257775        8       0.00009527      -0.00266593       0.00387708
O       12.18849783       4.34671250       4.38257804        8       0.00013721      -0.00254038       0.00411599
O        9.53525025       9.26192539       4.38257804        8      -0.00044749      -0.00307947       0.00453111
O       15.41465722       9.26192581       4.38257833        8       0.00036016      -0.00254465       0.00376104
O        9.53525025       6.08820320       8.97893833        8      -0.00598133       0.00094425       0.00284550
O       15.41465722       6.08820362       8.97893862        8      -0.00898263      -0.00108069       0.00565364
O       12.76140965      11.00341651       8.97893862        8       0.00012739      -0.00238121       0.00403949
O       18.64081662      11.00341693       8.97893891        8       0.00009828      -0.00303438       0.00401207
O        5.23591684       1.53473188       3.44727058        9       0.00224855      -0.00396196       0.00340741
O       11.11532382       1.53473230       3.44727087        9       0.00207317      -0.00422979      -0.00016670
O        8.46207624       6.44994519       3.44727087        9       0.00188365      -0.00503694      -0.00060763
O       14.34148321       6.44994561       3.44727116        9       0.00227458      -0.00427083      -0.00004659
O        8.46207624       3.27622300       8.04363116        9       0.00229964      -0.00424107      -0.00003017
O       14.34148321       3.27622342       8.04363145        9       0.00505116      -0.00580165      -0.00144322
O       11.68823564       8.19143631       8.04363145        9       0.00706742      -0.00862937       0.00436591
O       17.56764261       8.19143673       8.04363174        9       0.00137460      -0.00470308       0.00026117
