40
Lattice="9.370779671687961 7.344538310860571e-10 4.440892098500626e-15 -3.123593224588437 8.83485580089599 -1.2721219633249348e-09 -3.123593223549768 -4.417427899713534 7.651209563196318" Properties=species:S:1:pos:R:3:spacegroup_kinds:I:1:forces:R:3 spacegroup="P 1" unit_cell=conventional occupancy="_JSON {\"0\": {\"In\": 1}, \"1\": {\"In\": 1}, \"2\": {\"In\": 1}, \"3\": {\"In\": 1}, \"4\": {\"In\": 1}, \"5\": {\"In\": 1}, \"6\": {\"In\": 1}, \"7\": {\"In\": 1}, \"8\": {\"In\": 1}, \"9\": {\"In\": 1}, \"10\": {\"In\": 1}, \"11\": {\"In\": 1}, \"12\": {\"In\": 1}, \"13\": {\"In\": 1}, \"14\": {\"In\": 1}, \"15\": {\"In\": 1}, \"16\": {\"O\": 1}, \"17\": {\"O\": 1}, \"18\": {\"O\": 1}, \"19\": {\"O\": 1}, \"20\": {\"O\": 1}, \"21\": {\"O\": 1}, \"22\": {\"O\": 1}, \"23\": {\"O\": 1}, \"24\": {\"O\": 1}, \"25\": {\"O\": 1}, \"26\": {\"O\": 1}, \"27\": {\"O\": 1}, \"28\": {\"O\": 1}, \"29\": {\"O\": 1}, \"30\": {\"O\": 1}, \"31\": {\"O\": 1}, \"32\": {\"O\": 1}, \"33\": {\"O\": 1}, \"34\": {\"O\": 1}, \"35\": {\"O\": 1}, \"36\": {\"O\": 1}, \"37\": {\"O\": 1}, \"38\": {\"O\": 1}, \"39\": {\"O\": 1}}" n_minim_iter=1 energy=-45147.05340072723 stress="0.09363659738108142 -8.252318577289615e-14 1.397427958322329e-13 -8.252318577289615e-14 0.09363659738084401 -3.6419630897771616e-13 1.397427958322329e-13 -3.6419630897771616e-13 0.0936365973804213" free_energy=-45147.05340072723 pbc="T T T"
In      -4.43439328       3.13558956       6.04581392        0       0.05568144      -0.03937272       0.06819555
In       7.55798650       1.28183835       1.60539564        1      -0.05568144       0.03937272      -0.06819555
In       1.31080005      -0.92687560       5.43100042        2      -0.05568144       0.03937272      -0.06819555
In      -1.56179661      -2.20871395       3.82560478        3      -0.00000000       0.00000000       0.00000000
In      -1.31080006       4.23994653       3.51819803        4       0.05568144      -0.03937272      -0.06819555
In       4.93638639      -2.95810819       5.73840717        5       0.05568144       0.07874544      -0.00000000
In      -1.31080006       1.45931971       5.73840717        6       0.05568144       0.07874544      -0.00000000
In      -1.81279317       7.37553609       1.91280239        7      -0.05568144      -0.07874544       0.00000000
In       4.43439328       0.17748137       4.13301153        8      -0.05568144       0.03937272       0.06819555
In      -1.56179661       4.41742790      -0.00000000        9      -0.00000000      -0.00000000       0.00000000
In       4.43439328       6.80362322       0.30740674       10      -0.05568144       0.03937272       0.06819555
In      -1.31080006      -2.38619532       7.34380281       11       0.05568144      -0.03937272      -0.06819555
In       4.43439328       2.95810819       1.91280239       12      -0.05568144      -0.07874544       0.00000000
In       1.81279317       5.34430351       2.22020913       13       0.05568144      -0.03937272       0.06819555
In       4.68538983       0.00000000      -0.00000000       14      -0.00000000      -0.00000000      -0.00000000
In       1.56179661       2.20871395       3.82560478       15       0.00000000      -0.00000000      -0.00000000
O        0.99906778       4.42390453       4.13382616       16       0.03110377       0.00580558      -0.07079108
O       -2.12452545       3.57676016       5.57868755       17       0.03110377      -0.06420966       0.03036776
O       -0.45346033       2.39513868      -0.02589358       18      -0.04469597      -0.01061115      -0.06246758
O       -0.99906778      -0.83419111       2.06130415       19      -0.03110377      -0.05840408      -0.04042331
O        4.08037696       5.23666935       2.08719773       20      -0.07090537       0.02233841       0.02204427
O        2.16680948       3.01948236       1.75308277       21       0.07090537      -0.00792169       0.03036776
O        2.16680948       6.63461489       0.33411496       22       0.07090537       0.03026010      -0.00832349
O       -2.40931185       6.25528879       3.79971120       23      -0.00489437       0.04567682      -0.06246758
O        3.57705355       2.02228922       7.67710314       24       0.04469597       0.01061115       0.06246758
O        5.53290507      -1.83786089       3.85149836       25       0.00489437      -0.04567682       0.06246758
O        6.70064678       3.38385880       1.73840704       26       0.04469597      -0.05940409      -0.02204427
O        3.83787460       2.37171599       4.15971974       27      -0.00489437      -0.07693692      -0.00832349
O        0.71428137       4.62527893       7.34298818       28      -0.00489437       0.03126010       0.07079108
O        2.40931185      -0.20785103       0.30822138       29       0.00489437      -0.03126010      -0.07079108
O       -3.57705356       1.03356911       5.91280251       30      -0.04469597       0.05940409       0.02204427
O        5.24811867       0.84066775       2.07252201       31      -0.03110377       0.06420966      -0.03036776
O        0.95678374       1.39794554       5.89812679       32      -0.07090537       0.00792169      -0.03036776
O        3.57705355      -0.98872011       5.88690893       33       0.04469597       0.04879294      -0.04042331
O        2.12452544      -0.00647663       3.51738340       34      -0.03110377      -0.00580558       0.07079108
O        0.95678374      -2.21718698       7.31709460       35      -0.07090537      -0.03026010       0.00832349
O       -0.71428138       2.04571192       3.49148981       36       0.00489437       0.07693692       0.00832349
O       -0.95678374      -0.81924144       5.56401182       37       0.07090537      -0.02233841      -0.02204427
O       -0.45346033       5.40614801       1.76430062       38      -0.04469597      -0.04879294       0.04042331
O        4.12266100       5.25161902       5.58990540       39       0.03110377       0.05840408       0.04042331
40
Lattice="9.37077967168796 7.344538310860571e-10 4.440892098500622e-15 -3.1235932245884377 8.834855800895987 -1.2721219633249344e-09 -3.123593223549769 -4.417427899713532 7.651209563196319" Properties=species:S:1:pos:R:3:spacegroup_kinds:I:1:forces:R:3 spacegroup="P 1" unit_cell=conventional occupancy="_JSON {\"0\": {\"In\": 1}, \"1\": {\"In\": 1}, \"2\": {\"In\": 1}, \"3\": {\"In\": 1}, \"4\": {\"In\": 1}, \"5\": {\"In\": 1}, \"6\": {\"In\": 1}, \"7\": {\"In\": 1}, \"8\": {\"In\": 1}, \"9\": {\"In\": 1}, \"10\": {\"In\": 1}, \"11\": {\"In\": 1}, \"12\": {\"In\": 1}, \"13\": {\"In\": 1}, \"14\": {\"In\": 1}, \"15\": {\"In\": 1}, \"16\": {\"O\": 1}, \"17\": {\"O\": 1}, \"18\": {\"O\": 1}, \"19\": {\"O\": 1}, \"20\": {\"O\": 1}, \"21\": {\"O\": 1}, \"22\": {\"O\": 1}, \"23\": {\"O\": 1}, \"24\": {\"O\": 1}, \"25\": {\"O\": 1}, \"26\": {\"O\": 1}, \"27\": {\"O\": 1}, \"28\": {\"O\": 1}, \"29\": {\"O\": 1}, \"30\": {\"O\": 1}, \"31\": {\"O\": 1}, \"32\": {\"O\": 1}, \"33\": {\"O\": 1}, \"34\": {\"O\": 1}, \"35\": {\"O\": 1}, \"36\": {\"O\": 1}, \"37\": {\"O\": 1}, \"38\": {\"O\": 1}, \"39\": {\"O\": 1}}" n_minim_iter=2 energy=-45147.06623950134 stress="0.09236381032008993 -1.5815146702964828e-13 2.9274468637064275e-13 -1.5815146702964828e-13 0.09236381032078668 2.1263144841281514e-13 2.9274468637064275e-13 2.1263144841281514e-13 0.0923638103205941" free_energy=-45147.06623950134 pbc="T T T"
In      -4.43041603       3.13277722       6.05068503        0       0.02554192      -0.01806087       0.03128234
In       7.55400926       1.28465068       1.60052453        1      -0.02554192       0.01806087      -0.03128234
In       1.30682281      -0.92406327       5.42612931        2      -0.02554192       0.01806087      -0.03128234
In      -1.56179661      -2.20871395       3.82560478        3       0.00000000      -0.00000000       0.00000000
In      -1.30682281       4.23713420       3.51332692        4       0.02554192      -0.01806087      -0.03128234
In       4.94036364      -2.95248351       5.73840717        5       0.02554192       0.03612173      -0.00000000
In      -1.30682281       1.46494439       5.73840717        6       0.02554192       0.03612173       0.00000000
In      -1.81677042       7.36991142       1.91280239        7      -0.02554192      -0.03612173       0.00000000
In       4.43041603       0.18029371       4.13788264        8      -0.02554192       0.01806087       0.03128234
In      -1.56179661       4.41742790      -0.00000000        9      -0.00000000      -0.00000000       0.00000000
In       4.43041603       6.80643556       0.31227785       10      -0.02554192       0.01806087       0.03128234
In      -1.30682281      -2.38900765       7.33893170       11       0.02554192      -0.01806087      -0.03128234
In       4.43041603       2.95248352       1.91280239       12      -0.02554192      -0.03612173      -0.00000000
In       1.81677041       5.34149117       2.22508025       13       0.02554192      -0.01806087       0.03128234
In       4.68538983       0.00000000      -0.00000000       14       0.00000000      -0.00000000       0.00000000
In       1.56179661       2.20871395       3.82560478       15       0.00000000       0.00000000       0.00000000
O        1.00128948       4.42431922       4.12876966       16       0.02825932      -0.00121216      -0.01822330
O       -2.12230375       3.57217376       5.58085668       17       0.02825932      -0.01517576       0.01016141
O       -0.45665290       2.39438075      -0.03035555       18      -0.00603091       0.00907109      -0.03183537
O       -1.00128948      -0.83836283       2.05841677       19      -0.02825932      -0.01638792      -0.00806189
O        4.07531229       5.23826495       2.08877232       20      -0.02372762      -0.00199224       0.02377348
O        2.17187415       3.01891653       1.75525190       21       0.02372762      -0.02158456       0.01016141
O        2.17187415       6.63677632       0.33352043       22       0.02372762       0.01959232       0.01361207
O       -2.40966145       6.25855142       3.79524923       23      -0.01056261       0.00266230      -0.03183537
O        3.58024612       2.02304716       7.68156511       24       0.00603091      -0.00907109       0.03183537
O        5.53325467      -1.84112352       3.85596033       25       0.01056261      -0.00266230       0.03183537
O        6.70383934       3.37961565       1.73683245       26       0.00603091      -0.02303470      -0.02377348
O        3.83752500       2.36622049       4.15912521       27      -0.01056261      -0.02890139       0.01361207
O        0.71393177       4.62751180       7.34804468       28      -0.01056261       0.02623909       0.01822330
O        2.40966145      -0.21008389       0.30316487       29       0.01056261      -0.02623909      -0.01822330
O       -3.58024612       1.03781226       5.91437711       30      -0.00603091       0.02303470       0.02377348
O        5.24589697       0.84525415       2.07035288       31      -0.02825932       0.01517576      -0.01016141
O        0.95171907       1.39851138       5.89595766       32      -0.02372762       0.02158456      -0.01016141
O        3.58024612      -0.98523490       5.88402155       33       0.00603091       0.03210579      -0.00806189
O        2.12230374      -0.00689131       3.52243990       34      -0.02825932       0.00121216       0.01822330
O        0.95171907      -2.21934842       7.31768913       35      -0.02372762      -0.01959232      -0.01361207
O       -0.71393178       2.05120741       3.49208435       36       0.01056261       0.02890139      -0.01361207
O       -0.95171907      -0.82083704       5.56243723       37       0.02372762       0.00199224      -0.02377348
O       -0.45665290       5.40266280       1.76718800       38      -0.00603091      -0.03210579       0.00806189
O        4.12488270       5.25579074       5.59279278       39       0.02825932       0.01638792       0.00806189
40
Lattice="9.370779671687961 7.344538310860571e-10 4.4408920985006214e-15 -3.123593224588438 8.834855800895985 -1.2721219633249346e-09 -3.1235932235497694 -4.417427899713531 7.6512095631963195" Properties=species:S:1:pos:R:3:spacegroup_kinds:I:1:forces:R:3 spacegroup="P 1" unit_cell=conventional occupancy="_JSON {\"0\": {\"In\": 1}, \"1\": {\"In\": 1}, \"2\": {\"In\": 1}, \"3\": {\"In\": 1}, \"4\": {\"In\": 1}, \"5\": {\"In\": 1}, \"6\": {\"In\": 1}, \"7\": {\"In\": 1}, \"8\": {\"In\": 1}, \"9\": {\"In\": 1}, \"10\": {\"In\": 1}, \"11\": {\"In\": 1}, \"12\": {\"In\": 1}, \"13\": {\"In\": 1}, \"14\": {\"In\": 1}, \"15\": {\"In\": 1}, \"16\": {\"O\": 1}, \"17\": {\"O\": 1}, \"18\": {\"O\": 1}, \"19\": {\"O\": 1}, \"20\": {\"O\": 1}, \"21\": {\"O\": 1}, \"22\": {\"O\": 1}, \"23\": {\"O\": 1}, \"24\": {\"O\": 1}, \"25\": {\"O\": 1}, \"26\": {\"O\": 1}, \"27\": {\"O\": 1}, \"28\": {\"O\": 1}, \"29\": {\"O\": 1}, \"30\": {\"O\": 1}, \"31\": {\"O\": 1}, \"32\": {\"O\": 1}, \"33\": {\"O\": 1}, \"34\": {\"O\": 1}, \"35\": {\"O\": 1}, \"36\": {\"O\": 1}, \"37\": {\"O\": 1}, \"38\": {\"O\": 1}, \"39\": {\"O\": 1}}" n_minim_iter=3 energy=-45147.06900324654 stress="0.0914001888567422 4.452181410790576e-14 2.666786908028617e-14 4.452181410790576e-14 0.0914001888570771 2.8489298875468357e-13 2.666786908028617e-14 2.8489298875468357e-13 0.09140018885729576" free_energy=-45147.06900324654 pbc="T T T"
In      -4.42757922       3.13077129       6.05415940        0       0.00371415      -0.00262630       0.00454888
In       7.55117244       1.28665661       1.59705016        1      -0.00371415       0.00262630      -0.00454888
In       1.30398599      -0.92205734       5.42265494        2      -0.00371415       0.00262630      -0.00454888
In      -1.56179661      -2.20871395       3.82560478        3       0.00000000       0.00000000      -0.00000000
In      -1.30398600       4.23512827       3.50985255        4       0.00371415      -0.00262630      -0.00454888
In       4.94320045      -2.94847165       5.73840717        5       0.00371415       0.00525260       0.00000000
In      -1.30398600       1.46895625       5.73840717        6       0.00371415       0.00525260      -0.00000000
In      -1.81960723       7.36589956       1.91280239        7      -0.00371415      -0.00525260      -0.00000000
In       4.42757922       0.18229964       4.14135701        8      -0.00371415       0.00262630       0.00454888
In      -1.56179661       4.41742790      -0.00000000        9       0.00000000       0.00000000       0.00000000
In       4.42757922       6.80844149       0.31575223       10      -0.00371415       0.00262630       0.00454888
In      -1.30398600      -2.39101358       7.33545733       11       0.00371415      -0.00262630      -0.00454888
In       4.42757922       2.94847166       1.91280239       12      -0.00371415      -0.00525260      -0.00000000
In       1.81960723       5.33948524       2.22855462       13       0.00371415      -0.00262630       0.00454888
In       4.68538983       0.00000000      -0.00000000       14       0.00000000      -0.00000000      -0.00000000
In       1.56179661       2.20871395       3.82560478       15      -0.00000000       0.00000000       0.00000000
O        1.00320883       4.42452229       4.12550393       16       0.02457603      -0.00577165       0.01684128
O       -2.12038439       3.56924401       5.58231367       17       0.02457603       0.01747080      -0.00342224
O       -0.45858384       2.39417357      -0.03361419       18       0.01922207       0.02125662      -0.00997948
O       -1.00320883      -0.84108950       2.05660804       19      -0.02457603       0.01169915       0.01341904
O        4.07191032       5.23911024       2.09022222       20       0.00827962      -0.01746080       0.02339851
O        2.17527612       3.01808353       1.75670889       21      -0.00827962      -0.02899411      -0.00342224
O        2.17527612       6.63845462       0.33351333       22      -0.00827962       0.01153331       0.02682075
O       -2.41010977       6.26044099       3.79199059       23      -0.01363358      -0.02520829      -0.00997947
O        3.58217706       2.02325433       7.68482374       24      -0.01922207      -0.02125662       0.00997948
O        5.53370299      -1.84301308       3.85921896       25       0.01363358       0.02520829       0.00997948
O        6.70577029       3.37669000       1.73538255       26      -0.01922207       0.00198583      -0.02339851
O        3.83707667       2.36245365       4.15911811       27      -0.01363358       0.00396166       0.02682075
O        0.71348345       4.62938907       7.35131041       28      -0.01363358       0.02124662      -0.01684128
O        2.41010977      -0.21196117       0.29989915       29       0.01363358      -0.02124662       0.01684128
O       -3.58217707       1.04073790       5.91582701       30       0.01922207      -0.00198583       0.02339851
O        5.24397762       0.84818389       2.06889588       31      -0.02457603      -0.01747080       0.00342224
O        0.94831710       1.39934438       5.89450066       32       0.00827962       0.02899411       0.00342224
O        3.58217706      -0.98251642       5.88221282       33      -0.01922207       0.01927079       0.01341904
O        2.12038439      -0.00709439       3.52570563       34      -0.02457603       0.00577165      -0.01684128
O        0.94831710      -2.22102672       7.31769623       35       0.00827962      -0.01153331      -0.02682075
O       -0.71348345       2.05497426       3.49209145       36       0.01363358      -0.00396166      -0.02682075
O       -0.94831710      -0.82168234       5.56098733       37      -0.00827962       0.01746080      -0.02339851
O       -0.45858384       5.39994433       1.76899673       38       0.01922207      -0.01927079      -0.01341904
O        4.12680205       5.25851740       5.59460152       39       0.02457603      -0.01169915      -0.01341904
40
Lattice="9.370779671687972 7.344538310860579e-10 4.440892098500673e-15 -3.123593224588442 8.834855800895992 -1.272121963324936e-09 -3.1235932235497734 -4.417427899713535 7.651209563196329" Properties=species:S:1:pos:R:3:spacegroup_kinds:I:1:forces:R:3 spacegroup="P 1" unit_cell=conventional occupancy="_JSON {\"0\": {\"In\": 1}, \"1\": {\"In\": 1}, \"2\": {\"In\": 1}, \"3\": {\"In\": 1}, \"4\": {\"In\": 1}, \"5\": {\"In\": 1}, \"6\": {\"In\": 1}, \"7\": {\"In\": 1}, \"8\": {\"In\": 1}, \"9\": {\"In\": 1}, \"10\": {\"In\": 1}, \"11\": {\"In\": 1}, \"12\": {\"In\": 1}, \"13\": {\"In\": 1}, \"14\": {\"In\": 1}, \"15\": {\"In\": 1}, \"16\": {\"O\": 1}, \"17\": {\"O\": 1}, \"18\": {\"O\": 1}, \"19\": {\"O\": 1}, \"20\": {\"O\": 1}, \"21\": {\"O\": 1}, \"22\": {\"O\": 1}, \"23\": {\"O\": 1}, \"24\": {\"O\": 1}, \"25\": {\"O\": 1}, \"26\": {\"O\": 1}, \"27\": {\"O\": 1}, \"28\": {\"O\": 1}, \"29\": {\"O\": 1}, \"30\": {\"O\": 1}, \"31\": {\"O\": 1}, \"32\": {\"O\": 1}, \"33\": {\"O\": 1}, \"34\": {\"O\": 1}, \"35\": {\"O\": 1}, \"36\": {\"O\": 1}, \"37\": {\"O\": 1}, \"38\": {\"O\": 1}, \"39\": {\"O\": 1}}" n_minim_iter=4 energy=-45147.07135548917 stress="0.09059535450271239 3.9241355541692533e-14 -3.609863461225099e-13 3.9241355541692533e-14 0.09059535450244903 3.9099378943321893e-13 -3.609863461225099e-13 3.9099378943321893e-13 0.09059535450278874" free_energy=-45147.07135548917 pbc="T T T"
In      -4.42449922       3.12859340       6.05793161        0      -0.01445556       0.01022163      -0.01770438
In       7.54809244       1.28883450       1.59327794        1       0.01445556      -0.01022163       0.01770438
In       1.30090599      -0.91987945       5.41888272        2       0.01445556      -0.01022163       0.01770438
In      -1.56179661      -2.20871395       3.82560478        3       0.00000000      -0.00000000      -0.00000000
In      -1.30090600       4.23295038       3.50608033        4      -0.01445556       0.01022163       0.01770438
In       4.94628045      -2.94411587       5.73840717        5      -0.01445556      -0.02044326       0.00000000
In      -1.30090600       1.47331203       5.73840717        6      -0.01445556      -0.02044326       0.00000000
In      -1.82268723       7.36154378       1.91280239        7       0.01445556       0.02044326      -0.00000000
In       4.42449922       0.18447753       4.14512922        8       0.01445556      -0.01022163      -0.01770438
In      -1.56179661       4.41742790      -0.00000000        9       0.00000000      -0.00000000       0.00000000
In       4.42449922       6.81061938       0.31952444       10       0.01445556      -0.01022163      -0.01770438
In      -1.30090600      -2.39319147       7.33168512       11      -0.01445556       0.01022163       0.01770438
In       4.42449922       2.94411588       1.91280239       12       0.01445556       0.02044326      -0.00000000
In       1.82268723       5.33730735       2.23232683       13      -0.01445556       0.01022163      -0.01770438
In       4.68538983       0.00000000      -0.00000000       14      -0.00000000      -0.00000000      -0.00000000
In       1.56179661       2.20871395       3.82560478       15       0.00000000      -0.00000000      -0.00000000
O        1.00976752       4.42351842       4.12623808       16       0.00967835       0.00956666       0.01608762
O       -2.11382570       3.57038175       5.58281597       17       0.00967835       0.00914896      -0.01632878
O       -0.45627140       2.39831387      -0.03831246       18       0.02087138       0.00123430      -0.00262019
O       -1.00976753      -0.84095563       2.05784450       19      -0.00967835       0.01871562      -0.00024116
O        4.07079676       5.23626383       2.09615696       20       0.00539961      -0.02022839       0.00237903
O        2.17638969       3.01152068       1.75721119       21      -0.00539961      -0.01217449      -0.01632878
O        2.17638969       6.64217105       0.33894576       22      -0.00539961      -0.00805389       0.01870781
O       -2.41324247       6.25688070       3.78729232       23       0.00579342      -0.02008916      -0.00262019
O        3.57986463       2.01911404       7.68952202       24      -0.02087138      -0.00123430       0.00262019
O        5.53683569      -1.83945280       3.86391724       25      -0.00579342       0.02008916       0.00262019
O        6.70345785       3.37469132       1.72944781       26      -0.02087138      -0.00165200      -0.00237903
O        3.83394398       2.36016496       4.16455055       27       0.00579342       0.00777543       0.01870781
O        0.71035076       4.63523804       7.35057625       28       0.00579342       0.01231373      -0.01608762
O        2.41324246      -0.21781014       0.30063330       29      -0.00579342      -0.01231373       0.01608762
O       -3.57986463       1.04273658       5.92176174       30       0.02087138       0.00165200       0.00237903
O        5.23741892       0.84704615       2.06839358       31      -0.00967835      -0.00914896       0.01632878
O        0.94720353       1.40590722       5.89399836       32       0.00539961       0.01217449       0.01632878
O        3.57986463      -0.97637745       5.88344928       33      -0.02087138       0.00288630      -0.00024116
O        2.11382570      -0.00609051       3.52497147       34      -0.00967835      -0.00956666      -0.01608762
O        0.94720354      -2.22474314       7.31226379       35       0.00539961       0.00805389      -0.01870781
O       -0.71035076       2.05726294       3.48665901       36      -0.00579342      -0.00777543      -0.01870781
O       -0.94720354      -0.81883592       5.55505260       37      -0.00539961       0.02022839      -0.00237903
O       -0.45627141       5.39380536       1.76776028       38       0.02087138      -0.00288630       0.00024116
O        4.13336075       5.25838354       5.59336506       39       0.00967835      -0.01871562       0.00024116
40
Lattice="9.370779671687977 7.344538310860581e-10 4.4408920985006845e-15 -3.1235932245884444 8.834855800895998 -1.272121963324937e-09 -3.1235932235497756 -4.417427899713537 7.651209563196334" Properties=species:S:1:pos:R:3:spacegroup_kinds:I:1:forces:R:3 spacegroup="P 1" unit_cell=conventional occupancy="_JSON {\"0\": {\"In\": 1}, \"1\": {\"In\": 1}, \"2\": {\"In\": 1}, \"3\": {\"In\": 1}, \"4\": {\"In\": 1}, \"5\": {\"In\": 1}, \"6\": {\"In\": 1}, \"7\": {\"In\": 1}, \"8\": {\"In\": 1}, \"9\": {\"In\": 1}, \"10\": {\"In\": 1}, \"11\": {\"In\": 1}, \"12\": {\"In\": 1}, \"13\": {\"In\": 1}, \"14\": {\"In\": 1}, \"15\": {\"In\": 1}, \"16\": {\"O\": 1}, \"17\": {\"O\": 1}, \"18\": {\"O\": 1}, \"19\": {\"O\": 1}, \"20\": {\"O\": 1}, \"21\": {\"O\": 1}, \"22\": {\"O\": 1}, \"23\": {\"O\": 1}, \"24\": {\"O\": 1}, \"25\": {\"O\": 1}, \"26\": {\"O\": 1}, \"27\": {\"O\": 1}, \"28\": {\"O\": 1}, \"29\": {\"O\": 1}, \"30\": {\"O\": 1}, \"31\": {\"O\": 1}, \"32\": {\"O\": 1}, \"33\": {\"O\": 1}, \"34\": {\"O\": 1}, \"35\": {\"O\": 1}, \"36\": {\"O\": 1}, \"37\": {\"O\": 1}, \"38\": {\"O\": 1}, \"39\": {\"O\": 1}}" n_minim_iter=5 energy=-45147.07204011339 stress="0.09085034649046367 -3.49948149779617e-13 -1.5432753710562887e-13 -3.49948149779617e-13 0.09085034649032521 -1.6668872907314423e-13 -1.5432753710562887e-13 -1.6668872907314423e-13 0.0908503464897802" free_energy=-45147.07204011339 pbc="T T T"
In      -4.42509657       3.12901580       6.05720001        0      -0.00852637       0.00602905      -0.01044263
In       7.54868979       1.28841211       1.59400955        1       0.00852637      -0.00602905       0.01044263
In       1.30150335      -0.92030184       5.41961433        2       0.00852637      -0.00602905       0.01044263
In      -1.56179661      -2.20871395       3.82560478        3      -0.00000000       0.00000000       0.00000000
In      -1.30150335       4.23337277       3.50681194        4      -0.00852637       0.00602905       0.01044263
In       4.94568310      -2.94496066       5.73840717        5      -0.00852637      -0.01205811       0.00000000
In      -1.30150335       1.47246724       5.73840717        6      -0.00852637      -0.01205811       0.00000000
In      -1.82208988       7.36238856       1.91280239        7       0.00852637       0.01205811      -0.00000000
In       4.42509657       0.18405513       4.14439762        8       0.00852637      -0.00602905      -0.01044263
In      -1.56179661       4.41742790      -0.00000000        9       0.00000000       0.00000000       0.00000000
In       4.42509657       6.81019698       0.31879284       10       0.00852637      -0.00602905      -0.01044263
In      -1.30150335      -2.39276908       7.33241672       11      -0.00852637       0.00602905       0.01044263
In       4.42509657       2.94496066       1.91280239       12       0.00852637       0.01205811      -0.00000000
In       1.82208987       5.33772975       2.23159523       13      -0.00852637       0.00602905      -0.01044263
In       4.68538983       0.00000000      -0.00000000       14       0.00000000       0.00000000      -0.00000000
In       1.56179661       2.20871395       3.82560478       15      -0.00000000      -0.00000000      -0.00000000
O        1.01055921       4.42337448       4.12780138       16       0.00807895       0.01329439       0.00035553
O       -2.11303401       3.57180757       5.58215899       17       0.00807895      -0.00633929      -0.01169104
O       -0.45479894       2.39925831      -0.03813568       18       0.00925031      -0.00716757      -0.01025643
O       -1.01055922      -0.83967376       2.05875080       19      -0.00807895       0.00695509      -0.01133551
O        4.07187714       5.23508402       2.09688648       20      -0.00866972      -0.01287664      -0.00107908
O        2.17530931       3.01029900       1.75655421       21       0.00866972      -0.00550381      -0.01169104
O        2.17530931       6.64221292       0.34033227       22       0.00866972      -0.00737284       0.01061196
O       -2.41364207       6.25517764       3.78746910       23       0.00984109      -0.00633209      -0.01025643
O        3.57839216       2.01816960       7.68934524       24      -0.00925031       0.00716757       0.01025643
O        5.53723529      -1.83774973       3.86374046       25      -0.00984109       0.00633209       0.01025643
O        6.70198539       3.37531664       1.72871830       26      -0.00925031      -0.01246611       0.00107908
O        3.83354437       2.36116960       4.16593705       27       0.00984109      -0.00571628       0.01061196
O        0.70995115       4.63593648       7.34901296       28       0.00984109       0.01204837      -0.00035553
O        2.41364207      -0.21850857       0.30219659       29      -0.00984109      -0.01204837       0.00035553
O       -3.57839216       1.04211126       5.92249126       30       0.00925031       0.01246611      -0.00107908
O        5.23662723       0.84562033       2.06905057       31      -0.00807895       0.00633929       0.01169104
O        0.94828391       1.40712891       5.89465535       32      -0.00866972       0.00550381       0.01169104
O        3.57839216      -0.97605833       5.88435558       33      -0.00925031       0.00529854      -0.01133551
O        2.11303401      -0.00594657       3.52340818       34      -0.00807895      -0.01329439      -0.00035553
O        0.94828391      -2.22478502       7.31087729       35      -0.00866972       0.00737284      -0.01061196
O       -0.70995115       2.05625831       3.48527250       36      -0.00984109       0.00571628      -0.01061196
O       -0.94828392      -0.81765611       5.55432308       37       0.00866972       0.01287664       0.00107908
O       -0.45479894       5.39348623       1.76685397       38       0.00925031      -0.00529854       0.01133551
O        4.13415244       5.25710166       5.59245875       39       0.00807895      -0.00695509       0.01133551
40