40
Lattice="8.156997678683311 6.393199303289523e-10 1.731947918415239e-14 -2.7189992268305296 7.690491163413426 -1.1073475469913772e-09 -2.7189992259264053 -3.845245581067386 6.660160715833985" Properties=species:S:1:pos:R:3:spacegroup_kinds:I:1:forces:R:3 spacegroup="P 1" unit_cell=conventional occupancy="_JSON {\"0\": {\"In\": 1}, \"1\": {\"In\": 1}, \"2\": {\"In\": 1}, \"3\": {\"In\": 1}, \"4\": {\"In\": 1}, \"5\": {\"In\": 1}, \"6\": {\"In\": 1}, \"7\": {\"In\": 1}, \"8\": {\"In\": 1}, \"9\": {\"In\": 1}, \"10\": {\"In\": 1}, \"11\": {\"In\": 1}, \"12\": {\"In\": 1}, \"13\": {\"In\": 1}, \"14\": {\"In\": 1}, \"15\": {\"In\": 1}, \"16\": {\"O\": 1}, \"17\": {\"O\": 1}, \"18\": {\"O\": 1}, \"19\": {\"O\": 1}, \"20\": {\"O\": 1}, \"21\": {\"O\": 1}, \"22\": {\"O\": 1}, \"23\": {\"O\": 1}, \"24\": {\"O\": 1}, \"25\": {\"O\": 1}, \"26\": {\"O\": 1}, \"27\": {\"O\": 1}, \"28\": {\"O\": 1}, \"29\": {\"O\": 1}, \"30\": {\"O\": 1}, \"31\": {\"O\": 1}, \"32\": {\"O\": 1}, \"33\": {\"O\": 1}, \"34\": {\"O\": 1}, \"35\": {\"O\": 1}, \"36\": {\"O\": 1}, \"37\": {\"O\": 1}, \"38\": {\"O\": 1}, \"39\": {\"O\": 1}}" n_minim_iter=5 energy=-45145.41996358735 stress="-0.15186445518211827 3.6496464557185207e-13 -1.1497911627528705e-13 3.6496464557185207e-13 -0.15186445518276087 -4.1490281244701736e-13 -1.1497911627528705e-13 -4.1490281244701736e-13 -0.1518644551821252" free_energy=-45145.41996358735 pbc="T T T"
In      -3.65835011       2.58684417       5.50969554        0      -0.00205205       0.00145102      -0.00251324
In       6.37734933       1.25840142       1.15046517        1       0.00205205      -0.00145102       0.00251324
In       0.93935088      -0.66422137       4.48054553        2       0.00205205      -0.00145102       0.00251324
In      -1.35949961      -1.92262279       3.33008036        3      -0.00000000       0.00000000       0.00000000
In      -0.93935088       3.54815556       2.81550535        4      -0.00205205       0.00145102       0.00251324
In       4.49864757      -2.28975414       4.99512053        5      -0.00205205      -0.00290204      -0.00000000
In      -0.93935088       1.55549144       4.99512053        6      -0.00205205      -0.00290204      -0.00000000
In      -1.77964835       6.13499973       1.66504018        7       0.00205205       0.00290204       0.00000000
In       3.65835010       0.29709002       3.84465536        8       0.00205205      -0.00145102      -0.00251324
In      -1.35949961       3.84524558      -0.00000000        9      -0.00000000       0.00000000       0.00000000
In       3.65835010       6.06495839       0.51457501       10       0.00205205      -0.00145102      -0.00251324
In      -0.93935088      -2.21971281       6.14558570       11      -0.00205205       0.00145102       0.00251324
In       3.65835010       2.28975415       1.66504018       12       0.00205205       0.00290204      -0.00000000
In       1.77964835       4.50946696       2.17961519       13      -0.00205205       0.00145102      -0.00251324
In       4.07849884       0.00000000      -0.00000000       14      -0.00000000      -0.00000000      -0.00000000
In       1.35949961       1.92262279       3.33008036       15      -0.00000000       0.00000000      -0.00000000
O        0.66504423       3.77556055       4.11918233       16      -0.00803984      -0.00187542       0.00425207
O       -2.05395500       3.60215907       4.66091856       17      -0.00803984       0.00462011      -0.00050188
O       -0.07320244       2.20155550       0.42667438       18      -0.00009223      -0.00099970       0.00923193
O       -0.66504423      -0.31277155       2.11994018       19       0.00803984       0.00274469       0.00375019
O        4.08079980       4.40435771       1.69326580       20       0.00703583       0.00258536      -0.00548173
O        1.35719865       2.65839045       1.33083820       21      -0.00703583       0.00604000      -0.00050188
O        1.35719865       5.59121284       0.36242760       22      -0.00703583      -0.00345464      -0.00497986
O       -2.10004725       5.10303246       3.75675473       23       0.00091179       0.00042019       0.00923193
O        2.79220167       1.64369008       6.23348633       24       0.00009223       0.00099970      -0.00923193
O        4.81904647      -1.25778688       2.90340598       25      -0.00091179      -0.00042019      -0.00923193
O        5.51120089       3.39291139       1.63681455       26       0.00009223       0.00749523       0.00548173
O        3.33795121       2.62455160       3.69250795       27       0.00091179       0.00778499      -0.00497986
O        0.61895198       3.80815269       5.87105874       28       0.00091179      -0.00820518      -0.00425207
O        2.10004724       0.03709290       0.78910198       29      -0.00091179       0.00820518       0.00425207
O       -2.79220167       0.45233419       5.02334616       30      -0.00009223      -0.00749523      -0.00548173
O        4.77295422       0.24308652       1.99924215       31       0.00803984      -0.00462011       0.00050188
O        1.36180057       1.18685514       5.32932251       32       0.00703583      -0.00604000       0.00050188
O        2.79220167      -1.19135589       5.45002054       33       0.00009223      -0.00849493       0.00375019
O        2.05395499       0.06968504       2.54097838       34       0.00803984       0.00187542      -0.00425207
O        1.36180057      -1.74596726       6.29773311       35       0.00703583       0.00345464       0.00497986
O       -0.61895198       1.22069399       2.96765276       36      -0.00091179      -0.00778499       0.00497986
O       -1.36180058      -0.55911212       4.96689491       37      -0.00703583      -0.00258536       0.00548173
O       -0.07320244       5.03660148       1.21014017       38      -0.00009223       0.00849493      -0.00375019
O        3.38404346       4.15801714       4.54022053       39      -0.00803984      -0.00274469      -0.00375019
