40
Lattice="8.493743118560172 6.657145945609932e-10 -4.884981308350712e-15 -2.8312477068143624 8.007977808832042 -1.1530576493612412e-09 -2.8312477058728964 -4.0039889037503 6.9351122161593075" Properties=species:S:1:pos:R:3:spacegroup_kinds:I:1:forces:R:3 spacegroup="P 1" unit_cell=conventional occupancy="_JSON {\"0\": {\"In\": 1}, \"1\": {\"In\": 1}, \"2\": {\"In\": 1}, \"3\": {\"In\": 1}, \"4\": {\"In\": 1}, \"5\": {\"In\": 1}, \"6\": {\"In\": 1}, \"7\": {\"In\": 1}, \"8\": {\"In\": 1}, \"9\": {\"In\": 1}, \"10\": {\"In\": 1}, \"11\": {\"In\": 1}, \"12\": {\"In\": 1}, \"13\": {\"In\": 1}, \"14\": {\"In\": 1}, \"15\": {\"In\": 1}, \"16\": {\"O\": 1}, \"17\": {\"O\": 1}, \"18\": {\"O\": 1}, \"19\": {\"O\": 1}, \"20\": {\"O\": 1}, \"21\": {\"O\": 1}, \"22\": {\"O\": 1}, \"23\": {\"O\": 1}, \"24\": {\"O\": 1}, \"25\": {\"O\": 1}, \"26\": {\"O\": 1}, \"27\": {\"O\": 1}, \"28\": {\"O\": 1}, \"29\": {\"O\": 1}, \"30\": {\"O\": 1}, \"31\": {\"O\": 1}, \"32\": {\"O\": 1}, \"33\": {\"O\": 1}, \"34\": {\"O\": 1}, \"35\": {\"O\": 1}, \"36\": {\"O\": 1}, \"37\": {\"O\": 1}, \"38\": {\"O\": 1}, \"39\": {\"O\": 1}}" n_minim_iter=7 energy=-45148.214501191884 stress="-0.10340570493424871 -5.764078981600763e-13 -4.856820637732991e-13 -5.764078981600763e-13 -0.10340570493486294 -1.8296810058094543e-13 -4.856820637732991e-13 -1.8296810058094543e-13 -0.10340570493438765" free_energy=-45148.214501191884 pbc="T T T"
In      -4.00146509       2.82946310       5.50189448        0      -0.00131666       0.00093102      -0.00161258
In       6.83271279       1.17452581       1.43321773        1       0.00131666      -0.00093102       0.00161258
In       1.17021738      -0.82746864       4.90077384        2       0.00131666      -0.00093102       0.00161258
In      -1.41562385      -2.00199445       3.46755611        3       0.00000000       0.00000000      -0.00000000
In      -1.17021738       3.83046033       3.16699579        4      -0.00131666       0.00093102       0.00161258
In       4.49227803      -2.65593451       5.20133416        5      -0.00131666      -0.00186204       0.00000000
In      -1.17021738       1.34805439       5.20133416        6      -0.00131666      -0.00186204       0.00000000
In      -1.66103033       6.65992342       1.73377805        7       0.00131666       0.00186204       0.00000000
In       4.00146509       0.17352858       3.76811642        8       0.00131666      -0.00093102      -0.00161258
In      -1.41562385       4.00398891      -0.00000000        9      -0.00000000       0.00000000      -0.00000000
In       4.00146508       6.17951194       0.30056032       10       0.00131666      -0.00093102      -0.00161258
In      -1.17021738      -2.17552303       6.63455189       11      -0.00131666       0.00093102       0.00161258
In       4.00146509       2.65593452       1.73377805       12       0.00131666       0.00186204       0.00000000
In       1.66103032       4.83145755       2.03433837       13      -0.00131666       0.00093102      -0.00161258
In       4.24687156       0.00000000      -0.00000000       14       0.00000000      -0.00000000       0.00000000
In       1.41562385       2.00199445       3.46755611       15       0.00000000      -0.00000000      -0.00000000
O        0.84286421       4.00037112       3.85358242       16       0.00079874       0.00184908      -0.00012120
O       -1.98838350       3.33910917       5.01145410       17       0.00079874      -0.00102950      -0.00154075
O       -0.34931078       2.18010973       0.08378779       18       0.00103895      -0.00119935      -0.00124655
O       -0.84286421      -0.66849753       1.92992430       19      -0.00079874       0.00081958      -0.00166195
O        3.81093681       4.72086134       1.84613651       20      -0.00123687      -0.00153927      -0.00041540
O        1.85155860       2.76362400       1.54389799       21       0.00123687      -0.00040989      -0.00154075
O        1.85155860       5.96122624       0.30223852       22       0.00123687      -0.00112938       0.00112535
O       -2.17186409       5.60861347       3.55134390       23       0.00147708      -0.00057975      -0.00124655
O        3.18055848       1.82387918       6.85132442       24      -0.00103895       0.00119935       0.00124655
O        5.00311179      -1.60462456       3.38376831       25      -0.00147708       0.00057975       0.00124655
O        6.01180619       3.16461168       1.62141959       26      -0.00103895      -0.00167922       0.00041540
O        3.49063132       2.27324175       3.76979462       27       0.00147708      -0.00078967       0.00112535
O        0.65938362       4.13011149       6.54908590       28       0.00147708       0.00136942       0.00012120
O        2.17186409      -0.12612258       0.38602631       29      -0.00147708      -0.00136942      -0.00012120
O       -3.18055848       0.83937723       5.31369262       30       0.00103895       0.00167922      -0.00041540
O        4.81963120       0.66487974       1.92365811       31      -0.00079874       0.00102950       0.00154075
O        0.97968910       1.24036491       5.39121422       32      -0.00123687       0.00040989       0.00154075
O        3.18055848      -0.98450194       5.39748041       33      -0.00103895       0.00047987      -0.00166195
O        1.98838349       0.00361779       3.08152979       34      -0.00079874      -0.00184908       0.00012120
O        0.97968910      -1.95723733       6.63287369       35      -0.00123687       0.00112938      -0.00112535
O       -0.65938362       1.73074715       3.16531759       36      -0.00147708       0.00078967      -0.00112535
O       -0.97968910      -0.71687243       5.08897570       37       0.00123687       0.00153927       0.00041540
O       -0.34931078       4.98849085       1.53763180       38       0.00103895      -0.00047987       0.00166195
O        3.67411192       4.67248643       5.00518791       39       0.00079874      -0.00081958       0.00166195
