40
Lattice="8.65254132384187 6.781601946670435e-10 5.329070518200751e-15 -2.884180441919998 8.157694192554496 -1.1746128514289467e-09 -2.8841804409609377 -4.078847095599085 7.064770407840049" Properties=species:S:1:pos:R:3:spacegroup_kinds:I:1:forces:R:3 spacegroup="P 1" unit_cell=conventional occupancy="_JSON {\"0\": {\"In\": 1}, \"1\": {\"In\": 1}, \"2\": {\"In\": 1}, \"3\": {\"In\": 1}, \"4\": {\"In\": 1}, \"5\": {\"In\": 1}, \"6\": {\"In\": 1}, \"7\": {\"In\": 1}, \"8\": {\"In\": 1}, \"9\": {\"In\": 1}, \"10\": {\"In\": 1}, \"11\": {\"In\": 1}, \"12\": {\"In\": 1}, \"13\": {\"In\": 1}, \"14\": {\"In\": 1}, \"15\": {\"In\": 1}, \"16\": {\"O\": 1}, \"17\": {\"O\": 1}, \"18\": {\"O\": 1}, \"19\": {\"O\": 1}, \"20\": {\"O\": 1}, \"21\": {\"O\": 1}, \"22\": {\"O\": 1}, \"23\": {\"O\": 1}, \"24\": {\"O\": 1}, \"25\": {\"O\": 1}, \"26\": {\"O\": 1}, \"27\": {\"O\": 1}, \"28\": {\"O\": 1}, \"29\": {\"O\": 1}, \"30\": {\"O\": 1}, \"31\": {\"O\": 1}, \"32\": {\"O\": 1}, \"33\": {\"O\": 1}, \"34\": {\"O\": 1}, \"35\": {\"O\": 1}, \"36\": {\"O\": 1}, \"37\": {\"O\": 1}, \"38\": {\"O\": 1}, \"39\": {\"O\": 1}}" n_minim_iter=1 energy=-45150.63213907866 stress="-0.06960886446695533 -4.376506633528356e-13 -5.773547448833375e-13 -4.376506633528356e-13 -0.06960886446765495 -7.218926511870725e-13 -5.773547448833375e-13 -7.218926511870725e-13 -0.06960886446875952" free_energy=-45150.63213907866 pbc="T T T"
In      -4.12739970       2.91851232       5.54214399        0       0.03022679      -0.02137357       0.03702011
In       7.01158014       1.16033478       1.52262641        1      -0.03022679       0.02137357      -0.03702011
In       1.24321926      -0.87908877       5.05501161        2      -0.03022679       0.02137357      -0.03702011
In      -1.44209022      -2.03942355       3.53238520        3       0.00000000      -0.00000000      -0.00000000
In      -1.24321926       3.93822409       3.28881901        4       0.03022679      -0.02137357      -0.03702011
In       4.52514162      -2.77788931       5.29857780        5       0.03022679       0.04274714       0.00000000
In      -1.24321926       1.30095779       5.29857780        6       0.03022679       0.04274714      -0.00000000
In      -1.64096118       6.85673641       1.76619260        7      -0.03022679      -0.04274714      -0.00000000
In       4.12739970       0.14062301       3.77595139        8      -0.03022679       0.02137357       0.03702011
In      -1.44209022       4.07884710      -0.00000000        9      -0.00000000      -0.00000000      -0.00000000
In       4.12739970       6.25889365       0.24356619       10      -0.03022679       0.02137357       0.03702011
In      -1.24321926      -2.18004655       6.82120421       11       0.03022679      -0.02137357      -0.03702011
In       4.12739970       2.77788931       1.76619260       12      -0.03022679      -0.04274714       0.00000000
In       1.64096118       4.95793587       2.00975879       13       0.03022679      -0.02137357       0.03702011
In       4.32627066       0.00000000      -0.00000000       14      -0.00000000      -0.00000000      -0.00000000
In       1.44209022       2.03942355       3.53238520       15      -0.00000000       0.00000000      -0.00000000
O        0.83592934       4.07548914       3.86786466       16       0.00440552       0.00177699       0.09806757
O       -2.04825110       3.35134803       5.13374615       17       0.00440552       0.08404052      -0.05057270
O       -0.41041550       2.19322337       0.07490650       18       0.08237802       0.02890563       0.04492372
O       -0.83592934      -0.73085702       1.93684040       19      -0.00440552       0.08581750       0.04749487
O        3.84243159       4.85295141       1.86193390       20       0.07776565      -0.05988078       0.00257115
O        1.92592929       2.85341720       1.60136095       21      -0.07776565      -0.03216707      -0.05057270
O        1.92592929       6.07838131       0.26057295       22      -0.07776565      -0.02771371       0.05314385
O       -2.20459599       5.77413963       3.60729170       23       0.00020685      -0.08730195       0.04492372
O        3.29459593       1.88562373       6.98986390       24      -0.08237802      -0.02890563      -0.04492372
O        5.08877642      -1.69529253       3.45747870       25      -0.00020685       0.08730195      -0.04492372
O        6.17877637       3.20090617       1.67045130       26      -0.08237802       0.05335790      -0.00257115
O        3.56376490       2.27635999       3.79295815       27       0.00020685       0.08255606       0.05314385
O        0.67958445       4.18604167       6.72929095       28       0.00020685       0.00474589      -0.09806757
O        2.20459598      -0.10719457       0.33547945       29      -0.00020685      -0.00474589       0.09806757
O       -3.29459594       0.87794093       5.39431910       30       0.08237802      -0.05335790       0.00257115
O        4.93243154       0.72749907       1.93102425       31      -0.00440552      -0.08404052       0.05057270
O        0.95825115       1.22542990       5.46340946       32       0.07776565       0.03216707       0.05057270
O        3.29459593      -1.00768280       5.46922560       33      -0.08237802      -0.02445227       0.04749487
O        2.04825110       0.00335796       3.19690575       34      -0.00440552      -0.00177699      -0.09806757
O        0.95825115      -1.99953421       6.80419745       35       0.07776565       0.02771371      -0.05314385
O       -0.67958446       1.80248711       3.27181225       36      -0.00020685      -0.08255606      -0.05314385
O       -0.95825115      -0.77410431       5.20283651       37      -0.07776565       0.05988078      -0.00257115
O       -0.41041550       5.08652990       1.59554480       38       0.08237802       0.02445227      -0.04749487
O        3.72010978       4.80970412       5.12793000       39       0.00440552      -0.08581750      -0.04749487
40
Lattice="8.652541323841868 6.781601946670434e-10 5.329070518200757e-15 -2.8841804419199977 8.157694192554494 -1.1746128514289465e-09 -2.8841804409609373 -4.078847095599084 7.064770407840048" Properties=species:S:1:pos:R:3:spacegroup_kinds:I:1:forces:R:3 spacegroup="P 1" unit_cell=conventional occupancy="_JSON {\"0\": {\"In\": 1}, \"1\": {\"In\": 1}, \"2\": {\"In\": 1}, \"3\": {\"In\": 1}, \"4\": {\"In\": 1}, \"5\": {\"In\": 1}, \"6\": {\"In\": 1}, \"7\": {\"In\": 1}, \"8\": {\"In\": 1}, \"9\": {\"In\": 1}, \"10\": {\"In\": 1}, \"11\": {\"In\": 1}, \"12\": {\"In\": 1}, \"13\": {\"In\": 1}, \"14\": {\"In\": 1}, \"15\": {\"In\": 1}, \"16\": {\"O\": 1}, \"17\": {\"O\": 1}, \"18\": {\"O\": 1}, \"19\": {\"O\": 1}, \"20\": {\"O\": 1}, \"21\": {\"O\": 1}, \"22\": {\"O\": 1}, \"23\": {\"O\": 1}, \"24\": {\"O\": 1}, \"25\": {\"O\": 1}, \"26\": {\"O\": 1}, \"27\": {\"O\": 1}, \"28\": {\"O\": 1}, \"29\": {\"O\": 1}, \"30\": {\"O\": 1}, \"31\": {\"O\": 1}, \"32\": {\"O\": 1}, \"33\": {\"O\": 1}, \"34\": {\"O\": 1}, \"35\": {\"O\": 1}, \"36\": {\"O\": 1}, \"37\": {\"O\": 1}, \"38\": {\"O\": 1}, \"39\": {\"O\": 1}}" n_minim_iter=2 energy=-45150.64456682054 stress="-0.06820573521994278 2.6819439757884806e-13 1.1691765663742202e-13 2.6819439757884806e-13 -0.06820573522088155 -5.924993673647804e-13 1.1691765663742202e-13 -5.924993673647804e-13 -0.06820573522106795" free_energy=-45150.64456682054 pbc="T T T"
In      -4.12524065       2.91698563       5.54478829        0       0.05312572      -0.03756556       0.06506545
In       7.00942108       1.16186147       1.51998212        1      -0.05312572       0.03756556      -0.06506545
In       1.24106020      -0.87756208       5.05236732        2      -0.05312572       0.03756556      -0.06506545
In      -1.44209022      -2.03942355       3.53238520        3      -0.00000000       0.00000000       0.00000000
In      -1.24106020       3.93669741       3.28617472        4       0.05312572      -0.03756556      -0.06506545
In       4.52730068      -2.77483594       5.29857780        5       0.05312572       0.07513111      -0.00000000
In      -1.24106020       1.30401115       5.29857780        6       0.05312572       0.07513111      -0.00000000
In      -1.64312024       6.85368304       1.76619260        7      -0.05312572      -0.07513111      -0.00000000
In       4.12524064       0.14214969       3.77859569        8      -0.05312572       0.03756556       0.06506545
In      -1.44209022       4.07884710      -0.00000000        9       0.00000000       0.00000000      -0.00000000
In       4.12524064       6.26042034       0.24621048       10      -0.05312572       0.03756556       0.06506545
In      -1.24106020      -2.18157324       6.81855992       11       0.05312572      -0.03756556      -0.06506545
In       4.12524064       2.77483595       1.76619260       12      -0.05312572      -0.07513111       0.00000000
In       1.64312024       4.95640918       2.01240308       13       0.05312572      -0.03756556       0.06506545
In       4.32627066       0.00000000      -0.00000000       14       0.00000000      -0.00000000       0.00000000
In       1.44209022       2.03942355       3.53238520       15       0.00000000       0.00000000       0.00000000
O        0.83624402       4.07561607       3.87486948       16      -0.00985074      -0.01952316       0.01088057
O       -2.04793642       3.35735093       5.13013381       17      -0.00985074       0.01918443       0.01146727
O       -0.40453135       2.19528806       0.07811534       18      -0.00360294       0.01476657       0.01911923
O       -0.83624402      -0.72472720       1.94023289       19       0.00985074      -0.00033873       0.02234784
O        3.84798628       4.84867421       1.86211755       20       0.02137083       0.01137722       0.00322861
O        1.92037460       2.85111955       1.59774861       21      -0.02137083       0.00289255       0.01146727
O        1.92037460       6.07640176       0.26436894       22      -0.02137083       0.00848467      -0.00823866
O       -2.20458121       5.76790378       3.61050054       23      -0.01512303      -0.00152531       0.01911923
O        3.28871179       1.88355905       6.98665506       24       0.00360293      -0.01476657      -0.01911923
O        5.08876165      -1.68905668       3.45426986       25       0.01512303       0.00152531      -0.01911923
O        6.17289223       3.20471745       1.67026765       26       0.00360294       0.02394102      -0.00322861
O        3.56377967       2.28225686       3.79675414       27      -0.01512303       0.01732039      -0.00823866
O        0.67959923       4.18638066       6.72228612       28      -0.01512303      -0.01579508      -0.01088057
O        2.20458121      -0.10753356       0.34248428       29       0.01512303       0.01579508       0.01088057
O       -3.28871179       0.87412965       5.39450275       30      -0.00360294      -0.02394102       0.00322861
O        4.93211686       0.72149617       1.93463659       31       0.00985074      -0.01918443      -0.01146727
O        0.96380584       1.22772755       5.46702179       32       0.02137083      -0.00289255      -0.01146727
O        3.28871179      -1.00942939       5.47261810       33       0.00360294      -0.00917445       0.02234784
O        2.04793642       0.00323103       3.18990092       34       0.00985074       0.01952316      -0.01088057
O        0.96380584      -1.99755466       6.80040147       35       0.02137083      -0.00848467       0.00823866
O       -0.67959923       1.79659024       3.26801626       36       0.01512303      -0.01732039       0.00823866
O       -0.96380584      -0.76982711       5.20265285       37      -0.02137083      -0.01137722      -0.00322861
O       -0.40453135       5.08827649       1.59215231       38      -0.00360294       0.00917445      -0.02234784
O        3.72042446       4.80357430       5.12453751       39      -0.00985074       0.00033873      -0.02234784
40
Lattice="8.652541323841868 6.781601946670434e-10 5.329070518200759e-15 -2.8841804419199977 8.157694192554494 -1.1746128514289465e-09 -2.8841804409609373 -4.078847095599084 7.064770407840048" Properties=species:S:1:pos:R:3:spacegroup_kinds:I:1:forces:R:3 spacegroup="P 1" unit_cell=conventional occupancy="_JSON {\"0\": {\"In\": 1}, \"1\": {\"In\": 1}, \"2\": {\"In\": 1}, \"3\": {\"In\": 1}, \"4\": {\"In\": 1}, \"5\": {\"In\": 1}, \"6\": {\"In\": 1}, \"7\": {\"In\": 1}, \"8\": {\"In\": 1}, \"9\": {\"In\": 1}, \"10\": {\"In\": 1}, \"11\": {\"In\": 1}, \"12\": {\"In\": 1}, \"13\": {\"In\": 1}, \"14\": {\"In\": 1}, \"15\": {\"In\": 1}, \"16\": {\"O\": 1}, \"17\": {\"O\": 1}, \"18\": {\"O\": 1}, \"19\": {\"O\": 1}, \"20\": {\"O\": 1}, \"21\": {\"O\": 1}, \"22\": {\"O\": 1}, \"23\": {\"O\": 1}, \"24\": {\"O\": 1}, \"25\": {\"O\": 1}, \"26\": {\"O\": 1}, \"27\": {\"O\": 1}, \"28\": {\"O\": 1}, \"29\": {\"O\": 1}, \"30\": {\"O\": 1}, \"31\": {\"O\": 1}, \"32\": {\"O\": 1}, \"33\": {\"O\": 1}, \"34\": {\"O\": 1}, \"35\": {\"O\": 1}, \"36\": {\"O\": 1}, \"37\": {\"O\": 1}, \"38\": {\"O\": 1}, \"39\": {\"O\": 1}}" n_minim_iter=3 energy=-45150.64816207154 stress="-0.06733125653934216 -1.9907169406477804e-13 8.080119989855998e-14 -1.9907169406477804e-13 -0.06733125653931253 -4.410098392816546e-14 8.080119989855998e-14 -4.410098392816546e-14 -0.0673312565398874" free_energy=-45150.64816207154 pbc="T T T"
In      -4.12306183       2.91544498       5.54745678        0       0.04620143      -0.03266935       0.05658497
In       7.00724227       1.16340212       1.51731362        1      -0.04620143       0.03266935      -0.05658497
In       1.23888139      -0.87602143       5.04969883        2      -0.04620143       0.03266935      -0.05658497
In      -1.44209022      -2.03942355       3.53238520        3      -0.00000000       0.00000000       0.00000000
In      -1.23888139       3.93515675       3.28350622        4       0.04620143      -0.03266935      -0.05658497
In       4.52947949      -2.77175463       5.29857780        5       0.04620143       0.06533869       0.00000000
In      -1.23888139       1.30709246       5.29857780        6       0.04620143       0.06533869      -0.00000000
In      -1.64529906       6.85060173       1.76619260        7      -0.04620143      -0.06533869       0.00000000
In       4.12306183       0.14369035       3.78126418        8      -0.04620143       0.03266935       0.05658497
In      -1.44209022       4.07884710      -0.00000000        9       0.00000000      -0.00000000       0.00000000
In       4.12306183       6.26196099       0.24887897       10      -0.04620143       0.03266935       0.05658497
In      -1.23888139      -2.18311389       6.81589143       11       0.04620143      -0.03266935      -0.05658497
In       4.12306183       2.77175464       1.76619260       12      -0.04620143      -0.06533869       0.00000000
In       1.64529905       4.95486853       2.01507157       13       0.04620143      -0.03266935       0.05658497
In       4.32627066       0.00000000      -0.00000000       14      -0.00000000      -0.00000000      -0.00000000
In       1.44209022       2.03942355       3.53238520       15      -0.00000000      -0.00000000       0.00000000
O        0.83619806       4.07527625       3.87860195       16      -0.00898429      -0.01877206      -0.02127607
O       -2.04798238       3.36075325       5.12856187       17      -0.00898429      -0.00903959       0.02689511
O       -0.40165931       2.19662705       0.08011720       18      -0.02921583       0.00526627       0.00211664
O       -0.83619806      -0.72166469       1.94239342       19       0.00898429      -0.02781164       0.00561904
O        3.85120934       4.84676748       1.86227622       20      -0.00552784       0.02903368       0.00350241
O        1.91715154       2.85002877       1.59617667       21       0.00552784       0.01148367       0.02689511
O        1.91715154       6.07558581       0.26609955       22       0.00552784       0.01755001      -0.02339270
O       -2.20488628       5.76474966       3.61250240       23      -0.01470370       0.02578953       0.00211664
O        3.28583975       1.88222005       6.98465320       24       0.02921583      -0.00526627      -0.00211664
O        5.08906672      -1.68590256       3.45226800       25       0.01470370      -0.02578953      -0.00211664
O        6.17002019       3.20712060       1.67010898       26       0.02921583       0.00446620      -0.00350241
O        3.56347460       2.28556757       3.79848475       27      -0.01470370      -0.01106170      -0.02339270
O        0.67929416       4.18622406       6.71855365       28      -0.01470370      -0.01472782       0.02127607
O        2.20488628      -0.10737696       0.34621675       29       0.01470370       0.01472782      -0.02127607
O       -3.28583975       0.87172650       5.39466143       30      -0.02921583      -0.00446620       0.00350241
O        4.93216282       0.71809385       1.93620853       31       0.00898429       0.00903959      -0.02689511
O        0.96702890       1.22881833       5.46859373       32      -0.00552784      -0.01148367      -0.02689511
O        3.28583975      -1.01049355       5.47477863       33       0.02921583       0.00080008       0.00561904
O        2.04798238       0.00357085       3.18616845       34       0.00898429       0.01877206       0.02127607
O        0.96702890      -1.99673871       6.79867085       35      -0.00552784      -0.01755001       0.02339270
O       -0.67929416       1.79327953       3.26628565       36       0.01470370       0.01106170       0.02339270
O       -0.96702890      -0.76792038       5.20249418       37       0.00552784      -0.02903368      -0.00350241
O       -0.40165931       5.08934065       1.58999177       38      -0.02921583      -0.00080008      -0.00561904
O        3.72037850       4.80051179       5.12237698       39      -0.00898429       0.02781164      -0.00561904
40
Lattice="8.652541323841868 6.781601946670434e-10 5.329070518200762e-15 -2.8841804419199977 8.157694192554494 -1.1746128514289465e-09 -2.8841804409609373 -4.078847095599084 7.064770407840048" Properties=species:S:1:pos:R:3:spacegroup_kinds:I:1:forces:R:3 spacegroup="P 1" unit_cell=conventional occupancy="_JSON {\"0\": {\"In\": 1}, \"1\": {\"In\": 1}, \"2\": {\"In\": 1}, \"3\": {\"In\": 1}, \"4\": {\"In\": 1}, \"5\": {\"In\": 1}, \"6\": {\"In\": 1}, \"7\": {\"In\": 1}, \"8\": {\"In\": 1}, \"9\": {\"In\": 1}, \"10\": {\"In\": 1}, \"11\": {\"In\": 1}, \"12\": {\"In\": 1}, \"13\": {\"In\": 1}, \"14\": {\"In\": 1}, \"15\": {\"In\": 1}, \"16\": {\"O\": 1}, \"17\": {\"O\": 1}, \"18\": {\"O\": 1}, \"19\": {\"O\": 1}, \"20\": {\"O\": 1}, \"21\": {\"O\": 1}, \"22\": {\"O\": 1}, \"23\": {\"O\": 1}, \"24\": {\"O\": 1}, \"25\": {\"O\": 1}, \"26\": {\"O\": 1}, \"27\": {\"O\": 1}, \"28\": {\"O\": 1}, \"29\": {\"O\": 1}, \"30\": {\"O\": 1}, \"31\": {\"O\": 1}, \"32\": {\"O\": 1}, \"33\": {\"O\": 1}, \"34\": {\"O\": 1}, \"35\": {\"O\": 1}, \"36\": {\"O\": 1}, \"37\": {\"O\": 1}, \"38\": {\"O\": 1}, \"39\": {\"O\": 1}}" n_minim_iter=4 energy=-45150.65001040801 stress="-0.06681817805720534 -4.566070310147743e-13 -3.801745771138109e-13 -4.566070310147743e-13 -0.06681817805734964 -3.8961342343172837e-13 -3.801745771138109e-13 -3.8961342343172837e-13 -0.06681817805720931" free_energy=-45150.65001040801 pbc="T T T"
In      -4.12102924       2.91400772       5.54994618        0       0.02501174      -0.01768597       0.03063300
In       7.00520968       1.16483938       1.51482422        1      -0.02501174       0.01768597      -0.03063300
In       1.23684880      -0.87458417       5.04720942        2      -0.02501174       0.01768597      -0.03063300
In      -1.44209022      -2.03942355       3.53238520        3      -0.00000000       0.00000000      -0.00000000
In      -1.23684880       3.93371950       3.28101682        4       0.02501174      -0.01768597      -0.03063300
In       4.53151208      -2.76888012       5.29857780        5       0.02501174       0.03537195       0.00000000
In      -1.23684880       1.30996698       5.29857780        6       0.02501174       0.03537195      -0.00000000
In      -1.64733164       6.84772722       1.76619260        7      -0.02501174      -0.03537195      -0.00000000
In       4.12102924       0.14512760       3.78375358        8      -0.02501174       0.01768597       0.03063300
In      -1.44209022       4.07884710      -0.00000000        9       0.00000000       0.00000000       0.00000000
In       4.12102924       6.26339825       0.25136838       10      -0.02501174       0.01768597       0.03063300
In      -1.23684880      -2.18455115       6.81340203       11       0.02501174      -0.01768597      -0.03063300
In       4.12102924       2.76888012       1.76619260       12      -0.02501174      -0.03537195       0.00000000
In       1.64733164       4.95343127       2.01756098       13       0.02501174      -0.01768597       0.03063300
In       4.32627066       0.00000000      -0.00000000       14      -0.00000000      -0.00000000       0.00000000
In       1.44209022       2.03942355       3.53238520       15      -0.00000000      -0.00000000       0.00000000
O        0.83603292       4.07477407       3.88036659       16      -0.00059809      -0.00628011      -0.02247681
O       -2.04814752       3.36253256       5.12811446       17      -0.00059809      -0.01632543       0.01667714
O       -0.40051028       2.19747709       0.08127932       18      -0.02151207      -0.00153701      -0.00893716
O       -0.83603292      -0.72038757       1.94371064       19       0.00059809      -0.02260554      -0.00579967
O        3.85294194       4.84616131       1.86243132       20      -0.01519240       0.01744567       0.00313749
O        1.91541894       2.84959136       1.59572926       21       0.01519240       0.00600569       0.01667714
O        1.91541894       6.07541704       0.26670206       22       0.01519240       0.01143998      -0.01353965
O       -2.20530469       5.76338299       3.61366452       23      -0.00572158       0.02079411      -0.00893716
O        3.28469071       1.88137001       6.98349108       24       0.02151207       0.00153701       0.00893716
O        5.08948513      -1.68453589       3.45110588       25       0.00572158      -0.02079411       0.00893716
O        6.16887116       3.20855205       1.66995388       26       0.02151207      -0.00850831      -0.00313749
O        3.56305619       2.28725734       3.79908727       27      -0.00572158      -0.01813686      -0.01353965
O        0.67887575       4.18590097       6.71678902       28      -0.00572158      -0.00265725       0.02247681
O        2.20530469      -0.10705387       0.34798138       29       0.00572158       0.00265725      -0.02247681
O       -3.28469072       0.87029505       5.39481652       30      -0.02151207       0.00850831       0.00313749
O        4.93232796       0.71631454       1.93665594       31       0.00059809       0.01632543      -0.01667714
O        0.96876150       1.22925574       5.46904115       32      -0.01519240      -0.00600569      -0.01667714
O        3.28469071      -1.01107496       5.47609585       33       0.02151207       0.00697130      -0.00579967
O        2.04814752       0.00407303       3.18440382       34       0.00059809       0.00628011       0.02247681
O        0.96876150      -1.99656994       6.79806834       35      -0.01519240      -0.01143998       0.01353965
O       -0.67887575       1.79158977       3.26568314       36       0.00572158       0.01813686       0.01353965
O       -0.96876150      -0.76731421       5.20233908       37       0.01519240      -0.01744567      -0.00313749
O       -0.40051028       5.08992206       1.58867456       38      -0.02151207      -0.00697130       0.00579967
O        3.72021336       4.79923467       5.12105976       39      -0.00059809       0.02260554       0.00579967
40
Lattice="8.652541323841866 6.781601946670433e-10 5.329070518200763e-15 -2.8841804419199972 8.157694192554493 -1.1746128514289463e-09 -2.884180440960937 -4.078847095599083 7.064770407840047" Properties=species:S:1:pos:R:3:spacegroup_kinds:I:1:forces:R:3 spacegroup="P 1" unit_cell=conventional occupancy="_JSON {\"0\": {\"In\": 1}, \"1\": {\"In\": 1}, \"2\": {\"In\": 1}, \"3\": {\"In\": 1}, \"4\": {\"In\": 1}, \"5\": {\"In\": 1}, \"6\": {\"In\": 1}, \"7\": {\"In\": 1}, \"8\": {\"In\": 1}, \"9\": {\"In\": 1}, \"10\": {\"In\": 1}, \"11\": {\"In\": 1}, \"12\": {\"In\": 1}, \"13\": {\"In\": 1}, \"14\": {\"In\": 1}, \"15\": {\"In\": 1}, \"16\": {\"O\": 1}, \"17\": {\"O\": 1}, \"18\": {\"O\": 1}, \"19\": {\"O\": 1}, \"20\": {\"O\": 1}, \"21\": {\"O\": 1}, \"22\": {\"O\": 1}, \"23\": {\"O\": 1}, \"24\": {\"O\": 1}, \"25\": {\"O\": 1}, \"26\": {\"O\": 1}, \"27\": {\"O\": 1}, \"28\": {\"O\": 1}, \"29\": {\"O\": 1}, \"30\": {\"O\": 1}, \"31\": {\"O\": 1}, \"32\": {\"O\": 1}, \"33\": {\"O\": 1}, \"34\": {\"O\": 1}, \"35\": {\"O\": 1}, \"36\": {\"O\": 1}, \"37\": {\"O\": 1}, \"38\": {\"O\": 1}, \"39\": {\"O\": 1}}" n_minim_iter=5 energy=-45150.65062126428 stress="-0.06669483025094257 -4.3180995409272036e-13 -3.1531737080114247e-13 -4.3180995409272036e-13 -0.06669483025080583 4.627661139213779e-14 -3.1531737080114247e-13 4.627661139213779e-14 -0.06669483025089554" free_energy=-45150.65062126428 pbc="T T T"
In      -4.11990279       2.91321120       5.55132580        0       0.00656697      -0.00464355       0.00804286
In       7.00408323       1.16563590       1.51344460        1      -0.00656697       0.00464355      -0.00804286
In       1.23572234      -0.87378765       5.04582981        2      -0.00656697       0.00464355      -0.00804286
In      -1.44209022      -2.03942355       3.53238520        3       0.00000000      -0.00000000       0.00000000
In      -1.23572235       3.93292297       3.27963720        4       0.00656697      -0.00464355      -0.00804286
In       4.53263854      -2.76728707       5.29857780        5       0.00656697       0.00928709       0.00000000
In      -1.23572235       1.31156002       5.29857780        6       0.00656697       0.00928709      -0.00000000
In      -1.64845810       6.84613417       1.76619260        7      -0.00656697      -0.00928709      -0.00000000
In       4.11990279       0.14592413       3.78513320        8      -0.00656697       0.00464355       0.00804286
In      -1.44209022       4.07884710      -0.00000000        9      -0.00000000      -0.00000000       0.00000000
In       4.11990278       6.26419477       0.25274799       10      -0.00656697       0.00464355       0.00804286
In      -1.23572235      -2.18534767       6.81202241       11       0.00656697      -0.00464355      -0.00804286
In       4.11990278       2.76728708       1.76619260       12      -0.00656697      -0.00928709      -0.00000000
In       1.64845809       4.95263475       2.01894060       13       0.00656697      -0.00464355       0.00804286
In       4.32627066       0.00000000      -0.00000000       14       0.00000000       0.00000000       0.00000000
In       1.44209022       2.03942355       3.53238520       15      -0.00000000      -0.00000000       0.00000000
O        0.83597372       4.07449746       3.88044279       16       0.00728194       0.00484458      -0.00911254
O       -2.04820672       3.36273686       5.12831591       17       0.00728194      -0.01031398       0.00036074
O       -0.40059818       2.19770169       0.08144560       18      -0.00272929      -0.00323498      -0.01190046
O       -0.83597373      -0.72045988       1.94398829       19      -0.00728194      -0.00546940      -0.00875180
O        3.85315428       4.84632962       1.86254269       20      -0.01215143      -0.00140133       0.00314866
O        1.91520660       2.84957908       1.59593071       21       0.01215143      -0.00342748       0.00036074
O        1.91520660       6.07559765       0.26661198       22       0.01215143       0.00202615       0.00278792
O       -2.20554575       5.76339101       3.61383081       23       0.00214020       0.00365152      -0.01190046
O        3.28477862       1.88114541       6.98332480       24       0.00272929       0.00323498       0.01190046
O        5.08972619      -1.68454390       3.45093959       25      -0.00214020      -0.00365152       0.01190046
O        6.16895906       3.20880836       1.66984251       26       0.00272929      -0.01192359      -0.00314866
O        3.56281513       2.28739734       3.79899718       27       0.00214020      -0.01213186       0.00278792
O        0.67863469       4.18575295       6.71671282       28       0.00214020       0.00848034       0.00911254
O        2.20554575      -0.10690585       0.34805759       29      -0.00214020      -0.00848034      -0.00911254
O       -3.28477863       0.87003874       5.39492789       30      -0.00272929       0.01192359       0.00314866
O        4.93238716       0.71611024       1.93645449       31      -0.00728194       0.01031398      -0.00036074
O        0.96897384       1.22926802       5.46883970       32      -0.01215143       0.00342748      -0.00036074
O        3.28477862      -1.01110667       5.47637350       33       0.00272929       0.00868861      -0.00875180
O        2.04820672       0.00434964       3.18432761       34      -0.00728194      -0.00484458       0.00911254
O        0.96897384      -1.99675054       6.79815842       35      -0.01215143      -0.00202615      -0.00278792
O       -0.67863469       1.79144976       3.26577322       36      -0.00214020       0.01213186      -0.00278792
O       -0.96897385      -0.76748252       5.20222772       37       0.01215143       0.00140133      -0.00314866
O       -0.40059818       5.08995377       1.58839690       38      -0.00272929      -0.00868861       0.00875180
O        3.72015416       4.79930698       5.12078211       39       0.00728194       0.00546940       0.00875180
40