40
Lattice="9.566060184310883 7.4975803343591e-10 5.773159728050814e-15 -3.1886867288105036 9.018968033836563 -1.2986465236508593e-09 -3.188686727750195 -4.5094840161685 7.810655434088009" Properties=species:S:1:pos:R:3:spacegroup_kinds:I:1:forces:R:3 spacegroup="P 1" unit_cell=conventional occupancy="_JSON {\"0\": {\"In\": 1}, \"1\": {\"In\": 1}, \"2\": {\"In\": 1}, \"3\": {\"In\": 1}, \"4\": {\"In\": 1}, \"5\": {\"In\": 1}, \"6\": {\"In\": 1}, \"7\": {\"In\": 1}, \"8\": {\"In\": 1}, \"9\": {\"In\": 1}, \"10\": {\"In\": 1}, \"11\": {\"In\": 1}, \"12\": {\"In\": 1}, \"13\": {\"In\": 1}, \"14\": {\"In\": 1}, \"15\": {\"In\": 1}, \"16\": {\"O\": 1}, \"17\": {\"O\": 1}, \"18\": {\"O\": 1}, \"19\": {\"O\": 1}, \"20\": {\"O\": 1}, \"21\": {\"O\": 1}, \"22\": {\"O\": 1}, \"23\": {\"O\": 1}, \"24\": {\"O\": 1}, \"25\": {\"O\": 1}, \"26\": {\"O\": 1}, \"27\": {\"O\": 1}, \"28\": {\"O\": 1}, \"29\": {\"O\": 1}, \"30\": {\"O\": 1}, \"31\": {\"O\": 1}, \"32\": {\"O\": 1}, \"33\": {\"O\": 1}, \"34\": {\"O\": 1}, \"35\": {\"O\": 1}, \"36\": {\"O\": 1}, \"37\": {\"O\": 1}, \"38\": {\"O\": 1}, \"39\": {\"O\": 1}}" n_minim_iter=1 energy=-45142.93373926541 stress="0.11702477625127707 7.314694640567787e-15 2.4673831811831467e-14 7.314694640567787e-15 0.1170247762507845 -3.8846114460230084e-14 2.4673831811831467e-14 -3.8846114460230084e-14 0.11702477625100606" free_energy=-45142.93373926541 pbc="T T T"
In      -4.50246006       3.18372004       6.20161828        0       0.05287196      -0.03738612       0.06475467
In       7.69114678       1.32576398       1.60903714        1      -0.05287196       0.03738612      -0.06475467
In       1.31377333      -0.92897803       5.51436486        2      -0.05287196       0.03738612      -0.06475467
In      -1.59434337      -2.25474201       3.90532771        3      -0.00000000       0.00000000      -0.00000000
In      -1.31377333       4.31109104       3.56170100        4       0.05287196      -0.03738612      -0.06475467
In       5.06360013      -2.98532706       5.85799157        5       0.05287196       0.07477225       0.00000000
In      -1.31377333       1.52415696       5.85799157        6       0.05287196       0.07477225       0.00000000
In      -1.87491340       7.49481108       1.95266385        7      -0.05287196      -0.07477225       0.00000000
In       4.50246005       0.19839298       4.24895443        8      -0.05287196       0.03738612       0.06475467
In      -1.59434337       4.50948402      -0.00000000        9       0.00000000      -0.00000000      -0.00000000
In       4.50246005       6.96261900       0.34362671       10      -0.05287196       0.03738612       0.06475467
In      -1.31377333      -2.45313498       7.46702872       11       0.05287196      -0.03738612      -0.06475467
In       4.50246005       2.98532707       1.95266386       12      -0.05287196      -0.07477225       0.00000000
In       1.87491340       5.43846205       2.29629057       13       0.05287196      -0.03738612       0.06475467
In       4.78303009       0.00000000      -0.00000000       14      -0.00000000       0.00000000      -0.00000000
In       1.59434336       2.25474201       3.90532771       15       0.00000000       0.00000000      -0.00000000
O        1.08308624       4.51867399       4.20464266       16       0.01523982       0.03984935      -0.04852963
O       -2.10560049       3.63673238       5.70037536       17       0.01523982      -0.06195257      -0.01024574
O       -0.45314501       2.46826990      -0.08644371       18      -0.01575917      -0.04003297      -0.04821159
O       -1.08308624      -0.86356167       2.09436258       19      -0.01523982      -0.02210322      -0.05877537
O        4.13061099       5.32313740       2.18080629       20      -0.06348938      -0.00573176      -0.01056377
O        2.24676246       3.02767706       1.79504764       21       0.06348938       0.00628262      -0.01024574
O        2.24676246       6.80494436       0.38575864       22       0.06348938      -0.01201438      -0.00031804
O       -2.47815552       6.36869861       3.81888401       23       0.03249039       0.02820221      -0.04821159
O        3.64183174       2.04121412       7.89709913       24       0.01575917       0.04003297       0.04821159
O        5.66684224      -1.85921458       3.99177142       25      -0.03249039      -0.02820221       0.04821159
O        6.83051846       3.41401452       1.72452143       26       0.01575917      -0.06176895       0.01056377
O        3.89921794       2.37764328       4.29108636       27       0.03249039      -0.05585357      -0.00031804
O        0.71053121       4.78211017       7.51134049       28       0.03249039       0.02765136       0.04852963
O        2.47815551      -0.27262615       0.29931494       29      -0.03249039      -0.02765136      -0.04852963
O       -3.64183174       1.09546950       6.08613400       30      -0.01575917       0.06176895      -0.01056377
O        5.29428721       0.87275164       2.11028007       31      -0.01523982       0.06195257       0.01024574
O        0.94192426       1.48180696       6.01560779       32      -0.06348938      -0.00628262       0.01024574
O        3.64183174      -0.94574461       5.99969030       33       0.01575917       0.02173598      -0.05877537
O        2.10560049      -0.00918996       3.60601277       34      -0.01523982      -0.03984935       0.04852963
O        0.94192426      -2.29546033       7.42489679       35      -0.06348938       0.01201438       0.00031804
O       -0.71053121       2.13184074       3.51956907       36      -0.03249039       0.05585357       0.00031804
O       -0.94192427      -0.81365338       5.62984914       37       0.06348938       0.00573176       0.01056377
O       -0.45314501       5.45522863       1.81096513       38      -0.01575917      -0.02173598       0.05877537
O        4.27177297       5.37304570       5.71629284       39       0.01523982       0.02210322       0.05877537
40
Lattice="9.566060184310889 7.497580334359106e-10 5.7731597280508235e-15 -3.1886867288105063 9.018968033836568 -1.29864652365086e-09 -3.1886867277501976 -4.509484016168503 7.810655434088014" Properties=species:S:1:pos:R:3:spacegroup_kinds:I:1:forces:R:3 spacegroup="P 1" unit_cell=conventional occupancy="_JSON {\"0\": {\"In\": 1}, \"1\": {\"In\": 1}, \"2\": {\"In\": 1}, \"3\": {\"In\": 1}, \"4\": {\"In\": 1}, \"5\": {\"In\": 1}, \"6\": {\"In\": 1}, \"7\": {\"In\": 1}, \"8\": {\"In\": 1}, \"9\": {\"In\": 1}, \"10\": {\"In\": 1}, \"11\": {\"In\": 1}, \"12\": {\"In\": 1}, \"13\": {\"In\": 1}, \"14\": {\"In\": 1}, \"15\": {\"In\": 1}, \"16\": {\"O\": 1}, \"17\": {\"O\": 1}, \"18\": {\"O\": 1}, \"19\": {\"O\": 1}, \"20\": {\"O\": 1}, \"21\": {\"O\": 1}, \"22\": {\"O\": 1}, \"23\": {\"O\": 1}, \"24\": {\"O\": 1}, \"25\": {\"O\": 1}, \"26\": {\"O\": 1}, \"27\": {\"O\": 1}, \"28\": {\"O\": 1}, \"29\": {\"O\": 1}, \"30\": {\"O\": 1}, \"31\": {\"O\": 1}, \"32\": {\"O\": 1}, \"33\": {\"O\": 1}, \"34\": {\"O\": 1}, \"35\": {\"O\": 1}, \"36\": {\"O\": 1}, \"37\": {\"O\": 1}, \"38\": {\"O\": 1}, \"39\": {\"O\": 1}}" n_minim_iter=2 energy=-45142.94310159373 stress="0.11603673439904215 -1.3689622856988907e-13 2.8468459399452874e-15 -1.3689622856988907e-13 0.11603673439880614 7.310447364969961e-14 2.8468459399452874e-15 7.310447364969961e-14 0.11603673439873581" free_energy=-45142.94310159373 pbc="T T T"
In      -4.49868349       3.18104960       6.20624362        0       0.02570049      -0.01817299       0.03147654
In       7.68737021       1.32843442       1.60441181        1      -0.02570049       0.01817299      -0.03147654
In       1.30999676      -0.92630759       5.50973953        2      -0.02570049       0.01817299      -0.03147654
In      -1.59434337      -2.25474201       3.90532771        3       0.00000000      -0.00000000      -0.00000000
In      -1.30999676       4.30842061       3.55707567        4       0.02570049      -0.01817299      -0.03147654
In       5.06737670      -2.97998619       5.85799157        5       0.02570049       0.03634598       0.00000000
In      -1.30999676       1.52949783       5.85799157        6       0.02570049       0.03634598      -0.00000000
In      -1.87868997       7.48947021       1.95266385        7      -0.02570049      -0.03634598       0.00000000
In       4.49868349       0.20106341       4.25357976        8      -0.02570049       0.01817299       0.03147654
In      -1.59434337       4.50948402      -0.00000000        9       0.00000000       0.00000000      -0.00000000
In       4.49868349       6.96528944       0.34825204       10      -0.02570049       0.01817299       0.03147654
In      -1.30999676      -2.45580542       7.46240339       11       0.02570049      -0.01817299      -0.03147654
In       4.49868349       2.97998619       1.95266386       12      -0.02570049      -0.03634598       0.00000000
In       1.87868997       5.43579161       2.30091590       13       0.02570049      -0.01817299       0.03147654
In       4.78303009       0.00000000      -0.00000000       14       0.00000000      -0.00000000      -0.00000000
In       1.59434336       2.25474201       3.90532771       15       0.00000000      -0.00000000       0.00000000
O        1.08417480       4.52152037       4.20117626       16       0.01238648      -0.00312985      -0.00839595
O       -2.10451193       3.63230719       5.69964352       17       0.01238648      -0.00570618       0.00690851
O       -0.45427067       2.46541040      -0.08988739       18      -0.00420187       0.00602355      -0.01340798
O       -1.08417480      -0.86514048       2.09016434       19      -0.01238648      -0.00883603      -0.00148745
O        4.12607604       5.32272799       2.18005173       20      -0.00950867       0.00109493       0.01192054
O        2.25129742       3.02812582       1.79431580       21       0.00950867      -0.00977602       0.00690851
O        2.25129742       6.80408619       0.38573593       22       0.00950867       0.01087095       0.00501203
O       -2.47583478       6.37071305       3.81544033       23      -0.00707968       0.00195371      -0.01340798
O        3.64295739       2.04407362       7.90054282       24       0.00420187      -0.00602355       0.01340798
O        5.66452150      -1.86122903       3.99521510       25       0.00707968      -0.00195371       0.01340798
O        6.83164412       3.40960245       1.72527598       26       0.00420187      -0.00859988      -0.01192054
O        3.90153868       2.37365374       4.29106364       27      -0.00707968      -0.01258851       0.00501203
O        0.71285195       4.78408527       7.51480689       28      -0.00707968       0.01063480       0.00839595
O        2.47583477      -0.27460125       0.29584854       29       0.00707968      -0.01063480      -0.00839595
O       -3.64295739       1.09988157       6.08537945       30      -0.00420187       0.00859988       0.01192054
O        5.29319866       0.87717683       2.11101191       31      -0.01238648       0.00570618      -0.00690851
O        0.93738931       1.48135820       6.01633963       32      -0.00950867       0.00977602      -0.00690851
O        3.64295739      -0.94419204       5.99549206       33       0.00420187       0.01462343      -0.00148745
O        2.10451193      -0.01203635       3.60947917       34      -0.01238648       0.00312985       0.00839595
O        0.93738931      -2.29460216       7.42491950       35      -0.00950867      -0.01087095      -0.00501203
O       -0.71285196       2.13583028       3.51959178       36       0.00707968       0.01258851      -0.00501203
O       -0.93738931      -0.81324397       5.63060370       37       0.00950867      -0.00109493      -0.01192054
O       -0.45427067       5.45367607       1.81516337       38      -0.00420187      -0.01462343       0.00148745
O        4.27286153       5.37462450       5.72049108       39       0.01238648       0.00883603       0.00148745
40
Lattice="9.566060184310896 7.497580334359111e-10 5.773159728050845e-15 -3.1886867288105085 9.018968033836577 -1.298646523650861e-09 -3.1886867277502 -4.509484016168507 7.810655434088019" Properties=species:S:1:pos:R:3:spacegroup_kinds:I:1:forces:R:3 spacegroup="P 1" unit_cell=conventional occupancy="_JSON {\"0\": {\"In\": 1}, \"1\": {\"In\": 1}, \"2\": {\"In\": 1}, \"3\": {\"In\": 1}, \"4\": {\"In\": 1}, \"5\": {\"In\": 1}, \"6\": {\"In\": 1}, \"7\": {\"In\": 1}, \"8\": {\"In\": 1}, \"9\": {\"In\": 1}, \"10\": {\"In\": 1}, \"11\": {\"In\": 1}, \"12\": {\"In\": 1}, \"13\": {\"In\": 1}, \"14\": {\"In\": 1}, \"15\": {\"In\": 1}, \"16\": {\"O\": 1}, \"17\": {\"O\": 1}, \"18\": {\"O\": 1}, \"19\": {\"O\": 1}, \"20\": {\"O\": 1}, \"21\": {\"O\": 1}, \"22\": {\"O\": 1}, \"23\": {\"O\": 1}, \"24\": {\"O\": 1}, \"25\": {\"O\": 1}, \"26\": {\"O\": 1}, \"27\": {\"O\": 1}, \"28\": {\"O\": 1}, \"29\": {\"O\": 1}, \"30\": {\"O\": 1}, \"31\": {\"O\": 1}, \"32\": {\"O\": 1}, \"33\": {\"O\": 1}, \"34\": {\"O\": 1}, \"35\": {\"O\": 1}, \"36\": {\"O\": 1}, \"37\": {\"O\": 1}, \"38\": {\"O\": 1}, \"39\": {\"O\": 1}}" n_minim_iter=3 energy=-45142.944304217366 stress="0.11554866298049786 -2.2068010974918166e-13 -3.2456547957876676e-13 -2.2068010974918166e-13 0.11554866297985845 -6.192380573801823e-15 -3.2456547957876676e-13 -6.192380573801823e-15 0.11554866297965916" free_energy=-45142.944304217366 pbc="T T T"
In      -4.49677795       3.17970218       6.20857742        0       0.01222814      -0.00864660       0.01497635
In       7.68546467       1.32978184       1.60207801        1      -0.01222814       0.00864660      -0.01497635
In       1.30809122      -0.92496017       5.50740573        2      -0.01222814       0.00864660      -0.01497635
In      -1.59434337      -2.25474201       3.90532771        3       0.00000000       0.00000000      -0.00000000
In      -1.30809122       4.30707319       3.55474187        4       0.01222814      -0.00864660      -0.01497635
In       5.06928223      -2.97729135       5.85799157        5       0.01222814       0.01729320       0.00000000
In      -1.30809122       1.53219267       5.85799157        6       0.01222814       0.01729320      -0.00000000
In      -1.88059551       7.48677537       1.95266385        7      -0.01222814      -0.01729320      -0.00000000
In       4.49677795       0.20241083       4.25591356        8      -0.01222814       0.00864660       0.01497635
In      -1.59434337       4.50948402      -0.00000000        9       0.00000000      -0.00000000       0.00000000
In       4.49677795       6.96663686       0.35058584       10      -0.01222814       0.00864660       0.01497635
In      -1.30809122      -2.45715284       7.46006959       11       0.01222814      -0.00864660      -0.01497635
In       4.49677795       2.97729135       1.95266386       12      -0.01222814      -0.01729320       0.00000000
In       1.88059551       5.43444419       2.30324970       13       0.01222814      -0.00864660       0.01497635
In       4.78303009       0.00000000      -0.00000000       14      -0.00000000      -0.00000000       0.00000000
In       1.59434336       2.25474201       3.90532771       15       0.00000000       0.00000000       0.00000000
O        1.08482564       4.52249744       4.19973725       16       0.00989102      -0.01878701       0.00951040
O       -2.10386109       3.63057244       5.69951685       17       0.00989102       0.01762975       0.01151483
O       -0.45476807       2.46448758      -0.09142036       18       0.00220594       0.02306393       0.00210256
O       -1.08482564      -0.86589815       2.08859867       19      -0.00989102      -0.00115725       0.02102523
O        4.12422355       5.32260061       2.18001903       20       0.01332448       0.00237117       0.01892267
O        2.25314990       3.02809045       1.79418913       21      -0.01332448      -0.01520193       0.01151483
O        2.25314990       6.80399417       0.38582989       22      -0.01332448       0.01757309       0.00740784
O       -2.47513053       6.37148961       3.81390736       23      -0.02100957      -0.00976775       0.00210256
O        3.64345479       2.04499644       7.90207579       24      -0.00220594      -0.02306393      -0.00210256
O        5.66381726      -1.86200559       3.99674807       25       0.02100957       0.00976775      -0.00210256
O        6.83214152       3.40781345       1.72530868       26      -0.00220594       0.01335283      -0.01892267
O        3.90224293       2.37193787       4.29115761       27      -0.02100957       0.00670475       0.00740784
O        0.71355620       4.78502458       7.51624589       28      -0.02100957       0.00306301      -0.00951040
O        2.47513053      -0.27554056       0.29440953       29       0.02100957      -0.00306301       0.00951040
O       -3.64345479       1.10167057       6.08534675       30       0.00220594      -0.01335283       0.01892267
O        5.29254781       0.87891158       2.11113858       31      -0.00989102      -0.01762975      -0.01151483
O        0.93553682       1.48139357       6.01646629       32       0.01332448       0.01520193      -0.01151483
O        3.64345479      -0.94332586       5.99392639       33      -0.00220594       0.00971109       0.02102523
O        2.10386109      -0.01301342       3.61091818       34      -0.00989102       0.01878701      -0.00951040
O        0.93553682      -2.29451015       7.42482554       35       0.01332448      -0.01757309      -0.00740784
O       -0.71355620       2.13754615       3.51949782       36       0.02100957      -0.00670475      -0.00740784
O       -0.93553683      -0.81311659       5.63063640       37      -0.01332448      -0.00237117      -0.01892267
O       -0.45476807       5.45280989       1.81672904       38       0.00220594      -0.00971109      -0.02102523
O        4.27351237       5.37538218       5.72205676       39       0.00989102       0.00115725      -0.02102523
40
Lattice="9.566060184310908 7.49758033435912e-10 5.773159728050913e-15 -3.1886867288105125 9.01896803383659 -1.2986465236508628e-09 -3.188686727750204 -4.509484016168513 7.810655434088029" Properties=species:S:1:pos:R:3:spacegroup_kinds:I:1:forces:R:3 spacegroup="P 1" unit_cell=conventional occupancy="_JSON {\"0\": {\"In\": 1}, \"1\": {\"In\": 1}, \"2\": {\"In\": 1}, \"3\": {\"In\": 1}, \"4\": {\"In\": 1}, \"5\": {\"In\": 1}, \"6\": {\"In\": 1}, \"7\": {\"In\": 1}, \"8\": {\"In\": 1}, \"9\": {\"In\": 1}, \"10\": {\"In\": 1}, \"11\": {\"In\": 1}, \"12\": {\"In\": 1}, \"13\": {\"In\": 1}, \"14\": {\"In\": 1}, \"15\": {\"In\": 1}, \"16\": {\"O\": 1}, \"17\": {\"O\": 1}, \"18\": {\"O\": 1}, \"19\": {\"O\": 1}, \"20\": {\"O\": 1}, \"21\": {\"O\": 1}, \"22\": {\"O\": 1}, \"23\": {\"O\": 1}, \"24\": {\"O\": 1}, \"25\": {\"O\": 1}, \"26\": {\"O\": 1}, \"27\": {\"O\": 1}, \"28\": {\"O\": 1}, \"29\": {\"O\": 1}, \"30\": {\"O\": 1}, \"31\": {\"O\": 1}, \"32\": {\"O\": 1}, \"33\": {\"O\": 1}, \"34\": {\"O\": 1}, \"35\": {\"O\": 1}, \"36\": {\"O\": 1}, \"37\": {\"O\": 1}, \"38\": {\"O\": 1}, \"39\": {\"O\": 1}}" n_minim_iter=4 energy=-45142.94512335396 stress="0.1151351334116353 8.416248310469518e-14 8.401206380186987e-14 8.416248310469518e-14 0.11513513341156101 4.334300084116213e-14 8.401206380186987e-14 4.334300084116213e-14 0.11513513341108735" free_energy=-45142.94512335396 pbc="T T T"
In      -4.49438555       3.17801050       6.21150749        0      -0.00121679       0.00086040      -0.00149026
In       7.68307228       1.33147352       1.59914794        1       0.00121679      -0.00086040       0.00149026
In       1.30569882      -0.92326849       5.50447565        2       0.00121679      -0.00086040       0.00149026
In      -1.59434337      -2.25474201       3.90532771        3      -0.00000000       0.00000000       0.00000000
In      -1.30569883       4.30538151       3.55181179        4      -0.00121679       0.00086040       0.00149026
In       5.07167463      -2.97390799       5.85799157        5      -0.00121679      -0.00172080       0.00000000
In      -1.30569883       1.53557603       5.85799157        6      -0.00121679      -0.00172080      -0.00000000
In      -1.88298791       7.48339201       1.95266385        7       0.00121679       0.00172080      -0.00000000
In       4.49438555       0.20410251       4.25884363        8       0.00121679      -0.00086040      -0.00149026
In      -1.59434337       4.50948402      -0.00000000        9       0.00000000      -0.00000000       0.00000000
In       4.49438555       6.96832854       0.35351592       10       0.00121679      -0.00086040      -0.00149026
In      -1.30569883      -2.45884452       7.45713951       11      -0.00121679       0.00086040       0.00149026
In       4.49438555       2.97390799       1.95266386       12       0.00121679       0.00172080       0.00000000
In       1.88298790       5.43275251       2.30617978       13      -0.00121679       0.00086040      -0.00149026
In       4.78303009       0.00000000      -0.00000000       14       0.00000000       0.00000000      -0.00000000
In       1.59434336       2.25474201       3.90532771       15      -0.00000000      -0.00000000      -0.00000000
O        1.08608457       4.52178871       4.19938285       16       0.00307080      -0.01212483       0.01762144
O       -2.10260216       3.63061989       5.70030783       17       0.00307080       0.02132303       0.00168969
O       -0.45497188       2.46556935      -0.09242088       18       0.00969574       0.01663848       0.00980356
O       -1.08608458      -0.86655944       2.08903525       19      -0.00307080       0.00919820       0.01931113
O        4.12384864       5.32268424       2.18145613       20       0.01907995      -0.00353811       0.00950757
O        2.25352481       3.02688770       1.79498011       21      -0.01907995      -0.01000285       0.00168969
O        2.25352481       6.80528056       0.38647601       22      -0.01907995       0.00646474       0.00781788
O       -2.47621837       6.37132118       3.81290684       23      -0.01245500      -0.01468740       0.00980356
O        3.64365861       2.04391467       7.90307631       24      -0.00969574      -0.01663848      -0.00980356
O        5.66490510      -1.86183716       3.99774859       25       0.01245500       0.01468740      -0.00980356
O        6.83234534       3.40748786       1.72387158       26      -0.00969574       0.01680938      -0.00950757
O        3.90115508       2.37115561       4.29180373       27      -0.01245500       0.01583383       0.00781788
O        0.71246835       4.78597527       7.51660029       28      -0.01245500      -0.00114644      -0.01762144
O        2.47621837      -0.27649125       0.29405514       29       0.01245500       0.00114644       0.01762144
O       -3.64365861       1.10199616       6.08678385       30       0.00969574      -0.01680938       0.00950757
O        5.29128888       0.87886413       2.11034760       31      -0.00307080      -0.02132303      -0.00168969
O        0.93516191       1.48259632       6.01567531       32       0.01907995       0.01000285      -0.00168969
O        3.64365861      -0.94191850       5.99436297       33      -0.00969574      -0.00017089       0.01931113
O        2.10260215      -0.01230469       3.61127257       34      -0.00307080       0.01212483      -0.01762144
O        0.93516191      -2.29579654       7.42417942       35       0.01907995      -0.00646474      -0.00781788
O       -0.71246836       2.13832841       3.51885170       36       0.01245500      -0.01583383      -0.00781788
O       -0.93516192      -0.81320022       5.62919930       37      -0.01907995       0.00353811      -0.00950757
O       -0.45497189       5.45140252       1.81629246       38       0.00969574       0.00017089      -0.01931113
O        4.27477130       5.37604346       5.72162017       39       0.00307080      -0.00919820      -0.01931113
40
Lattice="9.566060184310913 7.497580334359124e-10 5.773159728050954e-15 -3.188686728810514 9.018968033836593 -1.2986465236508634e-09 -3.188686727750205 -4.509484016168515 7.810655434088033" Properties=species:S:1:pos:R:3:spacegroup_kinds:I:1:forces:R:3 spacegroup="P 1" unit_cell=conventional occupancy="_JSON {\"0\": {\"In\": 1}, \"1\": {\"In\": 1}, \"2\": {\"In\": 1}, \"3\": {\"In\": 1}, \"4\": {\"In\": 1}, \"5\": {\"In\": 1}, \"6\": {\"In\": 1}, \"7\": {\"In\": 1}, \"8\": {\"In\": 1}, \"9\": {\"In\": 1}, \"10\": {\"In\": 1}, \"11\": {\"In\": 1}, \"12\": {\"In\": 1}, \"13\": {\"In\": 1}, \"14\": {\"In\": 1}, \"15\": {\"In\": 1}, \"16\": {\"O\": 1}, \"17\": {\"O\": 1}, \"18\": {\"O\": 1}, \"19\": {\"O\": 1}, \"20\": {\"O\": 1}, \"21\": {\"O\": 1}, \"22\": {\"O\": 1}, \"23\": {\"O\": 1}, \"24\": {\"O\": 1}, \"25\": {\"O\": 1}, \"26\": {\"O\": 1}, \"27\": {\"O\": 1}, \"28\": {\"O\": 1}, \"29\": {\"O\": 1}, \"30\": {\"O\": 1}, \"31\": {\"O\": 1}, \"32\": {\"O\": 1}, \"33\": {\"O\": 1}, \"34\": {\"O\": 1}, \"35\": {\"O\": 1}, \"36\": {\"O\": 1}, \"37\": {\"O\": 1}, \"38\": {\"O\": 1}, \"39\": {\"O\": 1}}" n_minim_iter=5 energy=-45142.945493485684 stress="0.1152208449580668 1.3242829749286747e-14 2.824368304093441e-13 1.3242829749286747e-14 0.1152208449580599 -1.5857770683168188e-13 2.824368304093441e-13 -1.5857770683168188e-13 0.11522084495805104" free_energy=-45142.945493485684 pbc="T T T"
In      -4.49434785       3.17798385       6.21155367        0       0.00029212      -0.00020656       0.00035777
In       7.68303458       1.33150018       1.59910176        1      -0.00029212       0.00020656      -0.00035777
In       1.30566112      -0.92324183       5.50442948        2      -0.00029212       0.00020656      -0.00035777
In      -1.59434337      -2.25474201       3.90532771        3       0.00000000       0.00000000      -0.00000000
In      -1.30566113       4.30535485       3.55176562        4       0.00029212      -0.00020656      -0.00035777
In       5.07171233      -2.97385467       5.85799157        5       0.00029212       0.00041312       0.00000000
In      -1.30566113       1.53562935       5.85799157        6       0.00029212       0.00041312      -0.00000000
In      -1.88302561       7.48333869       1.95266385        7      -0.00029212      -0.00041312      -0.00000000
In       4.49434785       0.20412917       4.25888981        8      -0.00029212       0.00020656       0.00035777
In      -1.59434337       4.50948402      -0.00000000        9      -0.00000000      -0.00000000      -0.00000000
In       4.49434785       6.96835520       0.35356209       10      -0.00029212       0.00020656       0.00035777
In      -1.30566113      -2.45887118       7.45709334       11       0.00029212      -0.00020656      -0.00035777
In       4.49434785       2.97385468       1.95266386       12      -0.00029212      -0.00041312      -0.00000000
In       1.88302560       5.43272585       2.30622595       13       0.00029212      -0.00020656       0.00035777
In       4.78303009       0.00000000      -0.00000000       14      -0.00000000       0.00000000       0.00000000
In       1.59434336       2.25474201       3.90532771       15       0.00000000       0.00000000       0.00000000
O        1.08629219       4.52100682       4.20006560       16       0.00161629      -0.00124228       0.01090506
O       -2.10239453       3.63160212       5.70064359       17       0.00161629       0.01006520      -0.00437668
O       -0.45471380       2.46651590      -0.09202332       18       0.00885709       0.00494518       0.00449145
O       -1.08629220      -0.86635910       2.09005376       19      -0.00161629       0.00882292       0.00652838
O        4.12470548       5.32271344       2.18207708       20       0.00895080      -0.00622978       0.00203693
O        2.25266797       3.02636455       1.79531587       21      -0.00895080      -0.00487892      -0.00437668
O        2.25266797       6.80583291       0.38676120       22      -0.00895080      -0.00135086       0.00641361
O       -2.47702475       6.37076234       3.81330440       23      -0.00171000      -0.00999894       0.00449145
O        3.64340053       2.04296813       7.90267874       24      -0.00885709      -0.00494518      -0.00449145
O        5.66571148      -1.86127832       3.99735103       25       0.00171000       0.00999894      -0.00449145
O        6.83208725       3.40830543       1.72325063       26      -0.00885709       0.00636230      -0.00203693
O        3.90034870       2.37177933       4.29208892       27      -0.00171000       0.00888918       0.00641361
O        0.71166197       4.78591039       7.51591754       28      -0.00171000       0.00110976      -0.01090506
O        2.47702475      -0.27642637       0.29473789       29       0.00171000      -0.00110976       0.01090506
O       -3.64340053       1.10117859       6.08740479       30       0.00885709      -0.00636230       0.00203693
O        5.29108126       0.87788191       2.11001184       31      -0.00161629      -0.01006520       0.00437668
O        0.93601875       1.48311948       6.01533955       32       0.00895080       0.00487892       0.00437668
O        3.64340053      -0.94178953       5.99538148       33      -0.00885709      -0.00141712       0.00652838
O        2.10239453      -0.01152280       3.61058983       34      -0.00161629       0.00124228      -0.01090506
O        0.93601876      -2.29634889       7.42389423       35       0.00895080       0.00135086      -0.00641361
O       -0.71166198       2.13770470       3.51856651       36       0.00171000      -0.00888918      -0.00641361
O       -0.93601876      -0.81322942       5.62857835       37      -0.00895080       0.00622978      -0.00203693
O       -0.45471380       5.45127355       1.81527395       38       0.00885709       0.00141712      -0.00652838
O        4.27497892       5.37584313       5.72060166       39       0.00161629      -0.00882292      -0.00652838
40