40
Lattice="8.729800245052486 6.842162392217688e-10 4.440892098500626e-16 -2.909933415662581 8.230534602012725 -1.1851013503871854e-09 -2.9099334146949523 -4.115267300322142 7.12785205285993" Properties=species:S:1:pos:R:3:spacegroup_kinds:I:1:forces:R:3 spacegroup="P 1" unit_cell=conventional occupancy="_JSON {\"0\": {\"In\": 1}, \"1\": {\"In\": 1}, \"2\": {\"In\": 1}, \"3\": {\"In\": 1}, \"4\": {\"In\": 1}, \"5\": {\"In\": 1}, \"6\": {\"In\": 1}, \"7\": {\"In\": 1}, \"8\": {\"In\": 1}, \"9\": {\"In\": 1}, \"10\": {\"In\": 1}, \"11\": {\"In\": 1}, \"12\": {\"In\": 1}, \"13\": {\"In\": 1}, \"14\": {\"In\": 1}, \"15\": {\"In\": 1}, \"16\": {\"O\": 1}, \"17\": {\"O\": 1}, \"18\": {\"O\": 1}, \"19\": {\"O\": 1}, \"20\": {\"O\": 1}, \"21\": {\"O\": 1}, \"22\": {\"O\": 1}, \"23\": {\"O\": 1}, \"24\": {\"O\": 1}, \"25\": {\"O\": 1}, \"26\": {\"O\": 1}, \"27\": {\"O\": 1}, \"28\": {\"O\": 1}, \"29\": {\"O\": 1}, \"30\": {\"O\": 1}, \"31\": {\"O\": 1}, \"32\": {\"O\": 1}, \"33\": {\"O\": 1}, \"34\": {\"O\": 1}, \"35\": {\"O\": 1}, \"36\": {\"O\": 1}, \"37\": {\"O\": 1}, \"38\": {\"O\": 1}, \"39\": {\"O\": 1}}" n_minim_iter=1 energy=-45151.36542505137 stress="-0.0447739486218921 2.5104857643388282e-14 3.694895241241583e-13 2.5104857643388282e-14 -0.044773948621072104 -1.7949383573436633e-16 3.694895241241583e-13 -1.7949383573436633e-16 -0.044773948621041615" free_energy=-45151.36542505137 pbc="T T T"
In      -4.16843399       2.94752794       5.58650993        0       0.00271146      -0.00191729       0.00332084
In       7.07836740       1.16773936       1.54134212        1      -0.00271146       0.00191729      -0.00332084
In       1.25850057      -0.88989429       5.10526814        2      -0.00271146       0.00191729      -0.00332084
In      -1.45496671      -2.05763365       3.56392602        3      -0.00000000       0.00000000       0.00000000
In      -1.25850057       3.97634477       3.32330513        4       0.00271146      -0.00191729      -0.00332084
In       4.56136626      -2.80860540       5.34588904        5       0.00271146       0.00383458      -0.00000000
In      -1.25850057       1.30666190       5.34588904        6       0.00271146       0.00383458      -0.00000000
In      -1.65143285       6.92387270       1.78196301        7      -0.00271146      -0.00383458       0.00000000
In       4.16843398       0.13892254       3.80454692        8      -0.00271146       0.00191729       0.00332084
In      -1.45496671       4.11526730      -0.00000000        9       0.00000000      -0.00000000       0.00000000
In       4.16843398       6.31182349       0.24062089       10      -0.00271146       0.00191729       0.00332084
In      -1.25850057      -2.19655619       6.88723116       11       0.00271146      -0.00191729      -0.00332084
In       4.16843398       2.80860540       1.78196301       12      -0.00271146      -0.00383458      -0.00000000
In       1.65143284       5.00516159       2.02258390       13       0.00271146      -0.00191729       0.00332084
In       4.36490012       0.00000000      -0.00000000       14      -0.00000000       0.00000000      -0.00000000
In       1.45496671       2.05763365       3.56392602       15       0.00000000       0.00000000       0.00000000
O        0.84673242       4.11269221       3.89121095       16      -0.01082060       0.00935942       0.10574497
O       -2.06320099       3.37117509       5.18447666       17      -0.01082060       0.08689812      -0.06097798
O       -0.42172055       2.21047313       0.06701937       18       0.08714562       0.01762555       0.05900563
O       -0.84673242      -0.74666730       1.94783557       19       0.01082060       0.09625754       0.04476699
O        3.86610801       4.90062826       1.88081620       20       0.08553520      -0.06219063      -0.01423865
O        1.95375881       2.87911317       1.62055064       21      -0.08553520      -0.01876428      -0.06097798
O        1.95375881       6.13678239       0.26026556       22      -0.08553520      -0.04342634       0.04673934
O       -2.22462757       5.83367852       3.63094539       23       0.01243101      -0.08803686       0.05900563
O        3.33165396       1.90479417       7.06083268       24      -0.08714562      -0.01762555      -0.05900563
O        5.13456098      -1.71841122       3.49690665       25      -0.01243101       0.08803686      -0.05900563
O        6.24158737       3.22091070       1.68310982       26      -0.08714562       0.05991315       0.01423865
O        3.59523926       2.28528535       3.82419158       27       0.01243101       0.09511881       0.04673934
O        0.68530584       4.22683804       6.80056712       28       0.01243101      -0.00708195      -0.10574497
O        2.22462757      -0.11157074       0.32728493       29      -0.01243101       0.00708195       0.10574497
O       -3.33165396       0.89435661       5.44474222       30       0.08714562      -0.05991315      -0.01423865
O        4.97313441       0.74409222       1.94337538       31       0.01082060      -0.08689812       0.06097798
O        0.95617460       1.23615413       5.50730141       32       0.08553520       0.01876428       0.06097798
O        3.33165396      -1.01043756       5.51176160       33      -0.08714562      -0.04228760       0.04476699
O        2.06320099       0.00257509       3.23664109       34       0.01082060      -0.00935942      -0.10574497
O        0.95617460      -2.02151509       6.86758649       35       0.08553520       0.04342634      -0.04673934
O       -0.68530585       1.82998196       3.30366047       36      -0.01243101      -0.09511881      -0.04673934
O       -0.95617460      -0.78536096       5.24703585       37      -0.08553520       0.06219063       0.01423865
O       -0.42172055       5.12570487       1.61609045       38       0.08714562       0.04228760      -0.04476699
O        3.75666584       4.86193461       5.18001648       39      -0.01082060      -0.09625754      -0.04476699
40
Lattice="8.729800245052482 6.842162392217686e-10 4.440892098500604e-16 -2.9099334156625796 8.230534602012723 -1.1851013503871848e-09 -2.909933414694951 -4.115267300322141 7.127852052859927" Properties=species:S:1:pos:R:3:spacegroup_kinds:I:1:forces:R:3 spacegroup="P 1" unit_cell=conventional occupancy="_JSON {\"0\": {\"In\": 1}, \"1\": {\"In\": 1}, \"2\": {\"In\": 1}, \"3\": {\"In\": 1}, \"4\": {\"In\": 1}, \"5\": {\"In\": 1}, \"6\": {\"In\": 1}, \"7\": {\"In\": 1}, \"8\": {\"In\": 1}, \"9\": {\"In\": 1}, \"10\": {\"In\": 1}, \"11\": {\"In\": 1}, \"12\": {\"In\": 1}, \"13\": {\"In\": 1}, \"14\": {\"In\": 1}, \"15\": {\"In\": 1}, \"16\": {\"O\": 1}, \"17\": {\"O\": 1}, \"18\": {\"O\": 1}, \"19\": {\"O\": 1}, \"20\": {\"O\": 1}, \"21\": {\"O\": 1}, \"22\": {\"O\": 1}, \"23\": {\"O\": 1}, \"24\": {\"O\": 1}, \"25\": {\"O\": 1}, \"26\": {\"O\": 1}, \"27\": {\"O\": 1}, \"28\": {\"O\": 1}, \"29\": {\"O\": 1}, \"30\": {\"O\": 1}, \"31\": {\"O\": 1}, \"32\": {\"O\": 1}, \"33\": {\"O\": 1}, \"34\": {\"O\": 1}, \"35\": {\"O\": 1}, \"36\": {\"O\": 1}, \"37\": {\"O\": 1}, \"38\": {\"O\": 1}, \"39\": {\"O\": 1}}" n_minim_iter=2 energy=-45151.37514773336 stress="-0.043405021042197935 -4.2089093323761527e-13 -4.055606855619354e-14 -4.2089093323761527e-13 -0.043405021043591986 -2.0534571724000212e-13 -4.055606855619354e-14 -2.0534571724000212e-13 -0.043405021042554615" free_energy=-45151.37514773336 pbc="T T T"
In      -4.16824073       2.94739129       5.58674662        0       0.05062155      -0.03579484       0.06199848
In       7.07817414       1.16787602       1.54110542        1      -0.05062155       0.03579484      -0.06199848
In       1.25830731      -0.88975763       5.10503145        2      -0.05062155       0.03579484      -0.06199848
In      -1.45496671      -2.05763365       3.56392602        3      -0.00000000      -0.00000000       0.00000000
In      -1.25830731       3.97620811       3.32306844        4       0.05062155      -0.03579484      -0.06199848
In       4.56155952      -2.80833209       5.34588904        5       0.05062155       0.07158968      -0.00000000
In      -1.25830731       1.30693521       5.34588904        6       0.05062155       0.07158968      -0.00000000
In      -1.65162611       6.92359939       1.78196301        7      -0.05062155      -0.07158968       0.00000000
In       4.16824073       0.13905919       3.80478361        8      -0.05062155       0.03579484       0.06199848
In      -1.45496671       4.11526730      -0.00000000        9       0.00000000       0.00000000       0.00000000
In       4.16824072       6.31196015       0.24085758       10      -0.05062155       0.03579484       0.06199848
In      -1.25830731      -2.19669284       6.88699446       11       0.05062155      -0.03579484      -0.06199848
In       4.16824073       2.80833209       1.78196301       12      -0.05062155      -0.07158968       0.00000000
In       1.65162610       5.00502494       2.02282060       13       0.05062155      -0.03579484       0.06199848
In       4.36490012       0.00000000      -0.00000000       14       0.00000000       0.00000000      -0.00000000
In       1.45496671       2.05763365       3.56392602       15      -0.00000000       0.00000000      -0.00000000
O        0.84596118       4.11335931       3.89874795       16      -0.02814210      -0.03259007      -0.00266749
O       -2.06397223       3.37736877       5.18013045       17      -0.02814210       0.01398492       0.02955757
O       -0.41550923       2.21172940       0.07122501       18      -0.02692180       0.01312204       0.03105213
O       -0.84596118      -0.73980653       1.95102634       19       0.02814210      -0.01860515       0.02689008
O        3.87220455       4.89619561       1.87980133       20       0.02256581       0.03653310      -0.00416205
O        1.94766228       2.87777575       1.61620442       21      -0.02256581       0.02187099       0.02955757
O        1.94766228       6.13368717       0.26359691       22      -0.02256581       0.01466211      -0.03371962
O       -2.22374155       5.82740368       3.63515103       23      -0.02134551       0.02100811       0.03105213
O        3.32544264       1.90353791       7.05662704       24       0.02692180      -0.01312204      -0.03105213
O        5.13367496      -1.71213637       3.49270101       25       0.02134551      -0.02100811      -0.03105213
O        6.23537605       3.22518102       1.68412469       26       0.02692180       0.03345295       0.00416205
O        3.59612528       2.29206496       3.82752294       27      -0.02134551       0.01638788      -0.03371962
O        0.68619187       4.22633327       6.79303013       28      -0.02134551      -0.03739598       0.00266749
O        2.22374154      -0.11106597       0.33482192       29       0.02134551       0.03739598      -0.00266749
O       -3.32544264       0.89008629       5.44372736       30      -0.02692180      -0.03345295      -0.00416205
O        4.97390565       0.73789854       1.94772160       31       0.02814210      -0.01398492      -0.02955757
O        0.96227114       1.23749156       5.51164763       32       0.02256581      -0.02187099      -0.02955757
O        3.32544264      -1.01345162       5.51495237       33       0.02692180      -0.02033091       0.02689008
O        2.06397223       0.00190800       3.22910410       34       0.02814210       0.03259007       0.00266749
O        0.96227114      -2.01841986       6.86425514       35       0.02256581      -0.01466211       0.03371962
O       -0.68619187       1.82320235       3.30032911       36       0.02134551      -0.01638788       0.03371962
O       -0.96227114      -0.78092831       5.24805071       37      -0.02256581      -0.03653310       0.00416205
O       -0.41550923       5.12871892       1.61289968       38      -0.02692180       0.02033091      -0.02689008
O        3.75589460       4.85507383       5.17682570       39      -0.02814210       0.01860515      -0.02689008
40
Lattice="8.72980024505248 6.842162392217686e-10 4.4408920985005103e-16 -2.9099334156625796 8.230534602012721 -1.1851013503871852e-09 -2.909933414694951 -4.11526730032214 7.127852052859928" Properties=species:S:1:pos:R:3:spacegroup_kinds:I:1:forces:R:3 spacegroup="P 1" unit_cell=conventional occupancy="_JSON {\"0\": {\"In\": 1}, \"1\": {\"In\": 1}, \"2\": {\"In\": 1}, \"3\": {\"In\": 1}, \"4\": {\"In\": 1}, \"5\": {\"In\": 1}, \"6\": {\"In\": 1}, \"7\": {\"In\": 1}, \"8\": {\"In\": 1}, \"9\": {\"In\": 1}, \"10\": {\"In\": 1}, \"11\": {\"In\": 1}, \"12\": {\"In\": 1}, \"13\": {\"In\": 1}, \"14\": {\"In\": 1}, \"15\": {\"In\": 1}, \"16\": {\"O\": 1}, \"17\": {\"O\": 1}, \"18\": {\"O\": 1}, \"19\": {\"O\": 1}, \"20\": {\"O\": 1}, \"21\": {\"O\": 1}, \"22\": {\"O\": 1}, \"23\": {\"O\": 1}, \"24\": {\"O\": 1}, \"25\": {\"O\": 1}, \"26\": {\"O\": 1}, \"27\": {\"O\": 1}, \"28\": {\"O\": 1}, \"29\": {\"O\": 1}, \"30\": {\"O\": 1}, \"31\": {\"O\": 1}, \"32\": {\"O\": 1}, \"33\": {\"O\": 1}, \"34\": {\"O\": 1}, \"35\": {\"O\": 1}, \"36\": {\"O\": 1}, \"37\": {\"O\": 1}, \"38\": {\"O\": 1}, \"39\": {\"O\": 1}}" n_minim_iter=3 energy=-45151.379983611114 stress="-0.0425273526475383 -9.403005700539534e-14 -3.787158432898971e-13 -9.403005700539534e-14 -0.04252735264656172 -8.838662339951036e-14 -3.787158432898971e-13 -8.838662339951036e-14 -0.04252735264659528" free_energy=-45151.379983611114 pbc="T T T"
In      -4.16455859       2.94478762       5.59125630        0       0.00309490      -0.00218842       0.00379046
In       7.07449201       1.17047968       1.53659575        1      -0.00309490       0.00218842      -0.00379046
In       1.25462518      -0.88715397       5.10052178        2      -0.00309490       0.00218842      -0.00379046
In      -1.45496671      -2.05763365       3.56392602        3       0.00000000      -0.00000000      -0.00000000
In      -1.25462518       3.97360445       3.31855876        4       0.00309490      -0.00218842      -0.00379046
In       4.56524165      -2.80312476       5.34588904        5       0.00309490       0.00437685       0.00000000
In      -1.25462518       1.31214254       5.34588904        6       0.00309490       0.00437685       0.00000000
In      -1.65530824       6.91839207       1.78196301        7      -0.00309490      -0.00437685       0.00000000
In       4.16455859       0.14166286       3.80929328        8      -0.00309490       0.00218842       0.00379046
In      -1.45496671       4.11526730      -0.00000000        9       0.00000000       0.00000000       0.00000000
In       4.16455859       6.31456381       0.24536726       10      -0.00309490       0.00218842       0.00379046
In      -1.25462518      -2.19929650       6.88248479       11       0.00309490      -0.00218842      -0.00379046
In       4.16455859       2.80312477       1.78196301       12      -0.00309490      -0.00437685      -0.00000000
In       1.65530824       5.00242127       2.02733027       13       0.00309490      -0.00218842       0.00379046
In       4.36490012       0.00000000      -0.00000000       14       0.00000000       0.00000000       0.00000000
In       1.45496671       2.05763365       3.56392602       15      -0.00000000      -0.00000000      -0.00000000
O        0.84360340       4.11135932       3.90208726       16      -0.00191950       0.00998339      -0.00016818
O       -2.06633002       3.38126069       5.18019283       17      -0.00191950      -0.00513734      -0.00856178
O       -0.41451142       2.21324856       0.07539713       18       0.00392906      -0.00927291      -0.00139878
O       -0.84360340      -0.73791459       1.95442804       19       0.00191950       0.00484605      -0.00872996
O        3.87665982       4.89671246       1.87903091       20      -0.00420370      -0.00565363      -0.00733118
O        1.94320701       2.87870138       1.61626681       21       0.00420370       0.00352217      -0.00856178
O        1.94320701       6.13327838       0.26276410       22       0.00420370      -0.00917581       0.00123060
O       -2.22484123       5.82595655       3.63932316       23       0.01005227      -0.00061339      -0.00139878
O        3.32444483       1.90201874       7.05245491       24      -0.00392906       0.00927291       0.00139878
O        5.13477464      -1.71068924       3.48852889       25      -0.01005227       0.00061339       0.00139878
O        6.23437825       3.22955377       1.68489511       26      -0.00392906      -0.00584783       0.00733118
O        3.59502560       2.29640169       3.82669012       27       0.01005227      -0.00090468       0.00123060
O        0.68509219       4.22344367       6.78969081       28       0.01005227       0.00151807       0.00016818
O        2.22484123      -0.10817637       0.33816123       29      -0.01005227      -0.00151807      -0.00016818
O       -3.32444484       0.88571354       5.44295693       30       0.00392906       0.00584783      -0.00733118
O        4.97626343       0.73400661       1.94765921       31       0.00191950       0.00513734       0.00856178
O        0.96672641       1.23656593       5.51158524       32      -0.00420370      -0.00352217       0.00856178
O        3.32444483      -1.01630520       5.51835407       33      -0.00392906      -0.00342507      -0.00872996
O        2.06633001       0.00390799       3.22576479       34       0.00191950      -0.00998339       0.00016818
O        0.96672641      -2.01801108       6.86508795       35      -0.00420370       0.00917581      -0.00123060
O       -0.68509219       1.81886561       3.30116192       36      -0.01005227       0.00090468      -0.00123060
O       -0.96672641      -0.78144515       5.24882114       37       0.00420370       0.00565363       0.00733118
O       -0.41451142       5.13157251       1.60949798       38       0.00392906       0.00342507       0.00872996
O        3.75353681       4.85318190       5.17342400       39      -0.00191950      -0.00484605       0.00872996
40
Lattice="8.729800245052482 6.842162392217689e-10 4.440892098500485e-16 -2.909933415662581 8.230534602012723 -1.1851013503871863e-09 -2.9099334146949523 -4.115267300322141 7.127852052859932" Properties=species:S:1:pos:R:3:spacegroup_kinds:I:1:forces:R:3 spacegroup="P 1" unit_cell=conventional occupancy="_JSON {\"0\": {\"In\": 1}, \"1\": {\"In\": 1}, \"2\": {\"In\": 1}, \"3\": {\"In\": 1}, \"4\": {\"In\": 1}, \"5\": {\"In\": 1}, \"6\": {\"In\": 1}, \"7\": {\"In\": 1}, \"8\": {\"In\": 1}, \"9\": {\"In\": 1}, \"10\": {\"In\": 1}, \"11\": {\"In\": 1}, \"12\": {\"In\": 1}, \"13\": {\"In\": 1}, \"14\": {\"In\": 1}, \"15\": {\"In\": 1}, \"16\": {\"O\": 1}, \"17\": {\"O\": 1}, \"18\": {\"O\": 1}, \"19\": {\"O\": 1}, \"20\": {\"O\": 1}, \"21\": {\"O\": 1}, \"22\": {\"O\": 1}, \"23\": {\"O\": 1}, \"24\": {\"O\": 1}, \"25\": {\"O\": 1}, \"26\": {\"O\": 1}, \"27\": {\"O\": 1}, \"28\": {\"O\": 1}, \"29\": {\"O\": 1}, \"30\": {\"O\": 1}, \"31\": {\"O\": 1}, \"32\": {\"O\": 1}, \"33\": {\"O\": 1}, \"34\": {\"O\": 1}, \"35\": {\"O\": 1}, \"36\": {\"O\": 1}, \"37\": {\"O\": 1}, \"38\": {\"O\": 1}, \"39\": {\"O\": 1}}" n_minim_iter=4 energy=-45151.380067175436 stress="-0.04245090053704694 -2.358522987950194e-14 9.402978603040178e-14 -2.358522987950194e-14 -0.04245090053816198 1.5916095611757312e-13 9.402978603040178e-14 1.5916095611757312e-13 -0.04245090053729837" free_energy=-45151.380067175436 pbc="T T T"
In      -4.16425343       2.94457184       5.59163004        0       0.00147718      -0.00104452       0.00180917
In       7.07418685       1.17069546       1.53622201        1      -0.00147718       0.00104452      -0.00180917
In       1.25432002      -0.88693819       5.10014803        2      -0.00147718       0.00104452      -0.00180917
In      -1.45496671      -2.05763365       3.56392602        3       0.00000000       0.00000000       0.00000000
In      -1.25432002       3.97338867       3.31818502        4       0.00147718      -0.00104452      -0.00180917
In       4.56554681      -2.80269320       5.34588904        5       0.00147718       0.00208905      -0.00000000
In      -1.25432002       1.31257410       5.34588904        6       0.00147718       0.00208905       0.00000000
In      -1.65561340       6.91796051       1.78196301        7      -0.00147718      -0.00208905       0.00000000
In       4.16425343       0.14187864       3.80966703        8      -0.00147718       0.00104452       0.00180917
In      -1.45496671       4.11526730      -0.00000000        9      -0.00000000       0.00000000      -0.00000000
In       4.16425343       6.31477959       0.24574100       10      -0.00147718       0.00104452       0.00180917
In      -1.25432002      -2.19951228       6.88211105       11       0.00147718      -0.00104452      -0.00180917
In       4.16425343       2.80269321       1.78196301       12      -0.00147718      -0.00208905       0.00000000
In       1.65561340       5.00220549       2.02770401       13       0.00147718      -0.00104452       0.00180917
In       4.36490012       0.00000000      -0.00000000       14       0.00000000      -0.00000000       0.00000000
In       1.45496671       2.05763365       3.56392602       15       0.00000000      -0.00000000      -0.00000000
O        0.84339339       4.11187937       3.90240099       16       0.00027450       0.00061367      -0.00296509
O       -2.06654003       3.38127237       5.17958559       17       0.00027450      -0.00287467       0.00095109
O       -0.41408011       2.21280676       0.07557535       18      -0.00204020      -0.00123794      -0.00188382
O       -0.84339339      -0.73738287       1.95413453       19      -0.00027450      -0.00226101      -0.00201400
O        3.87674083       4.89628363       1.87855919       20      -0.00280177       0.00117338      -0.00013017
O        1.94312600       2.87889548       1.61565957       21       0.00280177       0.00069942       0.00095109
O        1.94312600       6.13265544       0.26289961       22       0.00280177       0.00047396      -0.00108127
O       -2.22428092       5.82569718       3.63950137       23       0.00048707       0.00233616      -0.00188382
O        3.32401353       1.90246055       7.05227670       24       0.00204020       0.00123794       0.00188382
O        5.13421433      -1.71042987       3.48835068       25      -0.00048707      -0.00233616       0.00188382
O        6.23394694       3.22948720       1.68536683       26       0.00204020      -0.00225041       0.00013017
O        3.59558591       2.29668571       3.82682564       27       0.00048707      -0.00279952      -0.00108127
O        0.68565249       4.22341902       6.78937708       28       0.00048707       0.00046336       0.00296509
O        2.22428092      -0.10815172       0.33847496       29      -0.00048707      -0.00046336      -0.00296509
O       -3.32401353       0.88578010       5.44248521       30      -0.00204020       0.00225041      -0.00013017
O        4.97647344       0.73399494       1.94826645       31      -0.00027450       0.00287467      -0.00095109
O        0.96680741       1.23637182       5.51219248       32      -0.00280177      -0.00069942      -0.00095109
O        3.32401353      -1.01668044       5.51806056       33       0.00204020       0.00101247      -0.00201400
O        2.06654002       0.00338794       3.22545106       34      -0.00027450      -0.00061367       0.00296509
O        0.96680742      -2.01738814       6.86495243       35      -0.00280177      -0.00047396       0.00108127
O       -0.68565250       1.81858159       3.30102641       36      -0.00048707       0.00279952       0.00108127
O       -0.96680742      -0.78101632       5.24929286       37       0.00280177      -0.00117338       0.00013017
O       -0.41408011       5.13194775       1.60979149       38      -0.00204020      -0.00101247       0.00201400
O        3.75332680       4.85265018       5.17371751       39       0.00027450       0.00226101       0.00201400
