40
Lattice="9.167002144192963 7.184817185645893e-10 3.5527136788004765e-15 -3.0556673820750464 8.642732505507785 -1.244456537818905e-09 -3.055667381058961 -4.3213662520354035 7.484825908712911" Properties=species:S:1:pos:R:3:spacegroup_kinds:I:1:forces:R:3 spacegroup="P 1" unit_cell=conventional occupancy="_JSON {\"0\": {\"In\": 1}, \"1\": {\"In\": 1}, \"2\": {\"In\": 1}, \"3\": {\"In\": 1}, \"4\": {\"In\": 1}, \"5\": {\"In\": 1}, \"6\": {\"In\": 1}, \"7\": {\"In\": 1}, \"8\": {\"In\": 1}, \"9\": {\"In\": 1}, \"10\": {\"In\": 1}, \"11\": {\"In\": 1}, \"12\": {\"In\": 1}, \"13\": {\"In\": 1}, \"14\": {\"In\": 1}, \"15\": {\"In\": 1}, \"16\": {\"O\": 1}, \"17\": {\"O\": 1}, \"18\": {\"O\": 1}, \"19\": {\"O\": 1}, \"20\": {\"O\": 1}, \"21\": {\"O\": 1}, \"22\": {\"O\": 1}, \"23\": {\"O\": 1}, \"24\": {\"O\": 1}, \"25\": {\"O\": 1}, \"26\": {\"O\": 1}, \"27\": {\"O\": 1}, \"28\": {\"O\": 1}, \"29\": {\"O\": 1}, \"30\": {\"O\": 1}, \"31\": {\"O\": 1}, \"32\": {\"O\": 1}, \"33\": {\"O\": 1}, \"34\": {\"O\": 1}, \"35\": {\"O\": 1}, \"36\": {\"O\": 1}, \"37\": {\"O\": 1}, \"38\": {\"O\": 1}, \"39\": {\"O\": 1}}" n_minim_iter=7 energy=-45150.158390645454 stress="0.060681623784270555 -6.566606487082324e-14 -7.542308117122251e-15 -6.566606487082324e-14 0.06068162378452672 1.8088078428776936e-13 -7.542308117122251e-15 1.8088078428776936e-13 0.060681623784783194" free_energy=-45150.158390645454 pbc="T T T"
In      -4.35213778       3.07742614       5.89698044        0      -0.00385296       0.00272445      -0.00471889
In       7.40780516       1.24394012       1.58784546        1       0.00385296      -0.00272445       0.00471889
In       1.29647039      -0.91674300       5.33025842        2       0.00385296      -0.00272445       0.00471889
In      -1.52783369      -2.16068312       3.74241295        3       0.00000000       0.00000000       0.00000000
In      -1.29647040       4.15776770       3.45905194        4      -0.00385296       0.00272445       0.00471889
In       4.81486437      -2.91382757       5.61361943        5      -0.00385296      -0.00544890       0.00000000
In      -1.29647040       1.40753868       5.61361943        6      -0.00385296      -0.00544890      -0.00000000
In      -1.75919699       7.23519383       1.87120647        7       0.00385296       0.00544890      -0.00000000
In       4.35213777       0.16359856       4.02577396        8       0.00385296      -0.00272445      -0.00471889
In      -1.52783369       4.32136625      -0.00000000        9      -0.00000000      -0.00000000      -0.00000000
In       4.35213777       6.64564794       0.28336101       10       0.00385296      -0.00272445      -0.00471889
In      -1.29647040      -2.32428168       7.20146489       11      -0.00385296       0.00272445       0.00471889
In       4.35213777       2.91382758       1.87120647       12       0.00385296       0.00544890       0.00000000
In       1.75919699       5.23810926       2.15456749       13      -0.00385296       0.00272445      -0.00471889
In       4.58350107       0.00000000      -0.00000000       14       0.00000000       0.00000000       0.00000000
In       1.52783369       2.16068313       3.74241295       15      -0.00000000      -0.00000000      -0.00000000
O        0.94792257       4.32632367       4.05552405       16       0.00314335       0.00381440      -0.00544603
O       -2.10774481       3.50970815       5.45277063       17       0.00314335      -0.00662360      -0.00058035
O       -0.44459051       2.33368047       0.00488442       18      -0.00160076      -0.00326901      -0.00639067
O       -0.94792257      -0.80670068       2.02346878       19      -0.00314335      -0.00280920      -0.00602638
O        4.01156618       5.13088696       2.01858436       20      -0.00729257      -0.00088045       0.00036429
O        2.09976858       2.97798127       1.71035767       21       0.00729257      -0.00075571      -0.00058035
O        2.09976858       6.47427194       0.30822668       22       0.00729257      -0.00012474       0.00094464
O       -2.34841188       6.12331984       3.74729737       23       0.00254847       0.00259888      -0.00639067
O        3.50025789       1.98768579       7.47994148       24       0.00160076       0.00326901       0.00639067
O        5.40407926      -1.80195359       3.73752853       25      -0.00254847      -0.00259888       0.00639067
O        6.55592527       3.33175340       1.72382859       26       0.00160076      -0.00716899      -0.00036429
O        3.76292288       2.34427793       4.05063963       27       0.00254847      -0.00683392       0.00094464
O        0.70725550       4.49650099       7.17171480       28       0.00254847       0.00423504       0.00544603
O        2.34841188      -0.17513473       0.31311110       29      -0.00254847      -0.00423504      -0.00544603
O       -3.50025789       0.98961286       5.76099731       30      -0.00160076       0.00716899       0.00036429
O        5.16341219       0.81165810       2.03205528       31      -0.00314335       0.00662360       0.00058035
O        0.95589880       1.34338498       5.77446823       32      -0.00729257       0.00075571       0.00058035
O        3.50025789      -0.99807292       5.76588173       33       0.00160076       0.00389998      -0.00602638
O        2.10774481      -0.00495741       3.42930185       34      -0.00314335      -0.00381440       0.00544603
O        0.95589880      -2.15290568       7.17659922       35      -0.00729257       0.00012474      -0.00094464
O       -0.70725550       1.97708833       3.43418627       36      -0.00254847       0.00683392      -0.00094464
O       -0.95589880      -0.80952070       5.46624155       37       0.00729257       0.00088045      -0.00036429
O       -0.44459051       5.31943918       1.71894417       38      -0.00160076      -0.00389998       0.00602638
O        4.00358995       5.12806694       5.46135713       39       0.00314335       0.00280920       0.00602638
