40
Lattice="8.156997678683313 6.393199303289521e-10 1.7319479184152442e-14 -2.7189992268305287 7.690491163413424 -1.1073475469913774e-09 -2.7189992259264044 -3.845245581067385 6.660160715833987" Properties=species:S:1:pos:R:3:spacegroup_kinds:I:1:forces:R:3 spacegroup="P 1" unit_cell=conventional occupancy="_JSON {\"0\": {\"In\": 1}, \"1\": {\"In\": 1}, \"2\": {\"In\": 1}, \"3\": {\"In\": 1}, \"4\": {\"In\": 1}, \"5\": {\"In\": 1}, \"6\": {\"In\": 1}, \"7\": {\"In\": 1}, \"8\": {\"In\": 1}, \"9\": {\"In\": 1}, \"10\": {\"In\": 1}, \"11\": {\"In\": 1}, \"12\": {\"In\": 1}, \"13\": {\"In\": 1}, \"14\": {\"In\": 1}, \"15\": {\"In\": 1}, \"16\": {\"O\": 1}, \"17\": {\"O\": 1}, \"18\": {\"O\": 1}, \"19\": {\"O\": 1}, \"20\": {\"O\": 1}, \"21\": {\"O\": 1}, \"22\": {\"O\": 1}, \"23\": {\"O\": 1}, \"24\": {\"O\": 1}, \"25\": {\"O\": 1}, \"26\": {\"O\": 1}, \"27\": {\"O\": 1}, \"28\": {\"O\": 1}, \"29\": {\"O\": 1}, \"30\": {\"O\": 1}, \"31\": {\"O\": 1}, \"32\": {\"O\": 1}, \"33\": {\"O\": 1}, \"34\": {\"O\": 1}, \"35\": {\"O\": 1}, \"36\": {\"O\": 1}, \"37\": {\"O\": 1}, \"38\": {\"O\": 1}, \"39\": {\"O\": 1}}" n_minim_iter=1 energy=-45145.15838475323 stress="-0.1924246985763565 -3.842545406902059e-13 5.563853390060047e-13 -3.842545406902059e-13 -0.19242469857524322 -1.4819248277501053e-14 5.563853390060047e-13 -1.4819248277501053e-14 -0.1924246985757415" free_energy=-45145.15838475323 pbc="T T T"
In      -3.69402038       2.61206686       5.46600856        0       0.36186255      -0.25587546       0.44318930
In       6.41301960       1.23317872       1.19415215        1      -0.36186255       0.25587546      -0.44318930
In       0.97502115      -0.68944407       4.52423251        2      -0.36186255       0.25587546      -0.44318930
In      -1.35949961      -1.92262279       3.33008036        3      -0.00000000      -0.00000000       0.00000000
In      -0.97502115       3.57337826       2.85919233        4       0.36186255      -0.25587546      -0.44318930
In       4.46297730      -2.34019953       4.99512053        5       0.36186255       0.51175093      -0.00000000
In      -0.97502115       1.50504605       4.99512053        6       0.36186255       0.51175093      -0.00000000
In      -1.74397807       6.18544512       1.66504018        7      -0.36186255      -0.51175093       0.00000000
In       3.69402038       0.27186733       3.80096838        8      -0.36186255       0.25587546       0.44318930
In      -1.35949961       3.84524558      -0.00000000        9       0.00000000      -0.00000000      -0.00000000
In       3.69402038       6.03973570       0.47088802       10      -0.36186255       0.25587546       0.44318930
In      -0.97502115      -2.19449011       6.18927269       11       0.36186255      -0.25587546      -0.44318930
In       3.69402038       2.34019954       1.66504018       12      -0.36186255      -0.51175093       0.00000000
In       1.74397807       4.53468965       2.13592820       13       0.36186255      -0.25587546       0.44318930
In       4.07849884       0.00000000      -0.00000000       14       0.00000000       0.00000000       0.00000000
In       1.35949961       1.92262279       3.33008036       15       0.00000000       0.00000000      -0.00000000
O        0.66294153       3.75921359       4.10674811       16       0.00874928       0.12502807       0.04190581
O       -2.05605769       3.59956419       4.68129255       17       0.00874928      -0.02622254      -0.12923039
O       -0.09176187       2.21059729       0.42689307       18       0.09607117      -0.08796844      -0.02228335
O       -0.66294153      -0.33171339       2.12787994       19      -0.00874928       0.09880553      -0.08732458
O        4.07905422       4.42342580       1.70098687       20      -0.02763927      -0.11167083      -0.06504123
O        1.35894423       2.66123785       1.35121219       21       0.02763927       0.00049194      -0.12923039
O        1.35894423       5.60743354       0.34977468       22       0.02763927      -0.11216277       0.06418916
O       -2.11475841       5.11751653       3.75697343       23       0.11496116      -0.06125396      -0.02228335
O        2.81076110       1.63464829       6.23326764       24      -0.09607117       0.08796844       0.02228335
O        4.83375763      -1.27227095       2.90318729       25      -0.11496116       0.06125396       0.02228335
O        5.52976032       3.39762168       1.62909348       26      -0.09607117      -0.06328217       0.06504123
O        3.32324005       2.61749896       3.67985504       27       0.11496116       0.01132903       0.06418916
O        0.60424082       3.80072126       5.88349296       28       0.11496116       0.04992493      -0.04190581
O        2.11475840       0.04452433       0.77666775       29      -0.11496116      -0.04992493       0.04190581
O       -2.81076110       0.44762390       5.03106723       30       0.09607117       0.06328217      -0.06504123
O        4.77505692       0.24568140       1.97886816       31      -0.00874928       0.02622254       0.12923039
O        1.36005500       1.18400774       5.30894852       32      -0.02763927      -0.00049194       0.12923039
O        2.81076110      -1.18702439       5.45796030       33      -0.09607117      -0.02468627      -0.08732458
O        2.05605769       0.08603200       2.55341261       34      -0.00874928      -0.12502807      -0.04190581
O        1.36005500      -1.76218795       6.31038603       35      -0.02763927       0.11216277      -0.06418916
O       -0.60424082       1.22774663       2.98030568       36      -0.11496116      -0.01132903      -0.06418916
O       -1.36005500      -0.57818022       4.95917384       37       0.02763927       0.11167083       0.06504123
O       -0.09176187       5.03226997       1.20220041       38       0.09607117       0.02468627       0.08732458
O        3.38194076       4.17695897       4.53228077       39       0.00874928      -0.09880553       0.08732458
40
Lattice="8.156997678683311 6.39319930328952e-10 1.731947918415239e-14 -2.7189992268305283 7.690491163413423 -1.1073475469913772e-09 -2.718999225926404 -3.8452455810673847 6.660160715833986" Properties=species:S:1:pos:R:3:spacegroup_kinds:I:1:forces:R:3 spacegroup="P 1" unit_cell=conventional occupancy="_JSON {\"0\": {\"In\": 1}, \"1\": {\"In\": 1}, \"2\": {\"In\": 1}, \"3\": {\"In\": 1}, \"4\": {\"In\": 1}, \"5\": {\"In\": 1}, \"6\": {\"In\": 1}, \"7\": {\"In\": 1}, \"8\": {\"In\": 1}, \"9\": {\"In\": 1}, \"10\": {\"In\": 1}, \"11\": {\"In\": 1}, \"12\": {\"In\": 1}, \"13\": {\"In\": 1}, \"14\": {\"In\": 1}, \"15\": {\"In\": 1}, \"16\": {\"O\": 1}, \"17\": {\"O\": 1}, \"18\": {\"O\": 1}, \"19\": {\"O\": 1}, \"20\": {\"O\": 1}, \"21\": {\"O\": 1}, \"22\": {\"O\": 1}, \"23\": {\"O\": 1}, \"24\": {\"O\": 1}, \"25\": {\"O\": 1}, \"26\": {\"O\": 1}, \"27\": {\"O\": 1}, \"28\": {\"O\": 1}, \"29\": {\"O\": 1}, \"30\": {\"O\": 1}, \"31\": {\"O\": 1}, \"32\": {\"O\": 1}, \"33\": {\"O\": 1}, \"34\": {\"O\": 1}, \"35\": {\"O\": 1}, \"36\": {\"O\": 1}, \"37\": {\"O\": 1}, \"38\": {\"O\": 1}, \"39\": {\"O\": 1}}" n_minim_iter=2 energy=-45145.37524876894 stress="-0.16405137988933846 -4.9067634359079124e-14 3.708061951143192e-13 -4.9067634359079124e-14 -0.16405137988805438 1.0005968766855385e-13 3.708061951143192e-13 1.0005968766855385e-13 -0.1640513798880923" free_energy=-45145.37524876894 pbc="T T T"
In      -3.66817306       2.59379004       5.49766493        0       0.02789356      -0.01972373       0.03416250
In       6.38717228       1.25145554       1.16249578        1      -0.02789356       0.01972373      -0.03416250
In       0.94917383      -0.67116725       4.49257613        2      -0.02789356       0.01972373      -0.03416250
In      -1.35949961      -1.92262279       3.33008036        3       0.00000000      -0.00000000      -0.00000000
In      -0.94917383       3.55510144       2.82753595        4       0.02789356      -0.01972373      -0.03416250
In       4.48882462      -2.30364589       4.99512053        5       0.02789356       0.03944746      -0.00000000
In      -0.94917383       1.54159969       4.99512053        6       0.02789356       0.03944746       0.00000000
In      -1.76982540       6.14889148       1.66504018        7      -0.02789356      -0.03944746      -0.00000000
In       3.66817305       0.29014415       3.83262476        8      -0.02789356       0.01972373       0.03416250
In      -1.35949961       3.84524558      -0.00000000        9       0.00000000      -0.00000000       0.00000000
In       3.66817305       6.05801252       0.50254440       10      -0.02789356       0.01972373       0.03416250
In      -0.94917383      -2.21276693       6.15761631       11       0.02789356      -0.01972373      -0.03416250
In       3.66817305       2.30364590       1.66504018       12      -0.02789356      -0.03944746       0.00000000
In       1.76982540       4.51641283       2.16758458       13       0.02789356      -0.01972373       0.03416250
In       4.07849884       0.00000000      -0.00000000       14      -0.00000000       0.00000000       0.00000000
In       1.35949961       1.92262279       3.33008036       15       0.00000000       0.00000000       0.00000000
O        0.66356648       3.76814417       4.10974138       16       0.04679963       0.12780911       0.24468407
O       -2.05543275       3.59769115       4.67206181       17       0.04679963       0.14799806      -0.23302797
O       -0.08489965       2.20431383       0.42530140       18       0.27563338      -0.01381183       0.04723498
O       -0.66356648      -0.32465585       2.12164247       19      -0.04679963       0.27580718       0.01165610
O        4.07707999       4.41544932       1.69634107       20       0.12393403      -0.24853605      -0.03557889
O        1.36091846       2.66127299       1.34198145       21      -0.12393403      -0.09345580      -0.23302797
O        1.36091846       5.59942191       0.35435962       22      -0.12393403      -0.15508024       0.19744909
O       -2.10654689       5.11314125       3.75538176       23       0.10489971      -0.25526570       0.04723498
O        2.80389887       1.64093175       6.23485931       24      -0.27563338       0.01381183      -0.04723498
O        4.82554612      -1.26789567       2.90477895       25      -0.10489971       0.25526570      -0.04723498
O        5.52289810       3.39310153       1.63373928       26      -0.27563338       0.03400078       0.03557889
O        3.33145156       2.61830817       3.68443997       27       0.10489971       0.16853954       0.19744909
O        0.61245233       3.80428733       5.88049969       28       0.10489971       0.08672615      -0.24468407
O        2.10654689       0.04095826       0.77966102       29      -0.10489971      -0.08672615       0.24468407
O       -2.80389887       0.45214406       5.02642143       30       0.27563338      -0.03400078      -0.03557889
O        4.77443197       0.24755444       1.98809890       31      -0.04679963      -0.14799806       0.23302797
O        1.35808076       1.18397260       5.31817926       32       0.12393403       0.09345580       0.23302797
O        2.80389887      -1.18878769       5.45172283       33      -0.27563338      -0.04781261       0.01165610
O        2.05543274       0.07710142       2.55041933       34      -0.04679963      -0.12780911      -0.24468407
O        1.35808076      -1.75417633       6.30580109       35       0.12393403       0.15508024      -0.19744909
O       -0.61245234       1.22693741       2.97572074       36      -0.10489971      -0.16853954      -0.19744909
O       -1.35808077      -0.57020373       4.96381964       37      -0.12393403       0.24853605       0.03557889
O       -0.08489965       5.03403328       1.20843788       38       0.27563338       0.04781261      -0.01165610
O        3.38256571       4.16990144       4.53851824       39       0.04679963      -0.27580718      -0.01165610
40
Lattice="8.15699767868331 6.393199303289519e-10 1.7319479184152388e-14 -2.718999226830528 7.690491163413423 -1.1073475469913772e-09 -2.7189992259264035 -3.8452455810673847 6.660160715833985" Properties=species:S:1:pos:R:3:spacegroup_kinds:I:1:forces:R:3 spacegroup="P 1" unit_cell=conventional occupancy="_JSON {\"0\": {\"In\": 1}, \"1\": {\"In\": 1}, \"2\": {\"In\": 1}, \"3\": {\"In\": 1}, \"4\": {\"In\": 1}, \"5\": {\"In\": 1}, \"6\": {\"In\": 1}, \"7\": {\"In\": 1}, \"8\": {\"In\": 1}, \"9\": {\"In\": 1}, \"10\": {\"In\": 1}, \"11\": {\"In\": 1}, \"12\": {\"In\": 1}, \"13\": {\"In\": 1}, \"14\": {\"In\": 1}, \"15\": {\"In\": 1}, \"16\": {\"O\": 1}, \"17\": {\"O\": 1}, \"18\": {\"O\": 1}, \"19\": {\"O\": 1}, \"20\": {\"O\": 1}, \"21\": {\"O\": 1}, \"22\": {\"O\": 1}, \"23\": {\"O\": 1}, \"24\": {\"O\": 1}, \"25\": {\"O\": 1}, \"26\": {\"O\": 1}, \"27\": {\"O\": 1}, \"28\": {\"O\": 1}, \"29\": {\"O\": 1}, \"30\": {\"O\": 1}, \"31\": {\"O\": 1}, \"32\": {\"O\": 1}, \"33\": {\"O\": 1}, \"34\": {\"O\": 1}, \"35\": {\"O\": 1}, \"36\": {\"O\": 1}, \"37\": {\"O\": 1}, \"38\": {\"O\": 1}, \"39\": {\"O\": 1}}" n_minim_iter=3 energy=-45145.41173217791 stress="-0.15461308087330608 3.369874949541426e-13 1.5641683606343145e-14 3.369874949541426e-13 -0.15461308087396228 1.2983211230295385e-13 1.5641683606343145e-14 1.2983211230295385e-13 -0.15461308087509992" free_energy=-45145.41173217791 pbc="T T T"
In      -3.65999208       2.58800522       5.50768454        0      -0.02490153       0.01760804      -0.03049803
In       6.37899130       1.25724037       1.15247617        1       0.02490153      -0.01760804       0.03049803
In       0.94099285      -0.66538243       4.48255653        2       0.02490153      -0.01760804       0.03049803
In      -1.35949961      -1.92262279       3.33008036        3       0.00000000       0.00000000       0.00000000
In      -0.94099285       3.54931662       2.81751635        4      -0.02490153       0.01760804       0.03049803
In       4.49700560      -2.29207625       4.99512053        5      -0.02490153      -0.03521609      -0.00000000
In      -0.94099285       1.55316933       4.99512053        6      -0.02490153      -0.03521609       0.00000000
In      -1.77800638       6.13732183       1.66504018        7       0.02490153       0.03521609       0.00000000
In       3.65999208       0.29592897       3.84264436        8       0.02490153      -0.01760804      -0.03049803
In      -1.35949961       3.84524558      -0.00000000        9       0.00000000       0.00000000       0.00000000
In       3.65999208       6.06379734       0.51256401       10       0.02490153      -0.01760804      -0.03049803
In      -0.94099285      -2.21855176       6.14759671       11      -0.02490153       0.01760804       0.03049803
In       3.65999208       2.29207625       1.66504018       12       0.02490153       0.03521609      -0.00000000
In       1.77800637       4.51062801       2.17760418       13      -0.02490153       0.01760804      -0.03049803
In       4.07849884       0.00000000      -0.00000000       14      -0.00000000       0.00000000      -0.00000000
In       1.35949961       1.92262279       3.33008036       15      -0.00000000       0.00000000       0.00000000
O        0.66458320       3.77306883       4.11497558       16       0.01821717       0.06027770       0.13899676
O       -2.05441603       3.59976177       4.66517983       17       0.01821717       0.09023587      -0.12170040
O       -0.07796553       2.20220022       0.42566673       18       0.14797795      -0.00151885       0.03722345
O       -0.66458320      -0.31766057       2.11999470       19      -0.01821717       0.15051358       0.01729636
O        4.07869329       4.40866496       1.69432796       20       0.07900281      -0.12902261      -0.01992709
O        1.35930516       2.65962421       1.33509947       21      -0.07900281      -0.04725394      -0.12170040
O        1.35930516       5.59428633       0.35922849       22      -0.07900281      -0.08176867       0.10177331
O       -2.10224278       5.10730824       3.75574709       23       0.05075797      -0.13900866       0.03722345
O        2.79696475       1.64304537       6.23449398       24      -0.14797795       0.00151885      -0.03722345
O        4.82124201      -1.26206265       2.90441362       25      -0.05075797       0.13900866      -0.03722345
O        5.51596398       3.39236110       1.63575239       26      -0.14797795       0.03147703       0.01992709
O        3.33575567       2.62154107       3.68930885       27       0.05075797       0.10174079       0.10177331
O        0.61675644       3.80688745       5.87526549       28       0.05075797       0.03726788      -0.13899676
O        2.10224278       0.03835814       0.78489522       29      -0.05075797      -0.03726788       0.13899676
O       -2.79696475       0.45288448       5.02440832       30       0.14797795      -0.03147703      -0.01992709
O        4.77341525       0.24548381       1.99498088       31      -0.01821717      -0.09023587       0.12170040
O        1.35969406       1.18562138       5.32506124       32       0.07900281       0.04725394       0.12170040
O        2.79696475      -1.19016088       5.45007505       33      -0.14797795      -0.03299588       0.01729636
O        2.05441603       0.07217676       2.54518513       34      -0.01821717      -0.06027770      -0.13899676
O        1.35969406      -1.74904074       6.30093222       35       0.07900281       0.08176867      -0.10177331
O       -0.61675644       1.22370452       2.97085186       36      -0.05075797      -0.10174079      -0.10177331
O       -1.35969406      -0.56341937       4.96583275       37      -0.07900281       0.12902261       0.01992709
O       -0.07796553       5.03540647       1.21008566       38       0.14797795       0.03299588      -0.01729636
O        3.38358242       4.16290615       4.54016602       39       0.01821717      -0.15051358      -0.01729636
40
Lattice="8.15699767868331 6.393199303289521e-10 1.7319479184152388e-14 -2.7189992268305287 7.690491163413424 -1.1073475469913772e-09 -2.7189992259264044 -3.845245581067385 6.660160715833985" Properties=species:S:1:pos:R:3:spacegroup_kinds:I:1:forces:R:3 spacegroup="P 1" unit_cell=conventional occupancy="_JSON {\"0\": {\"In\": 1}, \"1\": {\"In\": 1}, \"2\": {\"In\": 1}, \"3\": {\"In\": 1}, \"4\": {\"In\": 1}, \"5\": {\"In\": 1}, \"6\": {\"In\": 1}, \"7\": {\"In\": 1}, \"8\": {\"In\": 1}, \"9\": {\"In\": 1}, \"10\": {\"In\": 1}, \"11\": {\"In\": 1}, \"12\": {\"In\": 1}, \"13\": {\"In\": 1}, \"14\": {\"In\": 1}, \"15\": {\"In\": 1}, \"16\": {\"O\": 1}, \"17\": {\"O\": 1}, \"18\": {\"O\": 1}, \"19\": {\"O\": 1}, \"20\": {\"O\": 1}, \"21\": {\"O\": 1}, \"22\": {\"O\": 1}, \"23\": {\"O\": 1}, \"24\": {\"O\": 1}, \"25\": {\"O\": 1}, \"26\": {\"O\": 1}, \"27\": {\"O\": 1}, \"28\": {\"O\": 1}, \"29\": {\"O\": 1}, \"30\": {\"O\": 1}, \"31\": {\"O\": 1}, \"32\": {\"O\": 1}, \"33\": {\"O\": 1}, \"34\": {\"O\": 1}, \"35\": {\"O\": 1}, \"36\": {\"O\": 1}, \"37\": {\"O\": 1}, \"38\": {\"O\": 1}, \"39\": {\"O\": 1}}" n_minim_iter=4 energy=-45145.41958859777 stress="-0.15153003731900763 -1.040890096001527e-12 1.1338712595053972e-15 -1.040890096001527e-12 -0.15153003731825354 -7.151483080317454e-13 1.1338712595053972e-15 -7.151483080317454e-13 -0.15153003731831974" free_energy=-45145.41958859777 pbc="T T T"
In      -3.65783455       2.58647962       5.51032696        0      -0.01462954       0.01034464      -0.01791745
In       6.37683378       1.25876597       1.14983375        1       0.01462954      -0.01034464       0.01791745
In       0.93883532      -0.66385682       4.47991411        2       0.01462954      -0.01034464       0.01791745
In      -1.35949961      -1.92262279       3.33008036        3      -0.00000000       0.00000000       0.00000000
In      -0.93883533       3.54779101       2.81487393        4      -0.01462954       0.01034464       0.01791745
In       4.49916313      -2.28902504       4.99512053        5      -0.01462954      -0.02068929      -0.00000000
In      -0.93883533       1.55622054       4.99512053        6      -0.01462954      -0.02068929       0.00000000
In      -1.78016390       6.13427063       1.66504018        7       0.01462954       0.02068929      -0.00000000
In       3.65783455       0.29745457       3.84528678        8       0.01462954      -0.01034464      -0.01791745
In      -1.35949961       3.84524558      -0.00000000        9      -0.00000000      -0.00000000       0.00000000
In       3.65783455       6.06532294       0.51520643       10       0.01462954      -0.01034464      -0.01791745
In      -0.93883533      -2.22007736       6.14495429       11      -0.01462954       0.01034464       0.01791745
In       3.65783455       2.28902505       1.66504018       12       0.01462954       0.02068929       0.00000000
In       1.78016390       4.50910241       2.18024660       13      -0.01462954       0.01034464      -0.01791745
In       4.07849884       0.00000000      -0.00000000       14       0.00000000      -0.00000000      -0.00000000
In       1.35949961       1.92262279       3.33008036       15       0.00000000       0.00000000      -0.00000000
O        0.66511561       3.77547922       4.11865126       16      -0.00503292       0.00750004       0.02765565
O       -2.05388361       3.60173981       4.66125452       17      -0.00503292       0.02020048      -0.02032305
O       -0.07365060       2.20150362       0.42637403       18       0.02443866      -0.00063907       0.01577211
O       -0.66511562      -0.31327214       2.11974507       19       0.00503292       0.02770051       0.00733260
O        4.08038072       4.40468489       1.69337104       20       0.02072283      -0.01859448      -0.00843951
O        1.35761773       2.65846290       1.33117417       21      -0.02072283      -0.00198841      -0.02032305
O        1.35761773       5.59146757       0.36219687       22      -0.02072283      -0.01660607       0.01188354
O       -2.10014772       5.10347229       3.75645439       23       0.00874874      -0.02282796       0.01577211
O        2.79264983       1.64374197       6.23378668       24      -0.02443866       0.00063907      -0.01577211
O        4.81914694      -1.25822670       2.90370632       25      -0.00874874       0.02282796      -0.01577211
O        5.51164905       3.39262535       1.63670931       26      -0.02443866       0.01333951       0.00843951
O        3.33785074       2.62407158       3.69227723       27       0.00874874       0.02507303       0.01188354
O        0.61885151       3.80819288       5.87158981       28       0.00874874      -0.00224507      -0.02765565
O        2.10014771       0.03705270       0.78857090       29      -0.00874874       0.00224507       0.02765565
O       -2.79264983       0.45262024       5.02345140       30       0.02443866      -0.01333951      -0.00843951
O        4.77288284       0.24350578       1.99890619       31       0.00503292      -0.02020048       0.02032305
O        1.36138150       1.18678269       5.32898654       32       0.02072283       0.00198841       0.02032305
O        2.79264983      -1.19112173       5.44982543       33      -0.02443866      -0.01397858       0.00733260
O        2.05388361       0.06976637       2.54150945       34       0.00503292      -0.00750004      -0.02765565
O        1.36138150      -1.74622199       6.29796384       35       0.02072283       0.01660607      -0.01188354
O       -0.61885151       1.22117400       2.96788349       36      -0.00874874      -0.02507303      -0.01188354
O       -1.36138150      -0.55943930       4.96678967       37      -0.02072283       0.01859448       0.00843951
O       -0.07365060       5.03636731       1.21033528       38       0.02443866       0.01397858      -0.00733260
O        3.38411484       4.15851772       4.54041564       39      -0.00503292      -0.02770051      -0.00733260
40
Lattice="8.156997678683311 6.393199303289523e-10 1.731947918415239e-14 -2.7189992268305296 7.690491163413426 -1.1073475469913772e-09 -2.7189992259264053 -3.845245581067386 6.660160715833985" Properties=species:S:1:pos:R:3:spacegroup_kinds:I:1:forces:R:3 spacegroup="P 1" unit_cell=conventional occupancy="_JSON {\"0\": {\"In\": 1}, \"1\": {\"In\": 1}, \"2\": {\"In\": 1}, \"3\": {\"In\": 1}, \"4\": {\"In\": 1}, \"5\": {\"In\": 1}, \"6\": {\"In\": 1}, \"7\": {\"In\": 1}, \"8\": {\"In\": 1}, \"9\": {\"In\": 1}, \"10\": {\"In\": 1}, \"11\": {\"In\": 1}, \"12\": {\"In\": 1}, \"13\": {\"In\": 1}, \"14\": {\"In\": 1}, \"15\": {\"In\": 1}, \"16\": {\"O\": 1}, \"17\": {\"O\": 1}, \"18\": {\"O\": 1}, \"19\": {\"O\": 1}, \"20\": {\"O\": 1}, \"21\": {\"O\": 1}, \"22\": {\"O\": 1}, \"23\": {\"O\": 1}, \"24\": {\"O\": 1}, \"25\": {\"O\": 1}, \"26\": {\"O\": 1}, \"27\": {\"O\": 1}, \"28\": {\"O\": 1}, \"29\": {\"O\": 1}, \"30\": {\"O\": 1}, \"31\": {\"O\": 1}, \"32\": {\"O\": 1}, \"33\": {\"O\": 1}, \"34\": {\"O\": 1}, \"35\": {\"O\": 1}, \"36\": {\"O\": 1}, \"37\": {\"O\": 1}, \"38\": {\"O\": 1}, \"39\": {\"O\": 1}}" n_minim_iter=5 energy=-45145.41996358735 stress="-0.15186445518211827 3.6496464557185207e-13 -1.1497911627528705e-13 3.6496464557185207e-13 -0.15186445518276087 -4.1490281244701736e-13 -1.1497911627528705e-13 -4.1490281244701736e-13 -0.1518644551821252" free_energy=-45145.41996358735 pbc="T T T"
In      -3.65835011       2.58684417       5.50969554        0      -0.00205205       0.00145102      -0.00251324
In       6.37734933       1.25840142       1.15046517        1       0.00205205      -0.00145102       0.00251324
In       0.93935088      -0.66422137       4.48054553        2       0.00205205      -0.00145102       0.00251324
In      -1.35949961      -1.92262279       3.33008036        3      -0.00000000       0.00000000       0.00000000
In      -0.93935088       3.54815556       2.81550535        4      -0.00205205       0.00145102       0.00251324
In       4.49864757      -2.28975414       4.99512053        5      -0.00205205      -0.00290204      -0.00000000
In      -0.93935088       1.55549144       4.99512053        6      -0.00205205      -0.00290204      -0.00000000
In      -1.77964835       6.13499973       1.66504018        7       0.00205205       0.00290204       0.00000000
In       3.65835010       0.29709002       3.84465536        8       0.00205205      -0.00145102      -0.00251324
In      -1.35949961       3.84524558      -0.00000000        9      -0.00000000       0.00000000       0.00000000
In       3.65835010       6.06495839       0.51457501       10       0.00205205      -0.00145102      -0.00251324
In      -0.93935088      -2.21971281       6.14558570       11      -0.00205205       0.00145102       0.00251324
In       3.65835010       2.28975415       1.66504018       12       0.00205205       0.00290204      -0.00000000
In       1.77964835       4.50946696       2.17961519       13      -0.00205205       0.00145102      -0.00251324
In       4.07849884       0.00000000      -0.00000000       14      -0.00000000      -0.00000000      -0.00000000
In       1.35949961       1.92262279       3.33008036       15      -0.00000000       0.00000000      -0.00000000
O        0.66504423       3.77556055       4.11918233       16      -0.00803984      -0.00187542       0.00425207
O       -2.05395500       3.60215907       4.66091856       17      -0.00803984       0.00462011      -0.00050188
O       -0.07320244       2.20155550       0.42667438       18      -0.00009223      -0.00099970       0.00923193
O       -0.66504423      -0.31277155       2.11994018       19       0.00803984       0.00274469       0.00375019
O        4.08079980       4.40435771       1.69326580       20       0.00703583       0.00258536      -0.00548173
O        1.35719865       2.65839045       1.33083820       21      -0.00703583       0.00604000      -0.00050188
O        1.35719865       5.59121284       0.36242760       22      -0.00703583      -0.00345464      -0.00497986
O       -2.10004725       5.10303246       3.75675473       23       0.00091179       0.00042019       0.00923193
O        2.79220167       1.64369008       6.23348633       24       0.00009223       0.00099970      -0.00923193
O        4.81904647      -1.25778688       2.90340598       25      -0.00091179      -0.00042019      -0.00923193
O        5.51120089       3.39291139       1.63681455       26       0.00009223       0.00749523       0.00548173
O        3.33795121       2.62455160       3.69250795       27       0.00091179       0.00778499      -0.00497986
O        0.61895198       3.80815269       5.87105874       28       0.00091179      -0.00820518      -0.00425207
O        2.10004724       0.03709290       0.78910198       29      -0.00091179       0.00820518       0.00425207
O       -2.79220167       0.45233419       5.02334616       30      -0.00009223      -0.00749523      -0.00548173
O        4.77295422       0.24308652       1.99924215       31       0.00803984      -0.00462011       0.00050188
O        1.36180057       1.18685514       5.32932251       32       0.00703583      -0.00604000       0.00050188
O        2.79220167      -1.19135589       5.45002054       33       0.00009223      -0.00849493       0.00375019
O        2.05395499       0.06968504       2.54097838       34       0.00803984       0.00187542      -0.00425207
O        1.36180057      -1.74596726       6.29773311       35       0.00703583       0.00345464       0.00497986
O       -0.61895198       1.22069399       2.96765276       36      -0.00091179      -0.00778499       0.00497986
O       -1.36180058      -0.55911212       4.96689491       37      -0.00703583      -0.00258536       0.00548173
O       -0.07320244       5.03660148       1.21014017       38      -0.00009223       0.00849493      -0.00375019
O        3.38404346       4.15801714       4.54022053       39      -0.00803984      -0.00274469      -0.00375019
