40
Lattice="8.880343626633037 6.960179099735342e-10 -2.220446049250313e-15 -2.9601145428672235 8.372468263313275 -1.205539224002905e-09 -2.9601145418829056 -4.186234130960619 7.25077020921197" Properties=species:S:1:pos:R:3:spacegroup_kinds:I:1:forces:R:3 spacegroup="P 1" unit_cell=conventional occupancy="_JSON {\"0\": {\"In\": 1}, \"1\": {\"In\": 1}, \"2\": {\"In\": 1}, \"3\": {\"In\": 1}, \"4\": {\"In\": 1}, \"5\": {\"In\": 1}, \"6\": {\"In\": 1}, \"7\": {\"In\": 1}, \"8\": {\"In\": 1}, \"9\": {\"In\": 1}, \"10\": {\"In\": 1}, \"11\": {\"In\": 1}, \"12\": {\"In\": 1}, \"13\": {\"In\": 1}, \"14\": {\"In\": 1}, \"15\": {\"In\": 1}, \"16\": {\"O\": 1}, \"17\": {\"O\": 1}, \"18\": {\"O\": 1}, \"19\": {\"O\": 1}, \"20\": {\"O\": 1}, \"21\": {\"O\": 1}, \"22\": {\"O\": 1}, \"23\": {\"O\": 1}, \"24\": {\"O\": 1}, \"25\": {\"O\": 1}, \"26\": {\"O\": 1}, \"27\": {\"O\": 1}, \"28\": {\"O\": 1}, \"29\": {\"O\": 1}, \"30\": {\"O\": 1}, \"31\": {\"O\": 1}, \"32\": {\"O\": 1}, \"33\": {\"O\": 1}, \"34\": {\"O\": 1}, \"35\": {\"O\": 1}, \"36\": {\"O\": 1}, \"37\": {\"O\": 1}, \"38\": {\"O\": 1}, \"39\": {\"O\": 1}}" n_minim_iter=1 energy=-45151.94462906735 stress="-2.0617574698299162e-05 -2.33507227005749e-13 2.057010738465565e-14 -2.33507227005749e-13 -2.0617574721358787e-05 1.7470036397128197e-13 2.057010738465565e-14 1.7470036397128197e-13 -2.0617574740379498e-05" free_energy=-45151.94462906735 pbc="T T T"
In      -4.24165199       2.99930088       5.68121380        0       0.00158136      -0.00111819       0.00193677
In       7.20176652       1.18693325       1.56955641        1      -0.00158136       0.00111819      -0.00193677
In       1.28153744      -0.90618381       5.19494151        2      -0.00158136       0.00111819      -0.00193677
In      -1.48005727      -2.09311706       3.62538510        3       0.00000000       0.00000000       0.00000000
In      -1.28153744       4.04585942       3.38224896        4       0.00158136      -0.00111819      -0.00193677
In       4.63869164      -2.85892616       5.43807765        5       0.00158136       0.00223639       0.00000000
In      -1.28153744       1.32730797       5.43807765        6       0.00158136       0.00223639      -0.00000000
In      -1.67857710       7.04516030       1.81269255        7      -0.00158136      -0.00223639       0.00000000
In       4.24165198       0.14037472       3.86852124        8      -0.00158136       0.00111819       0.00193677
In      -1.48005727       4.18623413      -0.00000000        9       0.00000000       0.00000000       0.00000000
In       4.24165198       6.41972592       0.24313614       10      -0.00158136       0.00111819       0.00193677
In      -1.28153744      -2.23349178       7.00763406       11       0.00158136      -0.00111819      -0.00193677
In       4.24165198       2.85892617       1.81269255       12      -0.00158136      -0.00223639       0.00000000
In       1.67857710       5.09241795       2.05582869       13       0.00158136      -0.00111819       0.00193677
In       4.44017181       0.00000000      -0.00000000       14      -0.00000000      -0.00000000      -0.00000000
In       1.48005727       2.09311707       3.62538510       15      -0.00000000      -0.00000000       0.00000000
O        0.86675319       4.18524100       3.94902075       16       0.00284951       0.00455969      -0.00090409
O       -2.09336135       3.42044886       5.27711991       17       0.00284951      -0.00306281      -0.00349676
O       -0.43400789       2.24710877       0.05863434       18       0.00236110      -0.00271746      -0.00409493
O       -0.86675320      -0.76677841       1.97537045       19      -0.00284951       0.00149687      -0.00440085
O        3.92261722       4.98686510       1.91673610       20      -0.00383748      -0.00386108      -0.00030592
O        1.99761186       2.92660746       1.65173480       21       0.00383748      -0.00166560      -0.00349676
O        1.99761186       6.24649177       0.26500130       22       0.00383748      -0.00219548       0.00319083
O       -2.26326376       5.93950150       3.68401945       23       0.00334908      -0.00132025      -0.00409493
O        3.39412242       1.93912537       7.19213586       24      -0.00236110       0.00271746       0.00409493
O        5.22337830      -1.75326736       3.56675076       25      -0.00334908       0.00132025       0.00409493
O        6.35423697       3.26745028       1.70864900       26      -0.00236110      -0.00490504       0.00030592
O        3.65696532       2.31382075       3.89038640       27       0.00334908      -0.00288619       0.00319083
O        0.69685078       4.30538015       6.92713456       28       0.00334908       0.00420643       0.00090409
O        2.26326376      -0.11914601       0.32363564       29      -0.00334908      -0.00420643      -0.00090409
O       -3.39412243       0.91878385       5.54212121       30       0.00236110       0.00490504      -0.00030592
O        5.05347589       0.76578528       1.97365030       31      -0.00284951       0.00306281       0.00349676
O        0.96250268       1.25962668       5.59903540       32      -0.00383748       0.00166560       0.00349676
O        3.39412242      -1.02034151       5.60075555       33      -0.00236110       0.00218758      -0.00440085
O        2.09336135       0.00099313       3.30174946       34      -0.00284951      -0.00455969       0.00090409
O        0.96250268      -2.06025764       6.98576891       35      -0.00383748       0.00219548      -0.00319083
O       -0.69685079       1.87241339       3.36038380       36      -0.00334908       0.00288619      -0.00319083
O       -0.96250268      -0.80063096       5.33403410       37       0.00383748       0.00386108       0.00030592
O       -0.43400789       5.20657565       1.65001465       38       0.00236110      -0.00218758       0.00440085
O        3.82686773       4.95301254       5.27539975       39       0.00284951      -0.00149687       0.00440085
