40
Lattice="8.652541323841866 6.781609106881043e-10 4.401590107262216e-16 -2.8841804419200003 8.157694192554496 -1.174613177773151e-09 -2.884180440960935 -4.078847095599083 7.064770407840056" Properties=species:S:1:pos:R:3:spacegroup_kinds:I:1:forces:R:3 spacegroup="P 1" unit_cell=conventional occupancy="_JSON {\"0\": {\"In\": 1}, \"1\": {\"In\": 1}, \"2\": {\"In\": 1}, \"3\": {\"In\": 1}, \"4\": {\"In\": 1}, \"5\": {\"In\": 1}, \"6\": {\"In\": 1}, \"7\": {\"In\": 1}, \"8\": {\"In\": 1}, \"9\": {\"In\": 1}, \"10\": {\"In\": 1}, \"11\": {\"In\": 1}, \"12\": {\"In\": 1}, \"13\": {\"In\": 1}, \"14\": {\"In\": 1}, \"15\": {\"In\": 1}, \"16\": {\"O\": 1}, \"17\": {\"O\": 1}, \"18\": {\"O\": 1}, \"19\": {\"O\": 1}, \"20\": {\"O\": 1}, \"21\": {\"O\": 1}, \"22\": {\"O\": 1}, \"23\": {\"O\": 1}, \"24\": {\"O\": 1}, \"25\": {\"O\": 1}, \"26\": {\"O\": 1}, \"27\": {\"O\": 1}, \"28\": {\"O\": 1}, \"29\": {\"O\": 1}, \"30\": {\"O\": 1}, \"31\": {\"O\": 1}, \"32\": {\"O\": 1}, \"33\": {\"O\": 1}, \"34\": {\"O\": 1}, \"35\": {\"O\": 1}, \"36\": {\"O\": 1}, \"37\": {\"O\": 1}, \"38\": {\"O\": 1}, \"39\": {\"O\": 1}}" n_minim_iter=4 energy=-45151.380067175436 stress="-0.04245090053704694 -2.358522987950194e-14 9.402978603040178e-14 -2.358522987950194e-14 -0.04245090053816198 1.5916095611757312e-13 9.402978603040178e-14 1.5916095611757312e-13 -0.04245090053729837" free_energy=-45151.380067175436 pbc="T T T"
In      -4.12739970       2.91851232       5.54214399        0       0.00147718      -0.00104452       0.00180917
In       7.01158014       1.16033478       1.52262641        1      -0.00147718       0.00104452      -0.00180917
In       1.24321926      -0.87908877       5.05501161        2      -0.00147718       0.00104452      -0.00180917
In      -1.44209022      -2.03942355       3.53238520        3       0.00000000       0.00000000       0.00000000
In      -1.24321926       3.93822409       3.28881901        4       0.00147718      -0.00104452      -0.00180917
In       4.52514162      -2.77788931       5.29857780        5       0.00147718       0.00208905      -0.00000000
In      -1.24321926       1.30095779       5.29857780        6       0.00147718       0.00208905       0.00000000
In      -1.64096118       6.85673641       1.76619260        7      -0.00147718      -0.00208905       0.00000000
In       4.12739970       0.14062301       3.77595139        8      -0.00147718       0.00104452       0.00180917
In      -1.44209022       4.07884710      -0.00000000        9      -0.00000000       0.00000000      -0.00000000
In       4.12739970       6.25889365       0.24356619       10      -0.00147718       0.00104452       0.00180917
In      -1.24321926      -2.18004655       6.82120421       11       0.00147718      -0.00104452      -0.00180917
In       4.12739970       2.77788931       1.76619260       12      -0.00147718      -0.00208905       0.00000000
In       1.64096118       4.95793587       2.00975879       13       0.00147718      -0.00104452       0.00180917
In       4.32627066       0.00000000      -0.00000000       14       0.00000000      -0.00000000       0.00000000
In       1.44209022       2.03942355       3.53238520       15       0.00000000      -0.00000000      -0.00000000
O        0.83592934       4.07548914       3.86786466       16       0.00027450       0.00061367      -0.00296509
O       -2.04825110       3.35134803       5.13374615       17       0.00027450      -0.00287467       0.00095109
O       -0.41041550       2.19322337       0.07490650       18      -0.00204020      -0.00123794      -0.00188382
O       -0.83592934      -0.73085702       1.93684040       19      -0.00027450      -0.00226101      -0.00201400
O        3.84243159       4.85295141       1.86193390       20      -0.00280177       0.00117338      -0.00013017
O        1.92592929       2.85341720       1.60136095       21       0.00280177       0.00069942       0.00095109
O        1.92592929       6.07838131       0.26057295       22       0.00280177       0.00047396      -0.00108127
O       -2.20459599       5.77413963       3.60729170       23       0.00048707       0.00233616      -0.00188382
O        3.29459593       1.88562373       6.98986390       24       0.00204020       0.00123794       0.00188382
O        5.08877642      -1.69529253       3.45747870       25      -0.00048707      -0.00233616       0.00188382
O        6.17877637       3.20090617       1.67045130       26       0.00204020      -0.00225041       0.00013017
O        3.56376490       2.27635999       3.79295815       27       0.00048707      -0.00279952      -0.00108127
O        0.67958445       4.18604167       6.72929095       28       0.00048707       0.00046336       0.00296509
O        2.20459598      -0.10719457       0.33547945       29      -0.00048707      -0.00046336      -0.00296509
O       -3.29459594       0.87794093       5.39431910       30      -0.00204020       0.00225041      -0.00013017
O        4.93243154       0.72749907       1.93102425       31      -0.00027450       0.00287467      -0.00095109
O        0.95825115       1.22542990       5.46340946       32      -0.00280177      -0.00069942      -0.00095109
O        3.29459593      -1.00768280       5.46922560       33       0.00204020       0.00101247      -0.00201400
O        2.04825110       0.00335796       3.19690575       34      -0.00027450      -0.00061367       0.00296509
O        0.95825115      -1.99953421       6.80419745       35      -0.00280177      -0.00047396       0.00108127
O       -0.67958446       1.80248711       3.27181225       36      -0.00048707       0.00279952       0.00108127
O       -0.95825115      -0.77410431       5.20283651       37       0.00280177      -0.00117338       0.00013017
O       -0.41041550       5.08652990       1.59554480       38      -0.00204020      -0.00101247       0.00201400
O        3.72010978       4.80970412       5.12793000       39       0.00027450       0.00226101       0.00201400
