40
Lattice="9.23592956045073 7.238840395971495e-10 3.579426814756103e-15 -3.0786431874993956 8.707717896766697 -1.2538137052382757e-09 -3.07864318647567 -4.353858947659457 7.541104908424239" Properties=species:S:1:pos:R:3:spacegroup_kinds:I:1:forces:R:3 spacegroup="P 1" unit_cell=conventional occupancy="_JSON {\"0\": {\"In\": 1}, \"1\": {\"In\": 1}, \"2\": {\"In\": 1}, \"3\": {\"In\": 1}, \"4\": {\"In\": 1}, \"5\": {\"In\": 1}, \"6\": {\"In\": 1}, \"7\": {\"In\": 1}, \"8\": {\"In\": 1}, \"9\": {\"In\": 1}, \"10\": {\"In\": 1}, \"11\": {\"In\": 1}, \"12\": {\"In\": 1}, \"13\": {\"In\": 1}, \"14\": {\"In\": 1}, \"15\": {\"In\": 1}, \"16\": {\"O\": 1}, \"17\": {\"O\": 1}, \"18\": {\"O\": 1}, \"19\": {\"O\": 1}, \"20\": {\"O\": 1}, \"21\": {\"O\": 1}, \"22\": {\"O\": 1}, \"23\": {\"O\": 1}, \"24\": {\"O\": 1}, \"25\": {\"O\": 1}, \"26\": {\"O\": 1}, \"27\": {\"O\": 1}, \"28\": {\"O\": 1}, \"29\": {\"O\": 1}, \"30\": {\"O\": 1}, \"31\": {\"O\": 1}, \"32\": {\"O\": 1}, \"33\": {\"O\": 1}, \"34\": {\"O\": 1}, \"35\": {\"O\": 1}, \"36\": {\"O\": 1}, \"37\": {\"O\": 1}, \"38\": {\"O\": 1}, \"39\": {\"O\": 1}}" n_minim_iter=7 energy=-45150.158390645454 stress="0.060681623784270555 -6.566606487082324e-14 -7.542308117122251e-15 -6.566606487082324e-14 0.06068162378452672 1.8088078428776936e-13 -7.542308117122251e-15 1.8088078428776936e-13 0.060681623784783194" free_energy=-45150.158390645454 pbc="T T T"
In      -4.38486185       3.10056555       5.94132030        0      -0.00385296       0.00272445      -0.00471889
In       7.46350503       1.25329341       1.59978460        1       0.00385296      -0.00272445       0.00471889
In       1.30621866      -0.92363607       5.37033705        2       0.00385296      -0.00272445       0.00471889
In      -1.53932159      -2.17692947       3.77055245        3       0.00000000       0.00000000       0.00000000
In      -1.30621866       4.18903028       3.48506083        4      -0.00385296       0.00272445       0.00471889
In       4.85106771      -2.93573688       5.65582868        5      -0.00385296      -0.00544890       0.00000000
In      -1.30621866       1.41812207       5.65582868        6      -0.00385296      -0.00544890      -0.00000000
In      -1.77242453       7.28959583       1.88527622        7       0.00385296       0.00544890      -0.00000000
In       4.38486184       0.16482867       4.05604408        8       0.00385296      -0.00272445      -0.00471889
In      -1.53932160       4.35385895      -0.00000000        9      -0.00000000      -0.00000000      -0.00000000
In       4.38486184       6.69561709       0.28549162       10       0.00385296      -0.00272445      -0.00471889
In      -1.30621866      -2.34175814       7.25561328       11      -0.00385296       0.00272445       0.00471889
In       4.38486184       2.93573688       1.88527622       12       0.00385296       0.00544890       0.00000000
In       1.77242453       5.27749502       2.17076785       13      -0.00385296       0.00272445      -0.00471889
In       4.61796478       0.00000000      -0.00000000       14       0.00000000       0.00000000       0.00000000
In       1.53932159       2.17692948       3.77055245       15      -0.00000000      -0.00000000      -0.00000000
O        0.95505008       4.35885364       4.08601786       16       0.00314335       0.00381440      -0.00544603
O       -2.12359311       3.53609793       5.49377044       17       0.00314335      -0.00662360      -0.00058035
O       -0.44793342       2.35122760       0.00492115       18      -0.00160076      -0.00326901      -0.00639067
O       -0.95505008      -0.81276633       2.03868340       19      -0.00314335      -0.00280920      -0.00602638
O        4.04172946       5.16946651       2.03376225       20      -0.00729257      -0.00088045       0.00036429
O        2.11555691       3.00037295       1.72321799       21       0.00729257      -0.00075571      -0.00058035
O        2.11555691       6.52295251       0.31054426       22       0.00729257      -0.00012474       0.00094464
O       -2.36606978       6.16936157       3.77547360       23       0.00254847       0.00259888      -0.00639067
O        3.52657661       2.00263136       7.53618376       24       0.00160076       0.00326901       0.00639067
O        5.44471296      -1.81550262       3.76563130       25      -0.00254847      -0.00259888       0.00639067
O        6.60521979       3.35680511       1.73679020       26       0.00160076      -0.00716899      -0.00036429
O        3.79121660       2.36190474       4.08109671       27       0.00254847      -0.00683392       0.00094464
O        0.71257341       4.53031054       7.22563949       28       0.00254847       0.00423504       0.00544603
O        2.36606977      -0.17645159       0.31546541       29      -0.00254847      -0.00423504      -0.00544603
O       -3.52657661       0.99705384       5.80431471       30      -0.00160076       0.00716899       0.00036429
O        5.20223629       0.81776103       2.04733446       31      -0.00314335       0.00662360       0.00058035
O        0.96308628       1.35348600       5.81788691       32      -0.00729257       0.00075571       0.00058035
O        3.52657661      -1.00557751       5.80923585       33       0.00160076       0.00389998      -0.00602638
O        2.12359311      -0.00499469       3.45508704       34      -0.00314335      -0.00381440       0.00544603
O        0.96308628      -2.16909355       7.23056064       35      -0.00729257       0.00012474      -0.00094464
O       -0.71257341       1.99195421       3.46000819       36      -0.00254847       0.00683392      -0.00094464
O       -0.96308628      -0.81560756       5.50734265       37       0.00729257       0.00088045      -0.00036429
O       -0.44793342       5.35943647       1.73186905       38      -0.00160076      -0.00389998       0.00602638
O        4.03369326       5.16662528       5.50242150       39       0.00314335       0.00280920       0.00602638
