40
Lattice="9.566060184310885 7.497590382513951e-10 6.706348554642823e-15 -3.1886867288105063 9.01896803383655 -1.2986405827960517e-09 -3.1886867277501962 -4.509484016168502 7.810655434088009" Properties=species:S:1:pos:R:3:spacegroup_kinds:I:1:forces:R:3 spacegroup="P 1" unit_cell=conventional occupancy="_JSON {\"0\": {\"In\": 1}, \"1\": {\"In\": 1}, \"2\": {\"In\": 1}, \"3\": {\"In\": 1}, \"4\": {\"In\": 1}, \"5\": {\"In\": 1}, \"6\": {\"In\": 1}, \"7\": {\"In\": 1}, \"8\": {\"In\": 1}, \"9\": {\"In\": 1}, \"10\": {\"In\": 1}, \"11\": {\"In\": 1}, \"12\": {\"In\": 1}, \"13\": {\"In\": 1}, \"14\": {\"In\": 1}, \"15\": {\"In\": 1}, \"16\": {\"O\": 1}, \"17\": {\"O\": 1}, \"18\": {\"O\": 1}, \"19\": {\"O\": 1}, \"20\": {\"O\": 1}, \"21\": {\"O\": 1}, \"22\": {\"O\": 1}, \"23\": {\"O\": 1}, \"24\": {\"O\": 1}, \"25\": {\"O\": 1}, \"26\": {\"O\": 1}, \"27\": {\"O\": 1}, \"28\": {\"O\": 1}, \"29\": {\"O\": 1}, \"30\": {\"O\": 1}, \"31\": {\"O\": 1}, \"32\": {\"O\": 1}, \"33\": {\"O\": 1}, \"34\": {\"O\": 1}, \"35\": {\"O\": 1}, \"36\": {\"O\": 1}, \"37\": {\"O\": 1}, \"38\": {\"O\": 1}, \"39\": {\"O\": 1}}" n_minim_iter=8 energy=-45144.431763076704 stress="0.10515438086310394 3.6704687036863463e-13 2.1441903950029365e-14 3.6704687036863463e-13 0.1051543808643078 -2.5919817701571843e-14 2.1441903950029365e-14 -2.5919817701571843e-14 0.10515438086379732" free_energy=-45144.431763076704 pbc="T T T"
In      -4.50246006       3.18372004       6.20161828        0      -0.00450950       0.00318870      -0.00552299
In       7.69114678       1.32576398       1.60903714        1       0.00450950      -0.00318870       0.00552299
In       1.31377333      -0.92897803       5.51436486        2       0.00450950      -0.00318870       0.00552299
In      -1.59434337      -2.25474201       3.90532771        3      -0.00000000      -0.00000000      -0.00000000
In      -1.31377333       4.31109104       3.56170100        4      -0.00450950       0.00318870       0.00552299
In       5.06360013      -2.98532706       5.85799157        5      -0.00450950      -0.00637740       0.00000000
In      -1.31377333       1.52415696       5.85799157        6      -0.00450950      -0.00637740       0.00000000
In      -1.87491340       7.49481108       1.95266385        7       0.00450950       0.00637740      -0.00000000
In       4.50246005       0.19839298       4.24895443        8       0.00450950      -0.00318870      -0.00552299
In      -1.59434337       4.50948402      -0.00000000        9      -0.00000000       0.00000000       0.00000000
In       4.50246005       6.96261900       0.34362671       10       0.00450950      -0.00318870      -0.00552299
In      -1.31377333      -2.45313498       7.46702872       11      -0.00450950       0.00318870       0.00552299
In       4.50246005       2.98532707       1.95266386       12       0.00450950       0.00637740      -0.00000000
In       1.87491340       5.43846205       2.29629057       13      -0.00450950       0.00318870      -0.00552299
In       4.78303009       0.00000000      -0.00000000       14      -0.00000000      -0.00000000      -0.00000000
In       1.59434336       2.25474201       3.90532771       15       0.00000000       0.00000000       0.00000000
O        1.08308624       4.51867399       4.20464266       16      -0.00323812       0.00352323      -0.00864233
O       -2.10560049       3.63673238       5.70037536       17      -0.00323812      -0.00924609       0.00126996
O       -0.45314501       2.46826990      -0.08644371       18      -0.00647494      -0.00695731      -0.00269432
O       -1.08308624      -0.86356167       2.09436258       19       0.00323812      -0.00572286      -0.00737237
O        4.13061099       5.32313740       2.18080629       20      -0.00763792       0.00416730      -0.00467805
O        2.24676246       3.02767706       1.79504764       21       0.00763792       0.00613496       0.00126996
O        2.24676246       6.80494436       0.38575864       22       0.00763792      -0.00196766      -0.00594801
O       -2.47815552       6.36869861       3.81888401       23       0.00440110       0.00842374      -0.00269432
O        3.64183174       2.04121412       7.89709913       24       0.00647494       0.00695731       0.00269432
O        5.66684224      -1.85921458       3.99177142       25      -0.00440110      -0.00842374       0.00269432
O        6.83051846       3.41401452       1.72452143       26       0.00647494      -0.00581200       0.00467805
O        3.89921794       2.37764328       4.29108636       27       0.00440110      -0.00654522      -0.00594801
O        0.71053121       4.78211017       7.51134049       28       0.00440110      -0.00187852       0.00864233
O        2.47815551      -0.27262615       0.29931494       29      -0.00440110       0.00187852      -0.00864233
O       -3.64183174       1.09546950       6.08613400       30      -0.00647494       0.00581200      -0.00467805
O        5.29428721       0.87275164       2.11028007       31       0.00323812       0.00924609      -0.00126996
O        0.94192426       1.48180696       6.01560779       32      -0.00763792      -0.00613496      -0.00126996
O        3.64183174      -0.94574461       5.99969030       33       0.00647494      -0.00114531      -0.00737237
O        2.10560049      -0.00918996       3.60601277       34       0.00323812      -0.00352323       0.00864233
O        0.94192426      -2.29546033       7.42489679       35      -0.00763792       0.00196766       0.00594801
O       -0.71053121       2.13184074       3.51956907       36      -0.00440110       0.00654522       0.00594801
O       -0.94192427      -0.81365338       5.62984914       37       0.00763792      -0.00416730       0.00467805
O       -0.45314501       5.45522863       1.81096513       38      -0.00647494       0.00114531       0.00737237
O        4.27177297       5.37304570       5.71629284       39      -0.00323812       0.00572286       0.00737237
