40
Lattice="8.068327637690267 6.323702502305894e-10 1.713120906446727e-14 -2.6894425464929625 7.606892247050048 -1.095310207242971e-09 -2.6894425455986664 -3.803446122892647 6.587761930526425" Properties=species:S:1:pos:R:3:spacegroup_kinds:I:1:forces:R:3 spacegroup="P 1" unit_cell=conventional occupancy="_JSON {\"0\": {\"In\": 1}, \"1\": {\"In\": 1}, \"2\": {\"In\": 1}, \"3\": {\"In\": 1}, \"4\": {\"In\": 1}, \"5\": {\"In\": 1}, \"6\": {\"In\": 1}, \"7\": {\"In\": 1}, \"8\": {\"In\": 1}, \"9\": {\"In\": 1}, \"10\": {\"In\": 1}, \"11\": {\"In\": 1}, \"12\": {\"In\": 1}, \"13\": {\"In\": 1}, \"14\": {\"In\": 1}, \"15\": {\"In\": 1}, \"16\": {\"O\": 1}, \"17\": {\"O\": 1}, \"18\": {\"O\": 1}, \"19\": {\"O\": 1}, \"20\": {\"O\": 1}, \"21\": {\"O\": 1}, \"22\": {\"O\": 1}, \"23\": {\"O\": 1}, \"24\": {\"O\": 1}, \"25\": {\"O\": 1}, \"26\": {\"O\": 1}, \"27\": {\"O\": 1}, \"28\": {\"O\": 1}, \"29\": {\"O\": 1}, \"30\": {\"O\": 1}, \"31\": {\"O\": 1}, \"32\": {\"O\": 1}, \"33\": {\"O\": 1}, \"34\": {\"O\": 1}, \"35\": {\"O\": 1}, \"36\": {\"O\": 1}, \"37\": {\"O\": 1}, \"38\": {\"O\": 1}, \"39\": {\"O\": 1}}" n_minim_iter=5 energy=-45145.41996358735 stress="-0.15186445518211827 3.6496464557185207e-13 -1.1497911627528705e-13 3.6496464557185207e-13 -0.15186445518276087 -4.1490281244701736e-13 -1.1497911627528705e-13 -4.1490281244701736e-13 -0.1518644551821252" free_energy=-45145.41996358735 pbc="T T T"
In      -3.61858228       2.55872407       5.44980280        0      -0.00205205       0.00145102      -0.00251324
In       6.30802482       1.24472206       1.13795912        1       0.00205205      -0.00145102       0.00251324
In       0.92913973      -0.65700100       4.43184009        2       0.00205205      -0.00145102       0.00251324
In      -1.34472127      -1.90172306       3.29388096        3      -0.00000000       0.00000000       0.00000000
In      -0.92913973       3.50958560       2.78489960        4      -0.00205205       0.00145102       0.00251324
In       4.44974536      -2.26486354       4.94082145        5      -0.00205205      -0.00290204      -0.00000000
In      -0.92913973       1.53858258       4.94082145        6      -0.00205205      -0.00290204      -0.00000000
In      -1.76030281       6.06830967       1.64694048        7       0.00205205       0.00290204       0.00000000
In       3.61858228       0.29386053       3.80286232        8       0.00205205      -0.00145102      -0.00251324
In      -1.34472127       3.80344612      -0.00000000        9      -0.00000000       0.00000000       0.00000000
In       3.61858228       5.99902971       0.50898136       10       0.00205205      -0.00145102      -0.00251324
In      -0.92913973      -2.19558358       6.07878057       11      -0.00205205       0.00145102       0.00251324
In       3.61858228       2.26486354       1.64694048       12       0.00205205       0.00290204      -0.00000000
In       1.76030281       4.46044713       2.15592184       13      -0.00205205       0.00145102      -0.00251324
In       4.03416382       0.00000000      -0.00000000       14      -0.00000000      -0.00000000      -0.00000000
In       1.34472127       1.90172306       3.29388096       15      -0.00000000       0.00000000      -0.00000000
O        0.65781491       3.73451859       4.07440507       16      -0.00803984      -0.00187542       0.00425207
O       -2.03162763       3.56300206       4.61025239       17      -0.00803984       0.00462011      -0.00050188
O       -0.07240670       2.17762366       0.42203624       18      -0.00009223      -0.00099970       0.00923193
O       -0.65781492      -0.30937159       2.09689553       19       0.00803984       0.00274469       0.00375019
O        4.03643977       4.35648046       1.67485928       20       0.00703583       0.00258536      -0.00548173
O        1.34244532       2.62949261       1.31637142       21      -0.00703583       0.00604000      -0.00050188
O        1.34244532       5.53043398       0.35848785       22      -0.00703583      -0.00345464      -0.00497986
O       -2.07721884       5.04756033       3.71591721       23       0.00091179       0.00042019       0.00923193
O        2.76184924       1.62582247       6.16572568       24       0.00009223       0.00099970      -0.00923193
O        4.76666138      -1.24411420       2.87184472       25      -0.00091179      -0.00042019      -0.00923193
O        5.45129179       3.35602900       1.61902168       26       0.00009223       0.00749523       0.00548173
O        3.30166625       2.59602161       3.65236882       27       0.00091179       0.00778499      -0.00497986
O        0.61222371       3.76675645       5.80723782       28       0.00091179      -0.00820518      -0.00425207
O        2.07721884       0.03668968       0.78052410       29      -0.00091179       0.00820518       0.00425207
O       -2.76184925       0.44741713       4.96874024       30      -0.00009223      -0.00749523      -0.00548173
O        4.72107017       0.24044407       1.97750954       31       0.00803984      -0.00462011       0.00050188
O        1.34699722       1.17395352       5.27139050       32       0.00703583      -0.00604000       0.00050188
O        2.76184924      -1.17840534       5.39077649       33       0.00009223      -0.00849493       0.00375019
O        2.03162763       0.06892753       2.51335686       34       0.00803984       0.00187542      -0.00425207
O        1.34699722      -1.72698785       6.22927407       35       0.00703583       0.00345464       0.00497986
O       -0.61222371       1.20742452       2.93539311       36      -0.00091179      -0.00778499       0.00497986
O       -1.34699722      -0.55303433       4.91290265       37      -0.00703583      -0.00258536       0.00548173
O       -0.07240670       4.98185147       1.19698543       38      -0.00009223       0.00849493      -0.00375019
O        3.34725746       4.11281772       4.49086640       39      -0.00803984      -0.00274469      -0.00375019
