40
Lattice="9.501856503613247 7.447253806167987e-10 1.0284495789328851e-14 -3.167285501906548 8.958436223173656 -1.289923941336771e-09 -3.167285500853353 -4.479218110842088 7.75823334831105" Properties=species:S:1:pos:R:3:spacegroup_kinds:I:1:forces:R:3 spacegroup="P 1" unit_cell=conventional occupancy="_JSON {\"0\": {\"In\": 1}, \"1\": {\"In\": 1}, \"2\": {\"In\": 1}, \"3\": {\"In\": 1}, \"4\": {\"In\": 1}, \"5\": {\"In\": 1}, \"6\": {\"In\": 1}, \"7\": {\"In\": 1}, \"8\": {\"In\": 1}, \"9\": {\"In\": 1}, \"10\": {\"In\": 1}, \"11\": {\"In\": 1}, \"12\": {\"In\": 1}, \"13\": {\"In\": 1}, \"14\": {\"In\": 1}, \"15\": {\"In\": 1}, \"16\": {\"O\": 1}, \"17\": {\"O\": 1}, \"18\": {\"O\": 1}, \"19\": {\"O\": 1}, \"20\": {\"O\": 1}, \"21\": {\"O\": 1}, \"22\": {\"O\": 1}, \"23\": {\"O\": 1}, \"24\": {\"O\": 1}, \"25\": {\"O\": 1}, \"26\": {\"O\": 1}, \"27\": {\"O\": 1}, \"28\": {\"O\": 1}, \"29\": {\"O\": 1}, \"30\": {\"O\": 1}, \"31\": {\"O\": 1}, \"32\": {\"O\": 1}, \"33\": {\"O\": 1}, \"34\": {\"O\": 1}, \"35\": {\"O\": 1}, \"36\": {\"O\": 1}, \"37\": {\"O\": 1}, \"38\": {\"O\": 1}, \"39\": {\"O\": 1}}" n_minim_iter=8 energy=-45145.79770303373 stress="0.09810148689342917 -1.273846309052267e-13 -3.288237558580614e-13 -1.273846309052267e-13 0.09810148689330161 9.413846055156608e-14 -3.288237558580614e-13 9.413846055156608e-14 0.09810148689378195" free_energy=-45145.79770303373 pbc="T T T"
In      -4.47916593       3.16724860       6.15151452        0      -0.00340967       0.00241100      -0.00417598
In       7.64645143       1.31196951       1.60671882        1       0.00340967      -0.00241100       0.00417598
In       1.31188042      -0.92763954       5.48583549        2       0.00340967      -0.00241100       0.00417598
In      -1.58364275      -2.23960905       3.87911667        3       0.00000000      -0.00000000      -0.00000000
In      -1.31188043       4.28705313       3.54627716        4      -0.00340967       0.00241100       0.00417598
In       5.02269058      -2.97508361       5.81867501        5      -0.00340967      -0.00482201      -0.00000000
In      -1.31188043       1.50413450       5.81867501        6      -0.00340967      -0.00482201      -0.00000000
In      -1.85540508       7.45430173       1.93955833        7       0.00340967       0.00482201       0.00000000
In       4.47916592       0.19216499       4.21195619        8       0.00340967      -0.00241100      -0.00417598
In      -1.58364275       4.47921811      -0.00000000        9      -0.00000000       0.00000000       0.00000000
In       4.47916592       6.91099215       0.33283951       10       0.00340967      -0.00241100      -0.00417598
In      -1.31188043      -2.43177404       7.42539383       11      -0.00340967       0.00241100       0.00417598
In       4.47916592       2.97508362       1.93955833       12       0.00340967       0.00482201      -0.00000000
In       1.85540507       5.40685766       2.27239785       13      -0.00340967       0.00241100      -0.00417598
In       4.75092825       0.00000000      -0.00000000       14       0.00000000       0.00000000      -0.00000000
In       1.58364275       2.23960906       3.87911667       15      -0.00000000       0.00000000       0.00000000
O        1.04836312       4.48814781       4.18090557       16       0.00169731      -0.00532420      -0.00352770
O       -2.11892239       3.61630560       5.66004721       17       0.00169731      -0.00039297       0.00637474
O       -0.45568836       2.44022153      -0.06114879       18      -0.00482444       0.00421859      -0.00161273
O       -1.04836312      -0.85398282       2.08271944       19      -0.00169731      -0.00571717       0.00284704
O        4.11579307       5.29789667       2.14386823       20      -0.00093627       0.00478607       0.00445977
O        2.21877793       3.03191304       1.78093054       21       0.00093627      -0.00146924       0.00637474
O        2.21877793       6.74520174       0.36293768       22       0.00093627       0.00625531      -0.00191497
O       -2.45255905       6.33504709       3.81796789       23      -0.00558547       0.00314232      -0.00161273
O        3.62297386       2.03899658       7.81938213       24       0.00482444      -0.00421859       0.00161273
O        5.61984454      -1.85582898       3.94026546       25       0.00558547      -0.00314232       0.00161273
O        6.79025936       3.40676342       1.73524844       26       0.00482444       0.00071263      -0.00445977
O        3.88201196       2.37854269       4.24205436       27      -0.00558547      -0.00296783      -0.00191497
O        0.71472646       4.72406455       7.45644444       28      -0.00558547      -0.00017450       0.00352770
O        2.45255904      -0.24484644       0.30178890       29       0.00558547       0.00017450      -0.00352770
O       -3.62297386       1.07245469       6.02298490       30      -0.00482444      -0.00071263       0.00445977
O        5.28620788       0.86291252       2.09818613       31      -0.00169731       0.00039297      -0.00637474
O        0.94850757       1.44730507       5.97730280       32      -0.00093627       0.00146924      -0.00637474
O        3.62297386      -0.96654189       5.96183612       33       0.00482444       0.00350596       0.00284704
O        2.11892238      -0.00892969       3.57732777       34      -0.00169731       0.00532420       0.00352770
O        0.94850757      -2.26598363       7.39529566       35      -0.00093627      -0.00625531       0.00191497
O       -0.71472646       2.10067542       3.51617898       36       0.00558547       0.00296783       0.00191497
O       -0.94850757      -0.81867856       5.61436511       37       0.00093627      -0.00478607      -0.00445977
O       -0.45568836       5.44576000       1.79639722       38      -0.00482444      -0.00350596      -0.00284704
O        4.21564862       5.33320094       5.67551390       39       0.00169731       0.00571717      -0.00284704
