80
Lattice="11.758642317987029 0.010302572039678378 0.007113781221944756 6.460836918713642 9.824630355139734 0.007113781221945222 6.46083691871364 3.487580348674101 9.18478064694844" Properties=species:S:1:pos:R:3:spacegroup_kinds:I:1:forces:R:3 spacegroup="P 1" unit_cell=conventional occupancy="_JSON {\"0\": {\"In\": 1}, \"1\": {\"In\": 1}, \"2\": {\"In\": 1}, \"3\": {\"In\": 1}, \"4\": {\"O\": 1}, \"5\": {\"O\": 1}, \"6\": {\"O\": 1}, \"7\": {\"O\": 1}, \"8\": {\"O\": 1}, \"9\": {\"O\": 1}}" n_minim_iter=4 energy=-90301.43824008467 stress="-2.0367178473337773e-05 3.656442901001834e-05 -3.624831069341023e-05 3.656442901001834e-05 -5.222682977949324e-05 1.1073239605341392e-05 -3.624831069341023e-05 1.1073239605341392e-05 -9.629235592471725e-06" free_energy=-11287.679869096059 pbc="T T T"
In      10.57733263       5.70967785       3.94245232        0       0.00039602      -0.00010135      -0.00082908
In      16.45665379       5.71482914       3.94600921        0       0.00135649       0.00126406       0.00190380
In      13.80775109      10.62199303       3.94600921        0       0.00196456       0.00161289      -0.00192951
In      19.68707225      10.62714431       3.94956610        0       0.00006513      -0.00019310       0.00144585
In      13.80775109       7.45346802       8.53484264        0       0.01047727       0.00432872      -0.00127608
In      19.68707225       7.45861931       8.53839953        0      -0.00514019       0.00437105      -0.00159184
In      17.03816955      12.36578320       8.53839953        0       0.00094596      -0.00190255      -0.00069519
In      22.91749071      12.37093449       8.54195642        0      -0.00080701       0.00267040       0.00091870
In       7.93290450       4.28220712       2.95680384        1      -0.00066465      -0.00218230      -0.00206082
In      13.81222566       4.28735841       2.96036073        1      -0.00242941       0.00083599       0.00153069
In      11.16332296       9.19452230       2.96036073        1       0.00026860      -0.00215481       0.00156160
In      17.04264412       9.19967358       2.96391762        1      -0.00160367       0.00038338      -0.00132313
In      11.16332296       6.02599729       7.54919416        1       0.00830119      -0.00031174       0.00325725
In      17.04264412       6.03114858       7.55275105        1      -0.00661886      -0.00081870       0.00396682
In      14.39374142      10.93831247       7.55275105        1      -0.00128650      -0.00172517      -0.00041427
In      20.27306258      10.94346376       7.55630794        1      -0.00032688       0.00132058      -0.00011511
In       4.40725359       2.37904953       1.64270027        2       0.03435157      -0.00175849      -0.02339464
In      10.28657475       2.38420082       1.64625716        2      -0.00333191      -0.00024044      -0.00271726
In       7.63767205       7.29136471       1.64625716        2       0.00006881      -0.00091603       0.00015546
In      13.51699321       7.29651599       1.64981405        2       0.00089279       0.00261950       0.00017453
In       7.63767205       4.12283970       6.23509059        2       0.00021518       0.00005083      -0.00026170
In      13.51699321       4.12799099       6.23864748        2       0.00277451      -0.00005076       0.00108763
In      10.86809051       9.03515488       6.23864748        2       0.00049933       0.00168232      -0.00066391
In      16.74741167       9.04030617       6.24220437        2       0.00036276      -0.00035899       0.00041811
In       1.76282546       0.95157880       0.65705179        3      -0.00388106      -0.00314081      -0.00002150
In       7.64214662       0.95673009       0.66060868        3       0.03497717      -0.02547947       0.00668582
In       4.99324392       5.86389398       0.66060868        3       0.00104137       0.00022382      -0.00100723
In      10.87256508       5.86904526       0.66416557        3      -0.00147579      -0.00113404      -0.00048019
In       4.99324392       2.69536897       5.24944211        3      -0.00077808       0.00017912       0.00173383
In      10.87256508       2.70052026       5.25299900        3      -0.00160366      -0.00109235      -0.00154471
In       8.22366238       7.60768415       5.25299900        3      -0.00131754      -0.00063791      -0.00110649
In      14.10298354       7.61283544       5.25655589        3      -0.00116362      -0.00090829       0.00116521
O        6.03528364       2.31329413       0.21696401        4      -0.13517624       0.02093022       0.01316397
O       11.90402126       2.31843615       0.22051450        4       0.00549172      -0.00039926      -0.00067462
O        9.25511856       7.22560004       0.22051450        4       0.00103101       0.00107416      -0.00062423
O       15.13443972       7.23075132       0.22407139        4       0.00097974      -0.00092916      -0.00054608
O        9.25511856       4.05707503       4.80934793        4       0.00102462       0.00019963       0.00064065
O       15.13443972       4.06222632       4.81290482        4       0.00096649      -0.00042417      -0.00124989
O       12.48553702       8.96939021       4.81290482        4      -0.00058905       0.00000415      -0.00043258
O       18.36485818       8.97454150       4.81646171        4       0.00017816       0.00021104      -0.00028666
O        7.10035586       5.12358481       1.15343292        5      -0.00086202       0.00551820       0.00217883
O       12.97967702       5.12873610       1.15698981        5       0.00108582      -0.00037815      -0.00036692
O       10.33077432      10.03589999       1.15698981        5       0.00306178       0.00657991      -0.00091902
O       16.21009548      10.04105127       1.16054670        5      -0.00081710      -0.00027819      -0.00020355
O       10.33077432       6.86737498       5.74582324        5      -0.00035649       0.00040997      -0.00075476
O       16.21009548       6.87252627       5.74938013        5       0.00012065       0.00089884      -0.00027843
O       13.56119278      11.77969016       5.74938013        5      -0.00022581       0.00022871       0.00029824
O       19.44051394      11.78484145       5.75293702        5      -0.00033336       0.00030107       0.00027877
O        8.17946281       2.18564253       2.51315278        6       0.00333616       0.00123020       0.00592893
O       14.05878397       2.19079382       2.51670967        6      -0.00041892      -0.00048381      -0.00082447
O       11.40988127       7.09795771       2.51670967        6       0.00011802       0.00015241      -0.00047939
O       17.28920243       7.10310899       2.52026656        6       0.00000751       0.00014201      -0.00041088
O       11.40988127       3.92943270       7.10554310        6      -0.00051123       0.00382300       0.00379898
O       17.28920243       3.93458399       7.10909999        6       0.00140517      -0.00071923      -0.00081387
O       14.64029973       8.84174788       7.10909999        6      -0.00000433      -0.00079062       0.00010175
O       20.51962089       8.84689917       7.11265688        6       0.00047435      -0.00015615       0.00034805
O        4.16069528       4.47561412       2.08635133        7       0.00196598      -0.00446003      -0.00306696
O       10.04001644       4.48076541       2.08990822        7       0.00195890       0.00269682       0.00120927
O        7.39111374       9.38792930       2.08990822        7       0.00117856       0.00023153      -0.00027959
O       13.27043490       9.39308058       2.09346511        7      -0.00166408      -0.00206340       0.00240508
O        7.39111374       6.21940429       6.67874165        7       0.00081778      -0.00003443       0.00165237
O       13.27043490       6.22455558       6.68229854        7      -0.00059285       0.00216932      -0.00867411
O       10.62153220      11.13171947       6.68229854        7      -0.00063975      -0.00055478       0.00019832
O       16.50085336      11.13687076       6.68585543        7      -0.00000559       0.00050660       0.00056600
O        6.31545798       4.34797179       4.38254649        8      -0.00032274      -0.00038640      -0.00006585
O       12.19477914       4.35312308       4.38610338        8      -0.00005248       0.00004634       0.00026525
O        9.54587644       9.26028697       4.38610338        8       0.00061402       0.00083048      -0.00127826
O       15.42519760       9.26543825       4.38966027        8       0.00059181      -0.00128365       0.00179322
O        9.54587644       6.09176196       8.97493681        8       0.02188967      -0.00264068       0.00501298
O       15.42519760       6.09691325       8.97849370        8       0.02243201       0.00340609      -0.00376571
O       12.77629490      11.00407714       8.97849370        8      -0.00006639      -0.00014754       0.00053407
O       18.65561606      11.00922843       8.98205059        8      -0.00031929      -0.00059445       0.00024657
O        5.23980223       1.53767184       3.44607119        9      -0.00134625       0.00091517      -0.00279893
O       11.11912339       1.54282313       3.44962808        9       0.00149585      -0.00080764       0.00031574
O        8.47022069       6.44998702       3.44962808        9       0.00032143       0.00005880       0.00026326
O       14.34954185       6.45513830       3.45318497        9      -0.00029585      -0.00065427      -0.00059386
O        8.47022069       3.28146201       8.03846151        9       0.00231700       0.00144980       0.00208347
O       14.34954185       3.28661330       8.04201840        9       0.00224730      -0.00500604      -0.00306481
O       11.70063915       8.19377719       8.04201840        9      -0.00015344      -0.00815509       0.00520980
O       17.57996031       8.19892848       8.04557529        9       0.00111185       0.00089734      -0.00061279
