80
Lattice="11.758642317987029 0.010302572039678378 0.007113781221944756 6.460836918713642 9.824630355139734 0.007113781221945222 6.46083691871364 3.487580348674101 9.18478064694844" Properties=species:S:1:pos:R:3:spacegroup_kinds:I:1:forces:R:3 spacegroup="P 1" unit_cell=conventional occupancy="_JSON {\"0\": {\"In\": 1}, \"1\": {\"In\": 1}, \"2\": {\"In\": 1}, \"3\": {\"In\": 1}, \"4\": {\"O\": 1}, \"5\": {\"O\": 1}, \"6\": {\"O\": 1}, \"7\": {\"O\": 1}, \"8\": {\"O\": 1}, \"9\": {\"O\": 1}}" n_minim_iter=4 energy=-90301.43854648 stress="-4.904614124286245e-05 5.846444533749408e-06 1.7295786496024035e-05 5.846444533749408e-06 -1.5905155110215885e-05 1.981540847472523e-06 1.7295786496024035e-05 1.981540847472523e-06 -6.171003553857729e-05" free_energy=-11287.679869096059 pbc="T T T"
In      10.57733263       5.70967785       3.94245232        0       0.00144130       0.00090840       0.00055282
In      16.45665379       5.71482914       3.94600921        0       0.00077396       0.00037337       0.00023945
In      13.80775109      10.62199303       3.94600921        0      -0.00042082      -0.00027944       0.00031014
In      19.68707225      10.62714431       3.94956610        0       0.00154485       0.00083970      -0.00034054
In      13.80775109       7.45346802       8.53484264        0      -0.00571430      -0.01339922       0.00317412
In      19.68707225       7.45861931       8.53839953        0       0.00340307      -0.00128005       0.00113809
In      17.03816955      12.36578320       8.53839953        0       0.00164247       0.00317971       0.00088247
In      22.91749071      12.37093449       8.54195642        0      -0.00023653       0.00129795       0.00009093
In       7.93290450       4.28220712       2.95680384        1       0.00059956      -0.00103992       0.00278316
In      13.81222566       4.28735841       2.96036073        1      -0.00102955      -0.00177565      -0.00047838
In      11.16332296       9.19452230       2.96036073        1      -0.00059254       0.00145528      -0.00256863
In      17.04264412       9.19967358       2.96391762        1      -0.00092762      -0.00065297      -0.00025200
In      11.16332296       6.02599729       7.54919416        1      -0.00665253      -0.00685632      -0.00367487
In      17.04264412       6.03114858       7.55275105        1       0.00257948      -0.00031932      -0.00287104
In      14.39374142      10.93831247       7.55275105        1      -0.00033495       0.00089052      -0.00014922
In      20.27306258      10.94346376       7.55630794        1      -0.00151684       0.00024238      -0.00004599
In       4.40725359       2.37904953       1.64270027        2      -0.01675590      -0.00463100       0.01383023
In      10.28657475       2.38420082       1.64625716        2       0.00310851       0.00039562       0.00248392
In       7.63767205       7.29136471       1.64625716        2       0.00183639       0.00275213       0.00031697
In      13.51699321       7.29651599       1.64981405        2      -0.00054841       0.00193041       0.00038008
In       7.63767205       4.12283970       6.23509059        2       0.00116446       0.00028486       0.00092185
In      13.51699321       4.12799099       6.23864748        2      -0.00116208      -0.00115867       0.00273079
In      10.86809051       9.03515488       6.23864748        2      -0.00066002       0.00186395      -0.00348163
In      16.74741167       9.04030617       6.24220437        2       0.00152175       0.00142105       0.00015074
In       1.76282546       0.95157880       0.65705179        3       0.00226564       0.00074535      -0.00023093
In       7.64214662       0.95673009       0.66060868        3       0.00032743      -0.00914305       0.00066762
In       4.99324392       5.86389398       0.66060868        3      -0.00448258       0.00225206       0.00044260
In      10.87256508       5.86904526       0.66416557        3      -0.00000952       0.00078522      -0.00045965
In       4.99324392       2.69536897       5.24944211        3      -0.00130519      -0.00166006      -0.00092111
In      10.87256508       2.70052026       5.25299900        3      -0.00030110       0.00029282       0.00086632
In       8.22366238       7.60768415       5.25299900        3      -0.00069062      -0.00000405       0.00030659
In      14.10298354       7.61283544       5.25655589        3      -0.00068521       0.00033085      -0.00228295
O        6.01888493       2.30444206       0.21695121        4       0.05639005       0.05436153      -0.02126374
O       11.90402126       2.31843615       0.22051450        4      -0.00251784       0.00078064       0.00000971
O        9.25511856       7.22560004       0.22051450        4      -0.00127788      -0.00182885       0.00005028
O       15.13443972       7.23075132       0.22407139        4       0.00041390      -0.00071794      -0.00054846
O        9.25511856       4.05707503       4.80934793        4      -0.00056411       0.00045197      -0.00133974
O       15.13443972       4.06222632       4.81290482        4      -0.00000922       0.00009877      -0.00055665
O       12.48553702       8.96939021       4.81290482        4       0.00048888      -0.00011975       0.00093818
O       18.36485818       8.97454150       4.81646171        4      -0.00010847      -0.00001770      -0.00028395
O        7.10035586       5.12358481       1.15343292        5      -0.00234347      -0.00693362      -0.00455927
O       12.97967702       5.12873610       1.15698981        5      -0.00025598       0.00078953       0.00001147
O       10.33077432      10.03589999       1.15698981        5      -0.00660509      -0.00440373       0.00123874
O       16.21009548      10.04105127       1.16054670        5      -0.00038068       0.00084803      -0.00005424
O       10.33077432       6.86737498       5.74582324        5       0.00043101       0.00030383       0.00066290
O       16.21009548       6.87252627       5.74938013        5      -0.00025576       0.00000534       0.00030690
O       13.56119278      11.77969016       5.74938013        5      -0.00029087       0.00079917      -0.00023193
O       19.44051394      11.78484145       5.75293702        5       0.00055456      -0.00052429      -0.00102877
O        8.17946281       2.18564253       2.51315278        6      -0.00108240       0.00144958      -0.00293212
O       14.05878397       2.19079382       2.51670967        6       0.00018987       0.00009856       0.00038765
O       11.40988127       7.09795771       2.51670967        6       0.00005203      -0.00151916       0.00022254
O       17.28920243       7.10310899       2.52026656        6       0.00091943      -0.00097012      -0.00061104
O       11.40988127       3.92943270       7.10554310        6      -0.00100870      -0.00313081      -0.00649893
O       17.28920243       3.93458399       7.10909999        6       0.00004207       0.00003117      -0.00040773
O       14.64029973       8.84174788       7.10909999        6       0.00019180       0.00059612      -0.00080612
O       20.51962089       8.84689917       7.11265688        6       0.00093053      -0.00041001       0.00021662
O        4.16069528       4.47561412       2.08635133        7       0.00132431       0.00091116      -0.00038546
O       10.04001644       4.48076541       2.08990822        7      -0.00238743      -0.00101111      -0.00037140
O        7.39111374       9.38792930       2.08990822        7      -0.00191130      -0.00033183       0.00114537
O       13.27043490       9.39308058       2.09346511        7       0.00129796      -0.00334334       0.00279015
O        7.39111374       6.21940429       6.67874165        7      -0.00029761       0.00001134      -0.00063189
O       13.27043490       6.22455558       6.68229854        7      -0.00137382       0.00125886       0.00889711
O       10.62153220      11.13171947       6.68229854        7       0.00000414       0.00056247       0.00087897
O       16.50085336      11.13687076       6.68585543        7      -0.00028906      -0.00094513      -0.00005083
O        6.31545798       4.34797179       4.38254649        8       0.00032782       0.00024502       0.00035758
O       12.19477914       4.35312308       4.38610338        8      -0.00017154      -0.00004392       0.00020545
O        9.54587644       9.26028697       4.38610338        8      -0.00117264      -0.00069410       0.00173988
O       15.42519760       9.26543825       4.38966027        8       0.00058182      -0.00018162       0.00031953
O        9.54587644       6.09176196       8.97493681        8      -0.01014802       0.00022801      -0.00208883
O       15.42519760       6.09691325       8.97849370        8      -0.01503602      -0.00000377       0.00152458
O       12.77629490      11.00407714       8.97849370        8      -0.00002524      -0.00166560       0.00070770
O       18.65561606      11.00922843       8.98205059        8       0.00051069       0.00032102       0.00021618
O        5.23980223       1.53767184       3.44607119        9       0.00072895      -0.00073777       0.00333109
O       11.11912339       1.54282313       3.44962808        9      -0.00026605      -0.00007745      -0.00020051
O        8.47022069       6.44998702       3.44962808        9      -0.00067027      -0.00135605      -0.00100763
O       14.34954185       6.45513830       3.45318497        9       0.00085017       0.00022861       0.00000111
O        8.47022069       3.28146201       8.03846151        9      -0.00188127      -0.00100502      -0.00168924
O       14.34954185       3.28661330       8.04201840        9       0.00187609      -0.00149432      -0.00097994
O       11.70063915       8.19377719       8.04201840        9       0.00654936      -0.00950099       0.00747426
O       17.57996031       8.19892848       8.04557529        9      -0.00050728      -0.00145462       0.00038257
