40
Lattice="5.589771 0.0 0.0 0.0 5.775531 0.0 0.0 0.0 16.135291" Properties=species:S:1:pos:R:3:spacegroup_kinds:I:1:forces:R:3 spacegroup="P 1" unit_cell=conventional occupancy="_JSON {\"0\": {\"In\": 1}, \"1\": {\"In\": 1}, \"2\": {\"In\": 1}, \"3\": {\"In\": 1}, \"4\": {\"In\": 1}, \"5\": {\"In\": 1}, \"6\": {\"In\": 1}, \"7\": {\"In\": 1}, \"8\": {\"In\": 1}, \"9\": {\"In\": 1}, \"10\": {\"In\": 1}, \"11\": {\"In\": 1}, \"12\": {\"In\": 1}, \"13\": {\"In\": 1}, \"14\": {\"In\": 1}, \"15\": {\"In\": 1}, \"16\": {\"O\": 1}, \"17\": {\"O\": 1}, \"18\": {\"O\": 1}, \"19\": {\"O\": 1}, \"20\": {\"O\": 1}, \"21\": {\"O\": 1}, \"22\": {\"O\": 1}, \"23\": {\"O\": 1}, \"24\": {\"O\": 1}, \"25\": {\"O\": 1}, \"26\": {\"O\": 1}, \"27\": {\"O\": 1}, \"28\": {\"O\": 1}, \"29\": {\"O\": 1}, \"30\": {\"O\": 1}, \"31\": {\"O\": 1}, \"32\": {\"O\": 1}, \"33\": {\"O\": 1}, \"34\": {\"O\": 1}, \"35\": {\"O\": 1}, \"36\": {\"O\": 1}, \"37\": {\"O\": 1}, \"38\": {\"O\": 1}, \"39\": {\"O\": 1}}" n_minim_iter=1 energy=-45150.26438649334 stress="-0.000616187395777568 -3.655135765089672e-13 -1.1509074394196698e-13 -3.655135765089672e-13 -0.000713612598595246 3.7686335780695277e-13 -1.1509074394196698e-13 3.7686335780695277e-13 -0.0015790478096488654" free_energy=-45150.26438649334 pbc="T T T"
In       2.80276149       4.57778405       9.19871326        0      -0.01594812       0.03121335       0.00321370
In       0.00787599       4.08551245       6.93657774        1      -0.01594812      -0.03121335      -0.00321370
In       2.78700951       1.69001855      15.00422324        2       0.01594812       0.03121335      -0.00321370
In       5.58189501       1.19774695       1.13106776        3       0.01594812      -0.03121335       0.00321370
In       2.78700951       1.19774695       6.93657774        4       0.01594812      -0.03121335      -0.00321370
In       5.58189501       1.69001855       9.19871326        5       0.01594812       0.03121335       0.00321370
In       2.80276149       4.08551245       1.13106776        6      -0.01594812      -0.03121335       0.00321370
In       0.00787599       4.57778405      15.00422324        7      -0.01594812       0.03121335      -0.00321370
In       2.78882060       4.26397058      13.20692931        8      -0.02964483       0.03485230      -0.01737266
In       5.58370610       4.39932592       2.92836169        9      -0.02964483      -0.03485230       0.01737266
In       2.80095040       1.37620508      10.99600719       10       0.02964483       0.03485230       0.01737266
In       0.00606490       1.51156042       5.13928381       11       0.02964483      -0.03485230      -0.01737266
In       2.80095040       1.51156042       2.92836169       12       0.02964483      -0.03485230       0.01737266
In       0.00606490       1.37620508      13.20692931       13       0.02964483       0.03485230      -0.01737266
In       2.78882060       4.39932592       5.13928381       14      -0.02964483      -0.03485230      -0.01737266
In       5.58370610       4.26397058      10.99600719       15      -0.02964483       0.03485230       0.01737266
O        4.81310027       5.03928363      12.87723691       16      -0.00182826      -0.01638545      -0.00542687
O        2.01821477       3.62401287       3.25805409       17      -0.00182826       0.01638545       0.00542687
O        0.77667073       2.15151813      11.32569959       18       0.00182826      -0.01638545       0.00542687
O        3.57155623       0.73624737       4.80959141       19       0.00182826       0.01638545      -0.00542687
O        0.77667073       0.73624737       3.25805409       20       0.00182826       0.01638545       0.00542687
O        3.57155623       2.15151813      12.87723691       21       0.00182826      -0.01638545      -0.00542687
O        4.81310027       3.62401287       4.80959141       22      -0.00182826       0.01638545      -0.00542687
O        2.01821477       5.03928363      11.32569959       23      -0.00182826      -0.01638545       0.00542687
O        3.94638951       2.99280508      10.06333897       24       0.01207187       0.04580043       0.06026682
O        1.15150401       5.67049142       6.07195203       25       0.01207187      -0.04580043      -0.06026682
O        1.64338149       0.10503958      14.13959753       26      -0.01207187       0.04580043      -0.06026682
O        4.43826699       2.78272592       1.99569347       27      -0.01207187      -0.04580043       0.06026682
O        1.64338149       2.78272592       6.07195203       28      -0.01207187      -0.04580043      -0.06026682
O        4.43826699       0.10503958      10.06333897       29      -0.01207187       0.04580043       0.06026682
O        3.94638951       5.67049142       1.99569347       30       0.01207187      -0.04580043       0.06026682
O        1.15150401       2.99280508      14.13959753       31       0.01207187       0.04580043      -0.06026682
O        3.62643660       3.77778060      15.28702648       32      -0.03114311       0.02066423       0.00973944
O        0.83155110       4.88551590       0.84826452       33      -0.03114311      -0.02066423      -0.00973944
O        1.96333440       0.89001510       8.91591002       34       0.03114311       0.02066423      -0.00973944
O        4.75821990       1.99775040       7.21938098       35       0.03114311      -0.02066423       0.00973944
O        1.96333440       1.99775040       0.84826452       36       0.03114311      -0.02066423      -0.00973944
O        4.75821990       0.89001510      15.28702648       37       0.03114311       0.02066423       0.00973944
O        3.62643660       4.88551590       7.21938098       38      -0.03114311      -0.02066423       0.00973944
O        0.83155110       3.77778060       8.91591002       39      -0.03114311       0.02066423      -0.00973944
40
Lattice="5.592518387091529 3.28503425600298e-44 0.0 2.0055184792296346e-45 5.778818640538131 0.0 0.0 0.0 16.15562167822554" Properties=species:S:1:pos:R:3:spacegroup_kinds:I:1:forces:R:3 spacegroup="P 1" unit_cell=conventional occupancy="_JSON {\"0\": {\"In\": 1}, \"1\": {\"In\": 1}, \"2\": {\"In\": 1}, \"3\": {\"In\": 1}, \"4\": {\"In\": 1}, \"5\": {\"In\": 1}, \"6\": {\"In\": 1}, \"7\": {\"In\": 1}, \"8\": {\"In\": 1}, \"9\": {\"In\": 1}, \"10\": {\"In\": 1}, \"11\": {\"In\": 1}, \"12\": {\"In\": 1}, \"13\": {\"In\": 1}, \"14\": {\"In\": 1}, \"15\": {\"In\": 1}, \"16\": {\"O\": 1}, \"17\": {\"O\": 1}, \"18\": {\"O\": 1}, \"19\": {\"O\": 1}, \"20\": {\"O\": 1}, \"21\": {\"O\": 1}, \"22\": {\"O\": 1}, \"23\": {\"O\": 1}, \"24\": {\"O\": 1}, \"25\": {\"O\": 1}, \"26\": {\"O\": 1}, \"27\": {\"O\": 1}, \"28\": {\"O\": 1}, \"29\": {\"O\": 1}, \"30\": {\"O\": 1}, \"31\": {\"O\": 1}, \"32\": {\"O\": 1}, \"33\": {\"O\": 1}, \"34\": {\"O\": 1}, \"35\": {\"O\": 1}, \"36\": {\"O\": 1}, \"37\": {\"O\": 1}, \"38\": {\"O\": 1}, \"39\": {\"O\": 1}}" n_minim_iter=2 energy=-45150.265175571316 stress="0.0003032398204567072 -3.3525167581092106e-13 4.047115565079514e-14 -3.3525167581092106e-13 0.00043842525031039084 -5.140737341062427e-13 4.047115565079514e-14 -5.140737341062427e-13 -0.00015986263042745463" free_energy=-45150.265175571316 pbc="T T T"
In       2.80411463       4.58043770       9.21030869        0      -0.01246215       0.02571195      -0.00181401
In       0.00785543       4.08779026       6.94531299        1      -0.01246215      -0.02571195       0.00181401
In       2.78840376       1.69102838      15.02312383        2       0.01246215       0.02571195       0.00181401
In       5.58466295       1.19838094       1.13249785        3       0.01246215      -0.02571195      -0.00181401
In       2.78840376       1.19838094       6.94531299        4       0.01246215      -0.02571195       0.00181401
In       5.58466295       1.69102838       9.21030869        5       0.01246215       0.02571195      -0.00181401
In       2.80411463       4.08779026       1.13249785        6      -0.01246215      -0.02571195      -0.00181401
In       0.00785543       4.58043770      15.02312383        7      -0.01246215       0.02571195       0.00181401
In       2.79014591       4.26645117      13.22354358        8      -0.03329015       0.03657654      -0.02180927
In       5.58640510       4.40177679       2.93207809        9      -0.03329015      -0.03657654       0.02180927
In       2.80237248       1.37704185      11.00988893       10       0.03329015       0.03657654       0.02180927
In       0.00611329       1.51236747       5.14573275       11       0.03329015      -0.03657654      -0.02180927
In       2.80237248       1.51236747       2.93207809       12       0.03329015      -0.03657654       0.02180927
In       0.00611329       1.37704185      13.22354358       13       0.03329015       0.03657654      -0.02180927
In       2.79014591       4.40177679       5.14573275       14      -0.03329015      -0.03657654      -0.02180927
In       5.58640510       4.26645117      11.00988893       15      -0.03329015       0.03657654       0.02180927
O        4.81546312       5.04212707      12.89345408       16      -0.00052054      -0.01937199      -0.00839575
O        2.01920393       3.62610089       3.26216760       17      -0.00052054       0.01937199       0.00839575
O        0.77705527       2.15271775      11.33997844       18       0.00052054      -0.01937199       0.00839575
O        3.57331446       0.73669157       4.81564324       19       0.00052054       0.01937199      -0.00839575
O        0.77705527       0.73669157       3.26216760       20       0.00052054       0.01937199       0.00839575
O        3.57331446       2.15271775      12.89345408       21       0.00052054      -0.01937199      -0.00839575
O        4.81546312       3.62610089       4.81564324       22      -0.00052054       0.01937199      -0.00839575
O        2.01920393       5.04212707      11.33997844       23      -0.00052054      -0.01937199       0.00839575
O        3.94834766       2.99457885      10.07611129       24       0.00802679       0.04605742       0.05759514
O        1.15208847       5.67364911       6.07951039       25       0.00802679      -0.04605742      -0.05759514
O        1.64417073       0.10516953      14.15732123       26      -0.00802679       0.04605742      -0.05759514
O        4.44042992       2.78423979       1.99830045       27      -0.00802679      -0.04605742       0.05759514
O        1.64417073       2.78423979       6.07951039       28      -0.00802679      -0.04605742      -0.05759514
O        4.44042992       0.10516953      10.07611129       29      -0.00802679       0.04605742       0.05759514
O        3.94834766       5.67364911       1.99830045       30       0.00802679      -0.04605742       0.05759514
O        1.15208847       2.99457885      14.15732123       31       0.00802679       0.04605742      -0.05759514
O        3.62817130       3.77996270      15.30630326       32      -0.02871076       0.02513510       0.01914349
O        0.83191211       4.88826526       0.84931842       33      -0.02871076      -0.02513510      -0.01914349
O        1.96434708       0.89055338       8.92712925       34       0.02871076       0.02513510      -0.01914349
O        4.76060628       1.99885594       7.22849242       35       0.02871076      -0.02513510       0.01914349
O        1.96434708       1.99885594       0.84931842       36       0.02871076      -0.02513510      -0.01914349
O        4.76060628       0.89055338      15.30630326       37       0.02871076       0.02513510       0.01914349
O        3.62817130       4.88826526       7.22849242       38      -0.02871076      -0.02513510       0.01914349
O        0.83191211       3.77996270       8.92712925       39      -0.02871076       0.02513510      -0.01914349
40
Lattice="5.589787201144631 3.197499474305029e-44 0.0 2.8830934533171684e-45 5.774354867021109 0.0 0.0 0.0 16.17132531495867" Properties=species:S:1:pos:R:3:spacegroup_kinds:I:1:forces:R:3 spacegroup="P 1" unit_cell=conventional occupancy="_JSON {\"0\": {\"In\": 1}, \"1\": {\"In\": 1}, \"2\": {\"In\": 1}, \"3\": {\"In\": 1}, \"4\": {\"In\": 1}, \"5\": {\"In\": 1}, \"6\": {\"In\": 1}, \"7\": {\"In\": 1}, \"8\": {\"In\": 1}, \"9\": {\"In\": 1}, \"10\": {\"In\": 1}, \"11\": {\"In\": 1}, \"12\": {\"In\": 1}, \"13\": {\"In\": 1}, \"14\": {\"In\": 1}, \"15\": {\"In\": 1}, \"16\": {\"O\": 1}, \"17\": {\"O\": 1}, \"18\": {\"O\": 1}, \"19\": {\"O\": 1}, \"20\": {\"O\": 1}, \"21\": {\"O\": 1}, \"22\": {\"O\": 1}, \"23\": {\"O\": 1}, \"24\": {\"O\": 1}, \"25\": {\"O\": 1}, \"26\": {\"O\": 1}, \"27\": {\"O\": 1}, \"28\": {\"O\": 1}, \"29\": {\"O\": 1}, \"30\": {\"O\": 1}, \"31\": {\"O\": 1}, \"32\": {\"O\": 1}, \"33\": {\"O\": 1}, \"34\": {\"O\": 1}, \"35\": {\"O\": 1}, \"36\": {\"O\": 1}, \"37\": {\"O\": 1}, \"38\": {\"O\": 1}, \"39\": {\"O\": 1}}" n_minim_iter=3 energy=-45150.265587173875 stress="-0.000344183803268528 -5.923073104254787e-13 5.88550165044952e-13 -5.923073104254787e-13 -0.0003944501716180765 -8.860485312319888e-14 5.88550165044952e-13 -8.860485312319888e-14 0.00048449031965827133" free_energy=-45150.265587173875 pbc="T T T"
In       2.80267705       4.57703897       9.21925536        0      -0.00648908       0.02887465      -0.00876208
In       0.00778345       4.08449333       6.95206995        1      -0.00648908      -0.02887465       0.00876208
In       2.78711015       1.68986154      15.03773261        2       0.00648908       0.02887465       0.00876208
In       5.58200375       1.19731590       1.13359271        3       0.00648908      -0.02887465      -0.00876208
In       2.78711015       1.19731590       6.95206995        4       0.00648908      -0.02887465       0.00876208
In       5.58200375       1.68986154       9.21925536        5       0.00648908       0.02887465      -0.00876208
In       2.80267705       4.08449333       1.13359271        6      -0.00648908      -0.02887465      -0.00876208
In       0.00778345       4.57703897      15.03773261        7      -0.00648908       0.02887465       0.00876208
In       2.78861058       4.26334699      13.23628517        8      -0.03616554       0.03674659      -0.02425569
In       5.58350418       4.39818531       2.93504014        9      -0.03616554      -0.03674659       0.02425569
In       2.80117662       1.37616956      11.02070280       10       0.03616554       0.03674659       0.02425569
In       0.00628302       1.51100788       5.15062251       11       0.03616554      -0.03674659      -0.02425569
In       2.80117662       1.51100788       2.93504014       12       0.03616554      -0.03674659       0.02425569
In       0.00628302       1.37616956      13.23628517       13       0.03616554       0.03674659      -0.02425569
In       2.78861058       4.39818531       5.15062251       14      -0.03616554      -0.03674659      -0.02425569
In       5.58350418       4.26334699      11.02070280       15      -0.03616554       0.03674659       0.02425569
O        4.81310774       5.03813248      12.90594461       16       0.00250191      -0.01823936      -0.00980815
O        2.01821414       3.62339982       3.26538071       17       0.00250191       0.01823936       0.00980815
O        0.77667946       2.15095504      11.35104337       18      -0.00250191      -0.01823936       0.00980815
O        3.57157306       0.73622239       4.82028195       19      -0.00250191       0.01823936      -0.00980815
O        0.77667946       0.73622239       3.26538071       20      -0.00250191       0.01823936       0.00980815
O        3.57157306       2.15095504      12.90594461       21      -0.00250191      -0.01823936      -0.00980815
O        4.81310774       3.62339982       4.82028195       22       0.00250191       0.01823936      -0.00980815
O        2.01821414       5.03813248      11.35104337       23       0.00250191      -0.01823936       0.00980815
O        3.94646462       2.99250809      10.08621166       24       0.01166722       0.04302612       0.05651016
O        1.15157102       5.66902421       6.08511365       25       0.01166722      -0.04302612      -0.05651016
O        1.64332258       0.10533066      14.17077631       26      -0.01166722       0.04302612      -0.05651016
O        4.43821618       2.78184677       2.00054901       27      -0.01166722      -0.04302612       0.05651016
O        1.64332258       2.78184677       6.08511365       28      -0.01166722      -0.04302612      -0.05651016
O        4.43821618       0.10533066      10.08621166       29      -0.01166722       0.04302612       0.05651016
O        3.94646462       5.66902421       2.00054901       30       0.01166722      -0.04302612       0.05651016
O        1.15157102       2.99250809      14.17077631       31       0.01166722       0.04302612      -0.05651016
O        3.62624646       3.77717207      15.32127568       32      -0.03384285       0.02532704       0.02417829
O        0.83135286       4.88436023       0.85004964       33      -0.03384285      -0.02532704      -0.02417829
O        1.96354074       0.88999464       8.93571229       34       0.03384285       0.02532704      -0.02417829
O        4.75843434       1.99718280       7.23561302       35       0.03384285      -0.02532704       0.02417829
O        1.96354074       1.99718280       0.85004964       36       0.03384285      -0.02532704      -0.02417829
O        4.75843434       0.88999464      15.32127568       37       0.03384285       0.02532704       0.02417829
O        3.62624646       4.88436023       7.23561302       38      -0.03384285      -0.02532704       0.02417829
O        0.83135286       3.77717207       8.93571229       39      -0.03384285       0.02532704      -0.02417829
40
Lattice="5.598947991344009 -9.215845607516137e-44 0.0 6.712859778313587e-44 5.766228941503895 0.0 0.0 0.0 16.18455614290212" Properties=species:S:1:pos:R:3:spacegroup_kinds:I:1:forces:R:3 spacegroup="P 1" unit_cell=conventional occupancy="_JSON {\"0\": {\"In\": 1}, \"1\": {\"In\": 1}, \"2\": {\"In\": 1}, \"3\": {\"In\": 1}, \"4\": {\"In\": 1}, \"5\": {\"In\": 1}, \"6\": {\"In\": 1}, \"7\": {\"In\": 1}, \"8\": {\"In\": 1}, \"9\": {\"In\": 1}, \"10\": {\"In\": 1}, \"11\": {\"In\": 1}, \"12\": {\"In\": 1}, \"13\": {\"In\": 1}, \"14\": {\"In\": 1}, \"15\": {\"In\": 1}, \"16\": {\"O\": 1}, \"17\": {\"O\": 1}, \"18\": {\"O\": 1}, \"19\": {\"O\": 1}, \"20\": {\"O\": 1}, \"21\": {\"O\": 1}, \"22\": {\"O\": 1}, \"23\": {\"O\": 1}, \"24\": {\"O\": 1}, \"25\": {\"O\": 1}, \"26\": {\"O\": 1}, \"27\": {\"O\": 1}, \"28\": {\"O\": 1}, \"29\": {\"O\": 1}, \"30\": {\"O\": 1}, \"31\": {\"O\": 1}, \"32\": {\"O\": 1}, \"33\": {\"O\": 1}, \"34\": {\"O\": 1}, \"35\": {\"O\": 1}, \"36\": {\"O\": 1}, \"37\": {\"O\": 1}, \"38\": {\"O\": 1}, \"39\": {\"O\": 1}}" n_minim_iter=4 energy=-45150.27180700042 stress="0.001234558599224932 7.666368436573863e-14 -9.312021001029067e-14 7.666368436573863e-14 -0.0007417965379358353 1.0266699641376342e-13 -9.312021001029067e-14 1.0266699641376342e-13 0.00020730273461557448" free_energy=-45150.27180700042 pbc="T T T"
In       2.80589096       4.57423308       9.22623839        0      -0.02168968      -0.00880116       0.03025016
In       0.00641696       4.07511033       6.95831775        1      -0.02168968       0.00880116      -0.03025016
In       2.79305703       1.69111861      15.05059582        2       0.02168968      -0.00880116      -0.03025016
In       5.59253103       1.19199586       1.13396032        3       0.02168968       0.00880116       0.03025016
In       2.79305703       1.19199586       6.95831775        4       0.02168968       0.00880116      -0.03025016
In       5.59253103       1.69111861       9.22623839        5       0.02168968      -0.00880116       0.03025016
In       2.80589096       4.07511033       1.13396032        6      -0.02168968       0.00880116       0.03025016
In       0.00641696       4.57423308      15.05059582        7      -0.02168968      -0.00880116      -0.03025016
In       2.78863214       4.26219410      13.24411753        8       0.02703652       0.00889114      -0.00721118
In       5.58810613       4.38714931       2.94043861        9       0.02703652      -0.00889114       0.00721118
In       2.81031586       1.37907963      11.03271669       10      -0.02703652       0.00889114       0.00721118
In       0.01084186       1.50403484       5.15183946       11      -0.02703652      -0.00889114      -0.00721118
In       2.81031586       1.50403484       2.94043861       12      -0.02703652      -0.00889114       0.00721118
In       0.01084186       1.37907963      13.24411753       13      -0.02703652       0.00889114      -0.00721118
In       2.78863214       4.38714931       5.15183946       14       0.02703652      -0.00889114      -0.00721118
In       5.58810613       4.26219410      11.03271669       15       0.02703652       0.00889114       0.00721118
O        4.82107287       5.02856100      12.91533785       16      -0.02683463       0.01187393       0.04271491
O        2.02159887       3.62078242       3.26921829       17      -0.02683463      -0.01187393      -0.04271491
O        0.77787512       2.14544652      11.36149636       18       0.02683463       0.01187393      -0.04271491
O        3.57734912       0.73766795       4.82305978       19       0.02683463      -0.01187393       0.04271491
O        0.77787512       0.73766795       3.26921829       20       0.02683463      -0.01187393      -0.04271491
O        3.57734912       2.14544652      12.91533785       21       0.02683463       0.01187393       0.04271491
O        4.82107287       3.62078242       4.82305978       22      -0.02683463      -0.01187393       0.04271491
O        2.02159887       5.02856100      11.36149636       23      -0.02683463       0.01187393      -0.04271491
O        3.95423464       2.99424824      10.10212445       24       0.00053648       0.04557928       0.00202745
O        1.15476065       5.65509517       6.08243169       25       0.00053648      -0.04557928      -0.00202745
O        1.64471335       0.11113377      14.17470977       26      -0.00053648       0.04557928      -0.00202745
O        4.44418734       2.77198070       2.00984638       27      -0.00053648      -0.04557928       0.00202745
O        1.64471335       2.77198070       6.08243169       28      -0.00053648      -0.04557928      -0.00202745
O        4.44418734       0.11113377      10.10212445       29      -0.00053648       0.04557928       0.00202745
O        3.95423464       5.65509517       2.00984638       30       0.00053648      -0.04557928       0.00202745
O        1.15476065       2.99424824      14.17470977       31       0.00053648       0.04557928      -0.00202745
O        3.62806979       3.77515805      15.33653910       32       0.00354357       0.04038809      -0.01584678
O        0.82859579       4.87418536       0.84801704       33       0.00354357      -0.04038809       0.01584678
O        1.97087820       0.89204358       8.94029511       34      -0.00354357       0.04038809       0.01584678
O        4.77035220       1.99107089       7.24426103       35      -0.00354357      -0.04038809      -0.01584678
O        1.97087820       1.99107089       0.84801704       36      -0.00354357      -0.04038809       0.01584678
O        4.77035220       0.89204358      15.33653910       37      -0.00354357       0.04038809      -0.01584678
O        3.62806979       4.87418536       7.24426103       38       0.00354357      -0.04038809      -0.01584678
O        0.82859579       3.77515805       8.94029511       39       0.00354357       0.04038809       0.01584678
40
Lattice="5.588778849773793 -8.963459089774805e-44 0.0 6.322448575244157e-44 5.774312843940803 0.0 0.0 0.0 16.18595501009116" Properties=species:S:1:pos:R:3:spacegroup_kinds:I:1:forces:R:3 spacegroup="P 1" unit_cell=conventional occupancy="_JSON {\"0\": {\"In\": 1}, \"1\": {\"In\": 1}, \"2\": {\"In\": 1}, \"3\": {\"In\": 1}, \"4\": {\"In\": 1}, \"5\": {\"In\": 1}, \"6\": {\"In\": 1}, \"7\": {\"In\": 1}, \"8\": {\"In\": 1}, \"9\": {\"In\": 1}, \"10\": {\"In\": 1}, \"11\": {\"In\": 1}, \"12\": {\"In\": 1}, \"13\": {\"In\": 1}, \"14\": {\"In\": 1}, \"15\": {\"In\": 1}, \"16\": {\"O\": 1}, \"17\": {\"O\": 1}, \"18\": {\"O\": 1}, \"19\": {\"O\": 1}, \"20\": {\"O\": 1}, \"21\": {\"O\": 1}, \"22\": {\"O\": 1}, \"23\": {\"O\": 1}, \"24\": {\"O\": 1}, \"25\": {\"O\": 1}, \"26\": {\"O\": 1}, \"27\": {\"O\": 1}, \"28\": {\"O\": 1}, \"29\": {\"O\": 1}, \"30\": {\"O\": 1}, \"31\": {\"O\": 1}, \"32\": {\"O\": 1}, \"33\": {\"O\": 1}, \"34\": {\"O\": 1}, \"35\": {\"O\": 1}, \"36\": {\"O\": 1}, \"37\": {\"O\": 1}, \"38\": {\"O\": 1}, \"39\": {\"O\": 1}}" n_minim_iter=5 energy=-45150.27293189189 stress="-6.620153508382141e-05 -3.85531923970656e-13 2.9482184488831145e-13 -3.85531923970656e-13 0.00022666317319541859 2.728043030034076e-13 2.9482184488831145e-13 2.728043030034076e-13 0.00019982209729912137" free_energy=-45150.27293189189 pbc="T T T"
In       2.80046755       4.58127100       9.22704695        0      -0.01106800       0.00113902       0.04392197
In       0.00607813       4.08019826       6.95890806        1      -0.01106800      -0.00113902      -0.04392197
In       2.78831130       1.69411458      15.05188556        2       0.01106800       0.00113902      -0.04392197
In       5.58270072       1.19304184       1.13406945        3       0.01106800      -0.00113902       0.04392197
In       2.78831130       1.19304184       6.95890806        4       0.01106800      -0.00113902      -0.04392197
In       5.58270072       1.69411458       9.22704695        5       0.01106800       0.00113902       0.04392197
In       2.80046755       4.08019826       1.13406945        6      -0.01106800      -0.00113902       0.04392197
In       0.00607813       4.58127100      15.05188556        7      -0.01106800       0.00113902      -0.04392197
In       2.78285015       4.26907301      13.24469936        8       0.02714514      -0.00484813       0.00295976
In       5.57723957       4.39239626       2.94125565        9       0.02714514       0.00484813      -0.00295976
In       2.80592870       1.38191659      11.03423315       10      -0.02714514      -0.00484813      -0.00295976
In       0.01153928       1.50523983       5.15172186       11      -0.02714514       0.00484813       0.00295976
In       2.80592870       1.50523983       2.94125565       12      -0.02714514       0.00484813      -0.00295976
In       0.01153928       1.38191659      13.24469936       13      -0.02714514      -0.00484813       0.00295976
In       2.78285015       4.39239626       5.15172186       14       0.02714514       0.00484813       0.00295976
In       5.57723957       4.26907301      11.03423315       15       0.02714514      -0.00484813      -0.00295976
O        4.81223315       5.03520797      12.91640046       16      -0.03073636       0.02085829       0.04996296
O        2.01784372       3.62626130       3.26955455       17      -0.03073636      -0.02085829      -0.04996296
O        0.77654570       2.14805154      11.36253206       18       0.03073636       0.02085829      -0.04996296
O        3.57093513       0.73910488       4.82342295       19       0.03073636      -0.02085829       0.04996296
O        0.77654570       0.73910488       3.26955455       20       0.03073636      -0.02085829      -0.04996296
O        3.57093513       2.14805154      12.91640046       21       0.03073636       0.02085829       0.04996296
O        4.81223315       3.62626130       4.82342295       22      -0.03073636      -0.02085829       0.04996296
O        2.01784372       5.03520797      11.36253206       23      -0.03073636       0.02085829      -0.04996296
O        3.94729009       2.99968079      10.10438323       24      -0.00537672       0.04745162      -0.00928684
O        1.15290066       5.66178847       6.08157178       25      -0.00537672      -0.04745162       0.00928684
O        1.64148876       0.11252437      14.17454929       26       0.00537672       0.04745162       0.00928684
O        4.43587819       2.77463205       2.01140572       27       0.00537672      -0.04745162      -0.00928684
O        1.64148876       2.77463205       6.08157178       28       0.00537672      -0.04745162       0.00928684
O        4.43587819       0.11252437      10.10438323       29       0.00537672       0.04745162      -0.00928684
O        3.94729009       5.66178847       2.01140572       30      -0.00537672      -0.04745162      -0.00928684
O        1.15290066       2.99968079      14.17454929       31      -0.00537672       0.04745162       0.00928684
O        3.62075287       3.78118786      15.33829353       32       0.00198293       0.03185134      -0.01842304
O        0.82636345       4.88028140       0.84766148       33       0.00198293      -0.03185134       0.01842304
O        1.96802598       0.89403144       8.94063898       34      -0.00198293       0.03185134       0.01842304
O        4.76241540       1.99312498       7.24531603       35      -0.00198293      -0.03185134      -0.01842304
O        1.96802598       1.99312498       0.84766148       36      -0.00198293      -0.03185134       0.01842304
O        4.76241540       0.89403144      15.33829353       37      -0.00198293       0.03185134      -0.01842304
O        3.62075287       4.88028140       7.24531603       38       0.00198293      -0.03185134      -0.01842304
O        0.82636345       3.78118786       8.94063898       39       0.00198293       0.03185134       0.01842304
40