40
Lattice="5.535709540505635 -1.3096647925362495e-42 0.0 1.355468184363566e-42 5.729311960430942 0.0 0.0 0.0 16.005617255272703" Properties=species:S:1:pos:R:3:spacegroup_kinds:I:1:forces:R:3 spacegroup="P 1" unit_cell=conventional occupancy="_JSON {\"0\": {\"In\": 1}, \"1\": {\"In\": 1}, \"2\": {\"In\": 1}, \"3\": {\"In\": 1}, \"4\": {\"In\": 1}, \"5\": {\"In\": 1}, \"6\": {\"In\": 1}, \"7\": {\"In\": 1}, \"8\": {\"In\": 1}, \"9\": {\"In\": 1}, \"10\": {\"In\": 1}, \"11\": {\"In\": 1}, \"12\": {\"In\": 1}, \"13\": {\"In\": 1}, \"14\": {\"In\": 1}, \"15\": {\"In\": 1}, \"16\": {\"O\": 1}, \"17\": {\"O\": 1}, \"18\": {\"O\": 1}, \"19\": {\"O\": 1}, \"20\": {\"O\": 1}, \"21\": {\"O\": 1}, \"22\": {\"O\": 1}, \"23\": {\"O\": 1}, \"24\": {\"O\": 1}, \"25\": {\"O\": 1}, \"26\": {\"O\": 1}, \"27\": {\"O\": 1}, \"28\": {\"O\": 1}, \"29\": {\"O\": 1}, \"30\": {\"O\": 1}, \"31\": {\"O\": 1}, \"32\": {\"O\": 1}, \"33\": {\"O\": 1}, \"34\": {\"O\": 1}, \"35\": {\"O\": 1}, \"36\": {\"O\": 1}, \"37\": {\"O\": 1}, \"38\": {\"O\": 1}, \"39\": {\"O\": 1}}" n_minim_iter=1 energy=-45150.20827419244 stress="-0.012813990140534305 4.196543676921541e-14 6.653709238917023e-14 4.196543676921541e-14 -0.015145910233881118 -1.0165989272137281e-13 6.653709238917023e-14 -1.0165989272137281e-13 -0.011763267290211168" free_energy=-45150.20827419244 pbc="T T T"
In       2.76163628       4.58157594       9.13648716        0       0.01552433       0.08200680       0.03491925
In      -0.00621849       4.01239200       6.86913010        1       0.01552433      -0.08200680      -0.03491925
In       2.77407326       1.71691996      14.87193872        2      -0.01552433       0.08200680      -0.03491925
In       5.54192803       1.14773602       1.13367853        3      -0.01552433      -0.08200680       0.03491925
In       2.77407326       1.14773602       6.86913010        4      -0.01552433      -0.08200680      -0.03491925
In       5.54192803       1.71691996       9.13648716        5      -0.01552433       0.08200680       0.03491925
In       2.76163628       4.01239200       1.13367853        6       0.01552433      -0.08200680       0.03491925
In      -0.00621849       4.58157594      14.87193872        7       0.01552433       0.08200680      -0.03491925
In       2.75174641       4.28416869      13.09875935        8       0.03753824      -0.03207660       0.03636566
In       5.51960118       4.30979925       2.90685791        9       0.03753824       0.03207660      -0.03636566
In       2.78396313       1.41951271      10.90966654       10      -0.03753824      -0.03207660      -0.03636566
In       0.01610836       1.44514327       5.09595072       11      -0.03753824       0.03207660       0.03636566
In       2.78396313       1.44514327       2.90685791       12      -0.03753824       0.03207660      -0.03636566
In       0.01610836       1.41951271      13.09875935       13      -0.03753824      -0.03207660       0.03636566
In       2.75174641       4.30979925       5.09595072       14       0.03753824       0.03207660       0.03636566
In       5.51960118       4.28416869      10.90966654       15       0.03753824      -0.03207660      -0.03636566
O        4.75486882       5.05202424      12.77450857       16       0.01046464       0.03907538       0.02303730
O        1.98701405       3.54194370       3.23110869       17       0.01046464      -0.03907538      -0.02303730
O        0.78084072       2.18736826      11.23391732       18      -0.01046464       0.03907538      -0.02303730
O        3.54869549       0.67728772       4.77169994       19      -0.01046464      -0.03907538       0.02303730
O        0.78084072       0.67728772       3.23110869       20      -0.01046464      -0.03907538      -0.02303730
O        3.54869549       2.18736826      12.77450857       21      -0.01046464       0.03907538       0.02303730
O        4.75486882       3.54194370       4.77169994       22       0.01046464      -0.03907538       0.02303730
O        1.98701405       5.05202424      11.23391732       23       0.01046464       0.03907538      -0.02303730
O        3.91054314       3.02436857       9.99207683       24       0.06617583      -0.01732591       0.02547174
O        1.14268837       5.56959937       6.01354043       25       0.06617583       0.01732591      -0.02547174
O        1.62516640       0.15971259      14.01634905       26      -0.06617583      -0.01732591      -0.02547174
O        4.39302117       2.70494339       1.98926820       27      -0.06617583       0.01732591       0.02547174
O        1.62516640       2.70494339       6.01354043       28      -0.06617583       0.01732591      -0.02547174
O        4.39302117       0.15971259       9.99207683       29      -0.06617583      -0.01732591       0.02547174
O        3.91054314       5.56959937       1.98926820       30       0.06617583       0.01732591       0.02547174
O        1.14268837       3.02436857      14.01634905       31       0.06617583      -0.01732591      -0.02547174
O        3.57564415       3.78504352      15.17065762       32      -0.05411756      -0.03050641      -0.06101749
O        0.80778938       4.80892442       0.83495963       33      -0.05411756       0.03050641       0.06101749
O        1.96006539       0.92038754       8.83776826       34       0.05411756      -0.03050641       0.06101749
O        4.72792017       1.94426844       7.16784899       35       0.05411756       0.03050641      -0.06101749
O        1.96006539       1.94426844       0.83495963       36       0.05411756       0.03050641       0.06101749
O        4.72792017       0.92038754      15.17065762       37       0.05411756      -0.03050641      -0.06101749
O        3.57564415       4.80892442       7.16784899       38      -0.05411756       0.03050641      -0.06101749
O        0.80778938       3.78504352       8.83776826       39      -0.05411756      -0.03050641       0.06101749
40
Lattice="5.5321761394674125 -1.3109089167425287e-42 0.0 1.3551279819719084e-42 5.745651745581653 0.0 0.0 0.0 15.970293359258289" Properties=species:S:1:pos:R:3:spacegroup_kinds:I:1:forces:R:3 spacegroup="P 1" unit_cell=conventional occupancy="_JSON {\"0\": {\"In\": 1}, \"1\": {\"In\": 1}, \"2\": {\"In\": 1}, \"3\": {\"In\": 1}, \"4\": {\"In\": 1}, \"5\": {\"In\": 1}, \"6\": {\"In\": 1}, \"7\": {\"In\": 1}, \"8\": {\"In\": 1}, \"9\": {\"In\": 1}, \"10\": {\"In\": 1}, \"11\": {\"In\": 1}, \"12\": {\"In\": 1}, \"13\": {\"In\": 1}, \"14\": {\"In\": 1}, \"15\": {\"In\": 1}, \"16\": {\"O\": 1}, \"17\": {\"O\": 1}, \"18\": {\"O\": 1}, \"19\": {\"O\": 1}, \"20\": {\"O\": 1}, \"21\": {\"O\": 1}, \"22\": {\"O\": 1}, \"23\": {\"O\": 1}, \"24\": {\"O\": 1}, \"25\": {\"O\": 1}, \"26\": {\"O\": 1}, \"27\": {\"O\": 1}, \"28\": {\"O\": 1}, \"29\": {\"O\": 1}, \"30\": {\"O\": 1}, \"31\": {\"O\": 1}, \"32\": {\"O\": 1}, \"33\": {\"O\": 1}, \"34\": {\"O\": 1}, \"35\": {\"O\": 1}, \"36\": {\"O\": 1}, \"37\": {\"O\": 1}, \"38\": {\"O\": 1}, \"39\": {\"O\": 1}}" n_minim_iter=2 energy=-45150.21088031935 stress="-0.012409287878317727 1.7686983760036821e-13 6.726049376319958e-14 1.7686983760036821e-13 -0.012671610898650917 2.1727480224456617e-13 6.726049376319958e-14 2.1727480224456617e-13 -0.013326377620711727" free_energy=-45150.21088031935 pbc="T T T"
In       2.75991924       4.59488464       9.11642583        0       0.00997144       0.08224232       0.06456018
In      -0.00616883       4.02359298       6.85386752        1       0.00997144      -0.08224232      -0.06456018
In       2.77225690       1.72205877      14.83901420        2      -0.00997144       0.08224232      -0.06456018
In       5.53834497       1.15076710       1.13127916        3      -0.00997144      -0.08224232       0.06456018
In       2.77225690       1.15076710       6.85386752        4      -0.00997144      -0.08224232      -0.06456018
In       5.53834497       1.72205877       9.11642583        5      -0.00997144       0.08224232       0.06456018
In       2.75991924       4.02359298       1.13127916        6       0.00997144      -0.08224232       0.06456018
In      -0.00616883       4.59488464      14.83901420        7       0.00997144       0.08224232      -0.06456018
In       2.75010047       4.29629224      13.06995766        8       0.04002209      -0.03983223       0.04998519
In       5.51618854       4.32218538       2.90033570        9       0.04002209       0.03983223      -0.04998519
In       2.78207566       1.42346637      10.88548238       10      -0.04002209      -0.03983223      -0.04998519
In       0.01598759       1.44935950       5.08481098       11      -0.04002209       0.03983223       0.04998519
In       2.78207566       1.44935950       2.90033570       12      -0.04002209       0.03983223      -0.04998519
In       0.01598759       1.42346637      13.06995766       13      -0.04002209      -0.03983223       0.04998519
In       2.75010047       4.32218538       5.08481098       14       0.04002209       0.03983223       0.04998519
In       5.51618854       4.29629224      10.88548238       15       0.04002209      -0.03983223      -0.04998519
O        4.75186463       5.06654784      12.74638333       16       0.00011798       0.04271889       0.02821085
O        1.98577656       3.55192978       3.22391003       17       0.00011798      -0.04271889      -0.02821085
O        0.78031151       2.19372197      11.20905671       18      -0.00011798       0.04271889      -0.02821085
O        3.54639958       0.67910391       4.76123665       19      -0.00011798      -0.04271889       0.02821085
O        0.78031151       0.67910391       3.22391003       20      -0.00011798      -0.04271889      -0.02821085
O        3.54639958       2.19372197      12.74638333       21      -0.00011798       0.04271889       0.02821085
O        4.75186463       3.55192978       4.76123665       22       0.00011798      -0.04271889       0.02821085
O        1.98577656       5.06654784      11.20905671       23       0.00011798       0.04271889      -0.02821085
O        3.90824185       3.03294279       9.97009948       24       0.05045527      -0.00822522       0.02120640
O        1.14215378       5.58553483       6.00019388       25       0.05045527       0.00822522      -0.02120640
O        1.62393429       0.16011691      13.98534056       26      -0.05045527      -0.00822522      -0.02120640
O        4.39002236       2.71270896       1.98495280       27      -0.05045527       0.00822522       0.02120640
O        1.62393429       2.71270896       6.00019388       28      -0.05045527       0.00822522      -0.02120640
O        4.39002236       0.16011691       9.97009948       29      -0.05045527      -0.00822522       0.02120640
O        3.90824185       5.58553483       1.98495280       30       0.05045527       0.00822522       0.02120640
O        1.14215378       3.03294279      13.98534056       31       0.05045527      -0.00822522      -0.02120640
O        3.57320255       3.79574822      15.13699714       32      -0.04468667      -0.04062959      -0.07399070
O        0.80711448       4.82272939       0.83329622       33      -0.04468667       0.04062959       0.07399070
O        1.95897359       0.92292235       8.81844290       34       0.04468667      -0.04062959       0.07399070
O        4.72506166       1.94990352       7.15185046       35       0.04468667       0.04062959      -0.07399070
O        1.95897359       1.94990352       0.83329622       36       0.04468667       0.04062959       0.07399070
O        4.72506166       0.92292235      15.13699714       37       0.04468667      -0.04062959      -0.07399070
O        3.57320255       4.82272939       7.15185046       38      -0.04468667       0.04062959      -0.07399070
O        0.80711448       3.79574822       8.81844290       39      -0.04468667      -0.04062959       0.07399070
40
Lattice="5.512835299540768 -1.3299365130853751e-42 0.0 1.341420928637682e-42 5.756645609232373 0.0 0.0 0.0 15.995715827905613" Properties=species:S:1:pos:R:3:spacegroup_kinds:I:1:forces:R:3 spacegroup="P 1" unit_cell=conventional occupancy="_JSON {\"0\": {\"In\": 1}, \"1\": {\"In\": 1}, \"2\": {\"In\": 1}, \"3\": {\"In\": 1}, \"4\": {\"In\": 1}, \"5\": {\"In\": 1}, \"6\": {\"In\": 1}, \"7\": {\"In\": 1}, \"8\": {\"In\": 1}, \"9\": {\"In\": 1}, \"10\": {\"In\": 1}, \"11\": {\"In\": 1}, \"12\": {\"In\": 1}, \"13\": {\"In\": 1}, \"14\": {\"In\": 1}, \"15\": {\"In\": 1}, \"16\": {\"O\": 1}, \"17\": {\"O\": 1}, \"18\": {\"O\": 1}, \"19\": {\"O\": 1}, \"20\": {\"O\": 1}, \"21\": {\"O\": 1}, \"22\": {\"O\": 1}, \"23\": {\"O\": 1}, \"24\": {\"O\": 1}, \"25\": {\"O\": 1}, \"26\": {\"O\": 1}, \"27\": {\"O\": 1}, \"28\": {\"O\": 1}, \"29\": {\"O\": 1}, \"30\": {\"O\": 1}, \"31\": {\"O\": 1}, \"32\": {\"O\": 1}, \"33\": {\"O\": 1}, \"34\": {\"O\": 1}, \"35\": {\"O\": 1}, \"36\": {\"O\": 1}, \"37\": {\"O\": 1}, \"38\": {\"O\": 1}, \"39\": {\"O\": 1}}" n_minim_iter=3 energy=-45150.21243297016 stress="-0.014354003251985012 8.499553763157526e-14 -3.866560293227253e-13 8.499553763157526e-14 -0.011450872372462955 -4.734161863824726e-13 -3.866560293227253e-13 -4.734161863824726e-13 -0.011097896476772725" free_energy=-45150.21243297016 pbc="T T T"
In       2.75045840       4.60510830       9.13196391        0       0.04064882       0.08202936       0.04951262
In      -0.00595925       4.02986011       6.86375192        1       0.04064882      -0.08202936      -0.04951262
In       2.76237690       1.72678549      14.86160983        2      -0.04064882       0.08202936      -0.04951262
In       5.51879455       1.15153731       1.13410600        3      -0.04064882      -0.08202936       0.04951262
In       2.76237690       1.15153731       6.86375192        4      -0.04064882      -0.08202936      -0.04951262
In       5.51879455       1.72678549       9.13196391        5      -0.04064882       0.08202936       0.04951262
In       2.75045840       4.02986011       1.13410600        6       0.04064882      -0.08202936       0.04951262
In      -0.00595925       4.60510830      14.86160983        7       0.04064882       0.08202936      -0.04951262
In       2.74116751       4.30384219      13.09158519        8       0.00325866      -0.03287630       0.03396371
In       5.49758516       4.33112622       2.90413064        9       0.00325866       0.03287630      -0.03396371
In       2.77166779       1.42551939      10.90198855       10      -0.00325866      -0.03287630      -0.03396371
In       0.01525014       1.45280342       5.09372727       11      -0.00325866       0.03287630       0.03396371
In       2.77166779       1.45280342       2.90413064       12      -0.00325866       0.03287630      -0.03396371
In       0.01525014       1.42551939      13.09158519       13      -0.00325866      -0.03287630       0.03396371
In       2.74116751       4.33112622       5.09372727       14       0.00325866       0.03287630       0.03396371
In       5.49758516       4.30384219      10.90198855       15       0.00325866      -0.03287630      -0.03396371
O        4.73528435       5.07697547      12.76714513       16       0.01257154       0.03731462       0.00473321
O        1.97886670       3.55799294       3.22857069       17       0.01257154      -0.03731462      -0.00473321
O        0.77755095       2.19865267      11.22642861       18      -0.01257154       0.03731462      -0.00473321
O        3.53396860       0.67967014       4.76928722       19      -0.01257154      -0.03731462       0.00473321
O        0.77755095       0.67967014       3.22857069       20      -0.01257154      -0.03731462      -0.00473321
O        3.53396860       2.19865267      12.76714513       21      -0.01257154       0.03731462       0.00473321
O        4.73528435       3.55799294       4.76928722       22       0.01257154      -0.03731462       0.00473321
O        1.97886670       5.07697547      11.22642861       23       0.01257154       0.03731462      -0.00473321
O        3.89549321       3.03857576       9.98634894       24       0.02688946      -0.00022929       0.00965214
O        1.13907556       5.59639266       6.00936689       25       0.02688946       0.00022929      -0.00965214
O        1.61734209       0.16025295      14.00722481       26      -0.02688946      -0.00022929      -0.00965214
O        4.37375974       2.71806985       1.98849102       27      -0.02688946       0.00022929       0.00965214
O        1.61734209       2.71806985       6.00936689       28      -0.02688946       0.00022929      -0.00965214
O        4.37375974       0.16025295       9.98634894       29      -0.02688946      -0.00022929       0.00965214
O        3.89549321       5.59639266       1.98849102       30       0.02688946       0.00022929       0.00965214
O        1.13907556       3.03857576      14.00722481       31       0.02688946      -0.00022929      -0.00965214
O        3.55991342       3.80233358      15.15985510       32      -0.05631668      -0.04440773      -0.03545751
O        0.80349577       4.83263484       0.83586072       33      -0.05631668       0.04440773       0.03545751
O        1.95292188       0.92401077       8.83371864       34       0.05631668      -0.04440773       0.03545751
O        4.70933953       1.95431203       7.16199719       35       0.05631668       0.04440773      -0.03545751
O        1.95292188       1.95431203       0.83586072       36       0.05631668       0.04440773       0.03545751
O        4.70933953       0.92401077      15.15985510       37       0.05631668      -0.04440773      -0.03545751
O        3.55991342       4.83263484       7.16199719       38      -0.05631668       0.04440773      -0.03545751
O        0.80349577       3.80233358       8.83371864       39      -0.05631668      -0.04440773       0.03545751
40
Lattice="5.526109441624427 -1.3567986422559887e-42 0.0 1.3645519380329648e-42 5.753040302041198 0.0 0.0 0.0 15.967292975733594" Properties=species:S:1:pos:R:3:spacegroup_kinds:I:1:forces:R:3 spacegroup="P 1" unit_cell=conventional occupancy="_JSON {\"0\": {\"In\": 1}, \"1\": {\"In\": 1}, \"2\": {\"In\": 1}, \"3\": {\"In\": 1}, \"4\": {\"In\": 1}, \"5\": {\"In\": 1}, \"6\": {\"In\": 1}, \"7\": {\"In\": 1}, \"8\": {\"In\": 1}, \"9\": {\"In\": 1}, \"10\": {\"In\": 1}, \"11\": {\"In\": 1}, \"12\": {\"In\": 1}, \"13\": {\"In\": 1}, \"14\": {\"In\": 1}, \"15\": {\"In\": 1}, \"16\": {\"O\": 1}, \"17\": {\"O\": 1}, \"18\": {\"O\": 1}, \"19\": {\"O\": 1}, \"20\": {\"O\": 1}, \"21\": {\"O\": 1}, \"22\": {\"O\": 1}, \"23\": {\"O\": 1}, \"24\": {\"O\": 1}, \"25\": {\"O\": 1}, \"26\": {\"O\": 1}, \"27\": {\"O\": 1}, \"28\": {\"O\": 1}, \"29\": {\"O\": 1}, \"30\": {\"O\": 1}, \"31\": {\"O\": 1}, \"32\": {\"O\": 1}, \"33\": {\"O\": 1}, \"34\": {\"O\": 1}, \"35\": {\"O\": 1}, \"36\": {\"O\": 1}, \"37\": {\"O\": 1}, \"38\": {\"O\": 1}, \"39\": {\"O\": 1}}" n_minim_iter=4 energy=-45150.2175750254 stress="-0.011199105188998765 3.953236875290226e-13 -2.438965578492013e-13 3.953236875290226e-13 -0.011578684132067474 3.456320000575658e-14 -2.438965578492013e-13 3.456320000575658e-14 -0.011694930675747851" free_energy=-45150.2175750254 pbc="T T T"
In       2.75792100       4.60637179       9.11862647        0       0.00732775      -0.02036084       0.01384238
In      -0.00513372       4.02318866       6.84866651        1       0.00732775       0.02036084      -0.01384238
In       2.76818844       1.72985164      14.83231300        2      -0.00732775      -0.02036084      -0.01384238
In       5.53124316       1.14666851       1.13497998        3      -0.00732775       0.02036084       0.01384238
In       2.76818844       1.14666851       6.84866651        4      -0.00732775       0.02036084      -0.01384238
In       5.53124316       1.72985164       9.11862647        5      -0.00732775      -0.02036084       0.01384238
In       2.75792100       4.02318866       1.13497998        6       0.00732775       0.02036084       0.01384238
In      -0.00513372       4.60637179      14.83231300        7       0.00732775      -0.02036084      -0.01384238
In       2.74938424       4.29925502      13.07057318        8       0.00374684       0.02487281      -0.01902474
In       5.51243896       4.33030543       2.89671980        9       0.00374684      -0.02487281       0.01902474
In       2.77672520       1.42273487      10.88036629       10      -0.00374684       0.02487281       0.01902474
In       0.01367048       1.45378528       5.08692669       11      -0.00374684      -0.02487281      -0.01902474
In       2.77672520       1.45378528       2.89671980       12      -0.00374684      -0.02487281       0.01902474
In       0.01367048       1.42273487      13.07057318       13      -0.00374684       0.02487281      -0.01902474
In       2.74938424       4.33030543       5.08692669       14       0.00374684      -0.02487281      -0.01902474
In       5.51243896       4.29925502      10.88036629       15       0.00374684       0.02487281       0.01902474
O        4.74688070       5.07587455      12.74559972       16      -0.00136554       0.00877147      -0.03323694
O        1.98382598       3.55368590       3.22169325       17      -0.00136554      -0.00877147       0.03323694
O        0.77922874       2.19935440      11.20533974       18       0.00136554       0.00877147       0.03323694
O        3.54228346       0.67716575       4.76195323       19       0.00136554      -0.00877147      -0.03323694
O        0.77922874       0.67716575       3.22169325       20       0.00136554      -0.00877147       0.03323694
O        3.54228346       2.19935440      12.74559972       21       0.00136554       0.00877147      -0.03323694
O        4.74688070       3.55368590       4.76195323       22      -0.00136554      -0.00877147      -0.03323694
O        1.98382598       5.07587455      11.20533974       23      -0.00136554       0.00877147       0.03323694
O        3.90725522       3.03628243       9.96957300       24      -0.02802737       0.01806754      -0.00084263
O        1.14420049       5.59327802       5.99771997       25      -0.02802737      -0.01806754       0.00084263
O        1.61885423       0.15976228      13.98136646       26       0.02802737       0.01806754       0.00084263
O        4.38190895       2.71675787       1.98592652       27       0.02802737      -0.01806754      -0.00084263
O        1.61885423       2.71675787       5.99771997       28       0.02802737      -0.01806754       0.00084263
O        4.38190895       0.15976228       9.96957300       29       0.02802737       0.01806754      -0.00084263
O        3.90725522       5.59327802       1.98592652       30      -0.02802737      -0.01806754      -0.00084263
O        1.14420049       3.03628243      13.98136646       31      -0.02802737       0.01806754       0.00084263
O        3.56607743       3.79792578      15.12969082       32       0.01131506       0.00988936       0.00472328
O        0.80302271       4.83163467       0.83760216       33       0.01131506      -0.00988936      -0.00472328
O        1.96003201       0.92140563       8.82124865       34      -0.01131506       0.00988936      -0.00472328
O        4.72308673       1.95511452       7.14604433       35      -0.01131506      -0.00988936       0.00472328
O        1.96003201       1.95511452       0.83760216       36      -0.01131506      -0.00988936      -0.00472328
O        4.72308673       0.92140563      15.12969082       37      -0.01131506       0.00988936       0.00472328
O        3.56607743       4.83163467       7.14604433       38       0.01131506      -0.00988936       0.00472328
O        0.80302271       3.79792578       8.82124865       39       0.01131506       0.00988936      -0.00472328
40
Lattice="5.524834019925894 -1.388022353424661e-42 0.0 1.38050322358979e-42 5.752948610155545 0.0 0.0 0.0 15.971233614424419" Properties=species:S:1:pos:R:3:spacegroup_kinds:I:1:forces:R:3 spacegroup="P 1" unit_cell=conventional occupancy="_JSON {\"0\": {\"In\": 1}, \"1\": {\"In\": 1}, \"2\": {\"In\": 1}, \"3\": {\"In\": 1}, \"4\": {\"In\": 1}, \"5\": {\"In\": 1}, \"6\": {\"In\": 1}, \"7\": {\"In\": 1}, \"8\": {\"In\": 1}, \"9\": {\"In\": 1}, \"10\": {\"In\": 1}, \"11\": {\"In\": 1}, \"12\": {\"In\": 1}, \"13\": {\"In\": 1}, \"14\": {\"In\": 1}, \"15\": {\"In\": 1}, \"16\": {\"O\": 1}, \"17\": {\"O\": 1}, \"18\": {\"O\": 1}, \"19\": {\"O\": 1}, \"20\": {\"O\": 1}, \"21\": {\"O\": 1}, \"22\": {\"O\": 1}, \"23\": {\"O\": 1}, \"24\": {\"O\": 1}, \"25\": {\"O\": 1}, \"26\": {\"O\": 1}, \"27\": {\"O\": 1}, \"28\": {\"O\": 1}, \"29\": {\"O\": 1}, \"30\": {\"O\": 1}, \"31\": {\"O\": 1}, \"32\": {\"O\": 1}, \"33\": {\"O\": 1}, \"34\": {\"O\": 1}, \"35\": {\"O\": 1}, \"36\": {\"O\": 1}, \"37\": {\"O\": 1}, \"38\": {\"O\": 1}, \"39\": {\"O\": 1}}" n_minim_iter=5 energy=-45150.218070458 stress="-0.01163376881081245 7.434115448384197e-13 -5.308966336576738e-13 7.434115448384197e-13 -0.011670493585551308 -1.429947981470106e-14 -5.308966336576738e-13 -1.429947981470106e-14 -0.011666639928409064" free_energy=-45150.218070458 pbc="T T T"
In       2.75730257       4.60550139       9.12063274        0       0.00777266       0.00084141       0.01550256
In      -0.00511444       4.02392152       6.85060087        1       0.00777266      -0.00084141      -0.01550256
In       2.76753145       1.72902709      14.83621768        2      -0.00777266       0.00084141      -0.01550256
In       5.52994846       1.14744722       1.13501594        3      -0.00777266      -0.00084141       0.01550256
In       2.76753145       1.14744722       6.85060087        4      -0.00777266      -0.00084141      -0.01550256
In       5.52994846       1.72902709       9.12063274        5      -0.00777266       0.00084141       0.01550256
In       2.75730257       4.02392152       1.13501594        6       0.00777266      -0.00084141       0.01550256
In      -0.00511444       4.60550139      14.83621768        7       0.00777266       0.00084141      -0.01550256
In       2.74852336       4.29974465      13.07325222        8       0.00584051       0.01312181      -0.00621020
In       5.51094037       4.32967827       2.89798140        9       0.00584051      -0.01312181       0.00621020
In       2.77631066       1.42327034      10.88359821       10      -0.00584051       0.01312181       0.00621020
In       0.01389365       1.45320396       5.08763541       11      -0.00584051      -0.01312181      -0.00621020
In       2.77631066       1.45320396       2.89798140       12      -0.00584051      -0.01312181       0.00621020
In       0.01389365       1.42327034      13.07325222       13      -0.00584051       0.01312181      -0.00621020
In       2.74852336       4.32967827       5.08763541       14       0.00584051      -0.01312181      -0.00621020
In       5.51094037       4.29974465      10.88359821       15       0.00584051       0.01312181       0.00621020
O        4.74576051       5.07561194      12.74816884       16       0.00067151       0.01458848      -0.02252975
O        1.98334350       3.55381098       3.22306478       17       0.00067151      -0.01458848       0.02252975
O        0.77907351       2.19913763      11.20868159       18      -0.00067151       0.01458848       0.02252975
O        3.54149052       0.67733667       4.76255203       19      -0.00067151      -0.01458848      -0.02252975
O        0.77907351       0.67733667       3.22306478       20      -0.00067151      -0.01458848       0.02252975
O        3.54149052       2.19913763      12.74816884       21      -0.00067151       0.01458848      -0.02252975
O        4.74576051       3.55381098       4.76255203       22       0.00067151      -0.01458848      -0.02252975
O        1.98334350       5.07561194      11.20868159       23       0.00067151       0.01458848       0.02252975
O        3.90566964       3.03651345       9.97187652       24      -0.01394812       0.01224819       0.00337162
O        1.14325263       5.59290946       5.99935710       25      -0.01394812      -0.01224819      -0.00337162
O        1.61916438       0.16003915      13.98497390       26       0.01394812       0.01224819      -0.00337162
O        4.38158139       2.71643516       1.98625971       27       0.01394812      -0.01224819       0.00337162
O        1.61916438       2.71643516       5.99935710       28       0.01394812      -0.01224819      -0.00337162
O        4.38158139       0.16003915       9.97187652       29       0.01394812       0.01224819       0.00337162
O        3.90566964       5.59290946       1.98625971       30      -0.01394812      -0.01224819       0.00337162
O        1.14325263       3.03651345      13.98497390       31      -0.01394812       0.01224819      -0.00337162
O        3.56569330       3.79824733      15.13396766       32       0.00056282       0.00107086      -0.00395089
O        0.80327629       4.83117558       0.83726596       33       0.00056282      -0.00107086       0.00395089
O        1.95914072       0.92177303       8.82288276       34      -0.00056282       0.00107086       0.00395089
O        4.72155773       1.95470128       7.14835085       35      -0.00056282      -0.00107086      -0.00395089
O        1.95914072       1.95470128       0.83726596       36      -0.00056282      -0.00107086       0.00395089
O        4.72155773       0.92177303      15.13396766       37      -0.00056282       0.00107086      -0.00395089
O        3.56569330       4.83117558       7.14835085       38       0.00056282      -0.00107086      -0.00395089
O        0.80327629       3.79824733       8.82288276       39       0.00056282       0.00107086       0.00395089
40