40
Lattice="5.346851209702321 -1.9527911954874593e-42 0.0 2.068688240907676e-42 5.664183784192611 0.0 0.0 0.0 15.47214940918489" Properties=species:S:1:pos:R:3:spacegroup_kinds:I:1:forces:R:3 spacegroup="P 1" unit_cell=conventional occupancy="_JSON {\"0\": {\"In\": 1}, \"1\": {\"In\": 1}, \"2\": {\"In\": 1}, \"3\": {\"In\": 1}, \"4\": {\"In\": 1}, \"5\": {\"In\": 1}, \"6\": {\"In\": 1}, \"7\": {\"In\": 1}, \"8\": {\"In\": 1}, \"9\": {\"In\": 1}, \"10\": {\"In\": 1}, \"11\": {\"In\": 1}, \"12\": {\"In\": 1}, \"13\": {\"In\": 1}, \"14\": {\"In\": 1}, \"15\": {\"In\": 1}, \"16\": {\"O\": 1}, \"17\": {\"O\": 1}, \"18\": {\"O\": 1}, \"19\": {\"O\": 1}, \"20\": {\"O\": 1}, \"21\": {\"O\": 1}, \"22\": {\"O\": 1}, \"23\": {\"O\": 1}, \"24\": {\"O\": 1}, \"25\": {\"O\": 1}, \"26\": {\"O\": 1}, \"27\": {\"O\": 1}, \"28\": {\"O\": 1}, \"29\": {\"O\": 1}, \"30\": {\"O\": 1}, \"31\": {\"O\": 1}, \"32\": {\"O\": 1}, \"33\": {\"O\": 1}, \"34\": {\"O\": 1}, \"35\": {\"O\": 1}, \"36\": {\"O\": 1}, \"37\": {\"O\": 1}, \"38\": {\"O\": 1}, \"39\": {\"O\": 1}}" n_minim_iter=1 energy=-45148.97460064338 stress="-0.06064206603082145 -4.806833717742152e-13 -1.8049550673566556e-13 -4.806833717742152e-13 -0.06130112189742746 4.423642628082914e-13 -1.8049550673566556e-13 4.423642628082914e-13 -0.05833769625638068" free_energy=-45148.97460064338 pbc="T T T"
In       2.66513433       4.56750756       8.85769092        0      -0.01424322      -0.01449902      -0.00870092
In      -0.00829128       3.92876812       6.61445849        1      -0.01424322       0.01449902       0.00870092
In       2.68171688       1.73541567      14.35053319        2       0.01424322      -0.01449902       0.00870092
In       5.35514249       1.09667622       1.12161621        3       0.01424322       0.01449902      -0.00870092
In       2.68171688       1.09667622       6.61445849        4       0.01424322       0.01449902       0.00870092
In       5.35514249       1.73541567       8.85769092        5       0.01424322      -0.01449902      -0.00870092
In       2.66513433       3.92876812       1.12161621        6      -0.01424322       0.01449902      -0.00870092
In      -0.00829128       4.56750756      14.35053319        7      -0.01424322      -0.01449902       0.00870092
In       2.66754304       4.26884946      12.66019845        8       0.03976551       0.00400872      -0.10949547
In       5.34096864       4.22742622       2.81195096        9       0.03976551      -0.00400872       0.10949547
In       2.67930817       1.43675757      10.54802567       10      -0.03976551       0.00400872       0.10949547
In       0.00588257       1.39533433       4.92412374       11      -0.03976551      -0.00400872      -0.10949547
In       2.67930817       1.39533433       2.81195096       12      -0.03976551      -0.00400872       0.10949547
In       0.00588257       1.43675757      12.66019845       13      -0.03976551       0.00400872      -0.10949547
In       2.66754304       4.22742622       4.92412374       14       0.03976551      -0.00400872      -0.10949547
In       5.34096864       4.26884946      10.54802567       15       0.03976551       0.00400872       0.10949547
O        4.59071888       5.05953582      12.33823310       16       0.03357644       0.05264028      -0.00463638
O        1.91729327       3.43673985       3.13391631       17       0.03357644      -0.05264028       0.00463638
O        0.75613233       2.22744393      10.86999102       18      -0.03357644       0.05264028       0.00463638
O        3.42955794       0.60464796       4.60215839       19      -0.03357644      -0.05264028      -0.00463638
O        0.75613233       0.60464796       3.13391631       20      -0.03357644      -0.05264028       0.00463638
O        3.42955794       2.22744393      12.33823310       21      -0.03357644       0.05264028      -0.00463638
O        4.59071888       3.43673985       4.60215839       22       0.03357644      -0.05264028      -0.00463638
O        1.91729327       5.05953582      10.86999102       23       0.03357644       0.05264028       0.00463638
O        3.78217650       3.02230041       9.67672930       24       0.02830802      -0.03620392       0.06018631
O        1.10875089       5.47397527       5.79542011       25       0.02830802       0.03620393      -0.06018631
O        1.56467471       0.19020851      13.53149481       26      -0.02830802      -0.03620393      -0.06018631
O        4.23810032       2.64188338       1.94065460       27      -0.02830802       0.03620392       0.06018631
O        1.56467471       2.64188338       5.79542011       28      -0.02830802       0.03620393      -0.06018631
O        4.23810032       0.19020851       9.67672930       29      -0.02830802      -0.03620393       0.06018631
O        3.78217650       5.47397527       1.94065460       30       0.02830802       0.03620393       0.06018631
O        1.10875089       3.02230041      13.53149481       31       0.02830802      -0.03620392      -0.06018631
O        3.43413377       3.76449973      14.65564072       32      -0.05060703       0.01192343      -0.07767083
O        0.76070816       4.73177594       0.81650869       33      -0.05060703      -0.01192343       0.07767083
O        1.91271744       0.93240784       8.55258340       34       0.05060703       0.01192343       0.07767083
O        4.58614305       1.89968405       6.91956601       35       0.05060703      -0.01192343      -0.07767083
O        1.91271744       1.89968405       0.81650869       36       0.05060703      -0.01192343       0.07767083
O        4.58614305       0.93240784      14.65564072       37       0.05060703       0.01192343      -0.07767083
O        3.43413377       4.73177594       6.91956601       38      -0.05060703      -0.01192343      -0.07767083
O        0.76070816       3.76449973       8.55258340       39      -0.05060703       0.01192343       0.07767083
40
Lattice="5.34988998719932 -1.9539603494190634e-42 0.0 2.0712134278868153e-42 5.671273744939851 0.0 0.0 0.0 15.44402954305075" Properties=species:S:1:pos:R:3:spacegroup_kinds:I:1:forces:R:3 spacegroup="P 1" unit_cell=conventional occupancy="_JSON {\"0\": {\"In\": 1}, \"1\": {\"In\": 1}, \"2\": {\"In\": 1}, \"3\": {\"In\": 1}, \"4\": {\"In\": 1}, \"5\": {\"In\": 1}, \"6\": {\"In\": 1}, \"7\": {\"In\": 1}, \"8\": {\"In\": 1}, \"9\": {\"In\": 1}, \"10\": {\"In\": 1}, \"11\": {\"In\": 1}, \"12\": {\"In\": 1}, \"13\": {\"In\": 1}, \"14\": {\"In\": 1}, \"15\": {\"In\": 1}, \"16\": {\"O\": 1}, \"17\": {\"O\": 1}, \"18\": {\"O\": 1}, \"19\": {\"O\": 1}, \"20\": {\"O\": 1}, \"21\": {\"O\": 1}, \"22\": {\"O\": 1}, \"23\": {\"O\": 1}, \"24\": {\"O\": 1}, \"25\": {\"O\": 1}, \"26\": {\"O\": 1}, \"27\": {\"O\": 1}, \"28\": {\"O\": 1}, \"29\": {\"O\": 1}, \"30\": {\"O\": 1}, \"31\": {\"O\": 1}, \"32\": {\"O\": 1}, \"33\": {\"O\": 1}, \"34\": {\"O\": 1}, \"35\": {\"O\": 1}, \"36\": {\"O\": 1}, \"37\": {\"O\": 1}, \"38\": {\"O\": 1}, \"39\": {\"O\": 1}}" n_minim_iter=2 energy=-45148.97607685739 stress="-0.05947171573740668 -3.782869478741902e-13 -8.144515826909368e-14 -3.782869478741902e-13 -0.059836834749125135 2.290491995884584e-13 -8.144515826909368e-14 2.290491995884584e-13 -0.06035230482291296" free_energy=-45148.97607685739 pbc="T T T"
In       2.66661749       4.57319270       8.84157330        0      -0.02391199      -0.01862222       0.01758304
In      -0.00832750       3.93371792       6.60245624        1      -0.02391199       0.01862222      -0.01758304
In       2.68327249       1.73755582      14.32447101        2       0.02391199      -0.01862222      -0.01758304
In       5.35821749       1.09808105       1.11955853        3       0.02391199       0.01862222       0.01758304
In       2.68327249       1.09808105       6.60245624        4       0.02391199       0.01862222      -0.01758304
In       5.35821749       1.73755582       8.84157330        5       0.02391199      -0.01862222       0.01758304
In       2.66661749       3.93371792       1.11955853        6      -0.02391199       0.01862222       0.01758304
In      -0.00832750       4.57319270      14.32447101        7      -0.02391199      -0.01862222      -0.01758304
In       2.66914705       4.27420173      12.63694752        8       0.04910033      -0.00446042      -0.10275119
In       5.34409204       4.23270889       2.80708202        9       0.04910033       0.00446042       0.10275119
In       2.68074294       1.43856485      10.52909679       10      -0.04910033      -0.00446042       0.10275119
In       0.00579795       1.39707202       4.91493275       11      -0.04910033       0.00446042      -0.10275119
In       2.68074294       1.39707202       2.80708202       12      -0.04910033       0.00446042       0.10275119
In       0.00579795       1.43856485      12.63694752       13      -0.04910033      -0.00446042      -0.10275119
In       2.66914705       4.23270889       4.91493275       14       0.04910033       0.00446042      -0.10275119
In       5.34409204       4.27420173      10.52909679       15       0.04910033      -0.00446042       0.10275119
O        4.59340220       5.06598546      12.31579874       16       0.01560629       0.05946620       0.00459270
O        1.91845720       3.44092516       3.12823081       17       0.01560629      -0.05946620      -0.00459270
O        0.75648779       2.23034859      10.85024558       18      -0.01560629       0.05946620      -0.00459270
O        3.43143278       0.60528828       4.59378396       19      -0.01560629      -0.05946620       0.00459270
O        0.75648779       0.60528828       3.12823081       20      -0.01560629      -0.05946620      -0.00459270
O        3.43143278       2.23034859      12.31579874       21      -0.01560629       0.05946620       0.00459270
O        4.59340220       3.44092516       4.59378396       22       0.01560629      -0.05946620       0.00459270
O        1.91845720       5.06598546      10.85024558       23       0.01560629       0.05946620      -0.00459270
O        3.78438864       3.02600333       9.65927515       24       0.01878329      -0.03169259       0.05759390
O        1.10944365       5.48090729       5.78475440       25       0.01878329       0.03169259      -0.05759390
O        1.56550135       0.19036646      13.50676917       26      -0.01878329      -0.03169259      -0.05759390
O        4.24044634       2.64527041       1.93726038       27      -0.01878329       0.03169259       0.05759390
O        1.56550135       2.64527041       5.78475440       28      -0.01878329       0.03169259      -0.05759390
O        4.24044634       0.19036646       9.65927515       29      -0.01878329      -0.03169259       0.05759390
O        3.78438864       5.48090729       1.93726038       30       0.01878329       0.03169259       0.05759390
O        1.10944365       3.02600333      13.50676917       31       0.01878329      -0.03169259      -0.05759390
O        3.43597354       3.76923822      14.62883341       32      -0.03363174       0.00435205      -0.09595420
O        0.76102855       4.73767240       0.81519614       33      -0.03363174      -0.00435205       0.09595420
O        1.91391645       0.93360135       8.53721091       34       0.03363174       0.00435205       0.09595420
O        4.58886144       1.90203553       6.90681863       35       0.03363174      -0.00435205      -0.09595420
O        1.91391645       1.90203553       0.81519614       36       0.03363174      -0.00435205       0.09595420
O        4.58886144       0.93360135      14.62883341       37       0.03363174       0.00435205      -0.09595420
O        3.43597354       4.73767240       6.90681863       38      -0.03363174      -0.00435205      -0.09595420
O        0.76102855       3.76923822       8.53721091       39      -0.03363174       0.00435205       0.09595420
40
Lattice="5.340059421693954 -1.9659037784702877e-42 0.0 2.0919940147420176e-42 5.6813737613685635 0.0 0.0 0.0 15.444954559805797" Properties=species:S:1:pos:R:3:spacegroup_kinds:I:1:forces:R:3 spacegroup="P 1" unit_cell=conventional occupancy="_JSON {\"0\": {\"In\": 1}, \"1\": {\"In\": 1}, \"2\": {\"In\": 1}, \"3\": {\"In\": 1}, \"4\": {\"In\": 1}, \"5\": {\"In\": 1}, \"6\": {\"In\": 1}, \"7\": {\"In\": 1}, \"8\": {\"In\": 1}, \"9\": {\"In\": 1}, \"10\": {\"In\": 1}, \"11\": {\"In\": 1}, \"12\": {\"In\": 1}, \"13\": {\"In\": 1}, \"14\": {\"In\": 1}, \"15\": {\"In\": 1}, \"16\": {\"O\": 1}, \"17\": {\"O\": 1}, \"18\": {\"O\": 1}, \"19\": {\"O\": 1}, \"20\": {\"O\": 1}, \"21\": {\"O\": 1}, \"22\": {\"O\": 1}, \"23\": {\"O\": 1}, \"24\": {\"O\": 1}, \"25\": {\"O\": 1}, \"26\": {\"O\": 1}, \"27\": {\"O\": 1}, \"28\": {\"O\": 1}, \"29\": {\"O\": 1}, \"30\": {\"O\": 1}, \"31\": {\"O\": 1}, \"32\": {\"O\": 1}, \"33\": {\"O\": 1}, \"34\": {\"O\": 1}, \"35\": {\"O\": 1}, \"36\": {\"O\": 1}, \"37\": {\"O\": 1}, \"38\": {\"O\": 1}, \"39\": {\"O\": 1}}" n_minim_iter=3 energy=-45148.97958941109 stress="-0.06038800228773443 -2.2198749367412177e-13 2.4837783483482587e-14 -2.2198749367412177e-13 -0.05828832927586123 -1.2667954903054525e-13 2.4837783483482587e-14 -1.2667954903054525e-13 -0.05948924558415517" free_energy=-45148.97958941109 pbc="T T T"
In       2.66132030       4.58101349       8.84232257        0       0.01169511       0.00808230       0.00664227
In      -0.00870941       3.94104716       6.60263199        1       0.01169511      -0.00808230      -0.00664227
In       2.67873912       1.74032661      14.32510927        2      -0.01169511       0.00808230      -0.00664227
In       5.34876883       1.10036028       1.11984529        3      -0.01169511      -0.00808230       0.00664227
In       2.67873912       1.10036028       6.60263199        4      -0.01169511      -0.00808230      -0.00664227
In       5.34876883       1.74032661       8.84232257        5      -0.01169511       0.00808230       0.00664227
In       2.66132030       3.94104716       1.11984529        6       0.01169511      -0.00808230       0.00664227
In      -0.00870941       4.58101349      14.32510927        7       0.01169511       0.00808230      -0.00664227
In       2.66509736       4.28176425      12.63582153        8       0.02028928      -0.02644840      -0.08804574
In       5.33512707       4.24029639       2.80913303        9       0.02028928       0.02644840       0.08804574
In       2.67496206       1.44107737      10.53161031       10      -0.02028928      -0.02644840       0.08804574
In       0.00493235       1.39960951       4.91334425       11      -0.02028928       0.02644840      -0.08804574
In       2.67496206       1.39960951       2.80913303       12      -0.02028928       0.02644840       0.08804574
In       0.00493235       1.44107737      12.63582153       13      -0.02028928      -0.02644840      -0.08804574
In       2.66509736       4.24029639       4.91334425       14       0.02028928       0.02644840      -0.08804574
In       5.33512707       4.28176425      10.53161031       15       0.02028928      -0.02644840       0.08804574
O        4.58531169       5.07606481      12.31658494       16       0.02425184       0.06330105      -0.00092573
O        1.91528198       3.44599583       3.12836962       17       0.02425184      -0.06330105       0.00092573
O        0.75474773       2.23537793      10.85084690       18      -0.02425184       0.06330105       0.00092573
O        3.42477744       0.60530895       4.59410766       19      -0.02425184      -0.06330105      -0.00092573
O        0.75474773       0.60530895       3.12836962       20      -0.02425184      -0.06330105       0.00092573
O        3.42477744       2.23537793      12.31658494       21      -0.02425184       0.06330105      -0.00092573
O        4.58531169       3.44599583       4.59410766       22       0.02425184      -0.06330105      -0.00092573
O        1.91528198       5.07606481      10.85084690       23       0.02425184       0.06330105       0.00092573
O        3.77781073       3.03079829       9.66090464       24      -0.00336016      -0.02204230       0.04987557
O        1.10778102       5.49126235       5.78404992       25      -0.00336016       0.02204230      -0.04987557
O        1.56224869       0.19011141      13.50652720       26       0.00336016      -0.02204230      -0.04987557
O        4.23227841       2.65057547       1.93842736       27       0.00336016       0.02204230       0.04987557
O        1.56224869       2.65057547       5.78404992       28       0.00336016       0.02204230      -0.04987557
O        4.23227841       0.19011141       9.66090464       29       0.00336016      -0.02204230       0.04987557
O        3.77781073       5.49126235       1.93842736       30      -0.00336016       0.02204230       0.04987557
O        1.10778102       3.03079829      13.50652720       31      -0.00336016      -0.02204230      -0.04987557
O        3.42898691       3.77605856      14.62804309       32      -0.05137500      -0.01469580      -0.06876109
O        0.75895720       4.74600208       0.81691147       33      -0.05137500       0.01469580       0.06876109
O        1.91107251       0.93537168       8.53938875       34       0.05137500      -0.01469580       0.06876109
O        4.58110222       1.90531520       6.90556581       35       0.05137500       0.01469580      -0.06876109
O        1.91107251       1.90531520       0.81691147       36       0.05137500       0.01469580       0.06876109
O        4.58110222       0.93537168      14.62804309       37       0.05137500      -0.01469580      -0.06876109
O        3.42898691       4.74600208       6.90556581       38      -0.05137500       0.01469580      -0.06876109
O        0.75895720       3.77605856       8.53938875       39      -0.05137500      -0.01469580       0.06876109
40
Lattice="5.3558066352827085 -2.0039635433665804e-42 0.0 2.1537290405894262e-42 5.668544449305599 0.0 0.0 0.0 15.434396058323367" Properties=species:S:1:pos:R:3:spacegroup_kinds:I:1:forces:R:3 spacegroup="P 1" unit_cell=conventional occupancy="_JSON {\"0\": {\"In\": 1}, \"1\": {\"In\": 1}, \"2\": {\"In\": 1}, \"3\": {\"In\": 1}, \"4\": {\"In\": 1}, \"5\": {\"In\": 1}, \"6\": {\"In\": 1}, \"7\": {\"In\": 1}, \"8\": {\"In\": 1}, \"9\": {\"In\": 1}, \"10\": {\"In\": 1}, \"11\": {\"In\": 1}, \"12\": {\"In\": 1}, \"13\": {\"In\": 1}, \"14\": {\"In\": 1}, \"15\": {\"In\": 1}, \"16\": {\"O\": 1}, \"17\": {\"O\": 1}, \"18\": {\"O\": 1}, \"19\": {\"O\": 1}, \"20\": {\"O\": 1}, \"21\": {\"O\": 1}, \"22\": {\"O\": 1}, \"23\": {\"O\": 1}, \"24\": {\"O\": 1}, \"25\": {\"O\": 1}, \"26\": {\"O\": 1}, \"27\": {\"O\": 1}, \"28\": {\"O\": 1}, \"29\": {\"O\": 1}, \"30\": {\"O\": 1}, \"31\": {\"O\": 1}, \"32\": {\"O\": 1}, \"33\": {\"O\": 1}, \"34\": {\"O\": 1}, \"35\": {\"O\": 1}, \"36\": {\"O\": 1}, \"37\": {\"O\": 1}, \"38\": {\"O\": 1}, \"39\": {\"O\": 1}}" n_minim_iter=4 energy=-45148.98738143577 stress="-0.05629784527944839 -1.1938162168182028e-13 2.0381701278981122e-13 -1.1938162168182028e-13 -0.057784032193793806 -2.6113435500585903e-13 2.0381701278981122e-13 -2.6113435500585903e-13 -0.05738256339708062" free_energy=-45148.98738143577 pbc="T T T"
In       2.66754804       4.56931650       8.83743248        0       0.08325750      -0.05424710      -0.04669898
In      -0.01035527       3.93350017       6.59696357        1       0.08325750       0.05424710       0.04669898
In       2.68825859       1.73504428      14.31416160        2      -0.08325750      -0.05424710       0.04669898
In       5.36616191       1.09922795       1.12023445        3      -0.08325750       0.05424710      -0.04669898
In       2.68825859       1.09922795       6.59696357        4      -0.08325750       0.05424710       0.04669898
In       5.36616191       1.73504428       8.83743248        5      -0.08325750      -0.05424710      -0.04669898
In       2.66754804       3.93350017       1.12023445        6       0.08325750       0.05424710      -0.04669898
In      -0.01035527       4.56931650      14.31416160        7       0.08325750      -0.05424710       0.04669898
In       2.67752206       4.27125945      12.61610881        8      -0.03115301      -0.00405640       0.00921975
In       5.35542538       4.23155723       2.81828725        9      -0.03115301       0.00405640      -0.00921975
In       2.67828457       1.43698722      10.53548528       10       0.03115301      -0.00405640      -0.00921975
In       0.00038125       1.39728500       4.89891078       11       0.03115301       0.00405640       0.00921975
In       2.67828457       1.39728500       2.81828725       12       0.03115301       0.00405640      -0.00921975
In       0.00038125       1.43698722      12.61610881       13       0.03115301      -0.00405640       0.00921975
In       2.67752206       4.23155723       4.89891078       14      -0.03115301       0.00405640       0.00921975
In       5.35542538       4.27125945      10.53548528       15      -0.03115301      -0.00405640      -0.00921975
O        4.60111591       5.07112380      12.30835817       16      -0.04370694       0.02081034       0.01510593
O        1.92321259       3.43169288       3.12603789       17      -0.04370694      -0.02081034      -0.01510593
O        0.75469073       2.23685157      10.84323592       18       0.04370694       0.02081034      -0.01510593
O        3.43259405       0.59742065       4.59116014       19       0.04370694      -0.02081034       0.01510593
O        0.75469073       0.59742065       3.12603789       20       0.04370694      -0.02081034      -0.01510593
O        3.43259405       2.23685157      12.30835817       21       0.04370694       0.02081034       0.01510593
O        4.60111591       3.43169288       4.59116014       22      -0.04370694      -0.02081034       0.01510593
O        1.92321259       5.07112380      10.84323592       23      -0.04370694       0.02081034      -0.01510593
O        3.79070090       3.02058860       9.66049625       24      -0.06608408       0.01706976       0.02042598
O        1.11279759       5.48222807       5.77389981       25      -0.06608408      -0.01706976      -0.02042598
O        1.56510573       0.18631638      13.49109784       26       0.06608408       0.01706976      -0.02042598
O        4.24300905       2.64795585       1.94329822       27       0.06608408      -0.01706976       0.02042598
O        1.56510573       2.64795585       5.77389981       28       0.06608408      -0.01706976      -0.02042598
O        4.24300905       0.18631638       9.66049625       29       0.06608408       0.01706976       0.02042598
O        3.79070090       5.48222807       1.94329822       30      -0.06608408      -0.01706976       0.02042598
O        1.11279759       3.02058860      13.49109784       31      -0.06608408       0.01706976      -0.02042598
O        3.43463439       3.76771967      14.60850103       32      -0.01111863       0.04945603       0.06339129
O        0.75673107       4.73509700       0.82589503       33      -0.01111863      -0.04945603      -0.06339129
O        1.92117225       0.93344744       8.54309306       34       0.01111863       0.04945603      -0.06339129
O        4.59907556       1.90082478       6.89130300       35       0.01111863      -0.04945603       0.06339129
O        1.92117225       1.90082478       0.82589503       36       0.01111863      -0.04945603      -0.06339129
O        4.59907556       0.93344744      14.60850103       37       0.01111863       0.04945603       0.06339129
O        3.43463439       4.73509700       6.89130300       38      -0.01111863      -0.04945603       0.06339129
O        0.75673107       3.76771967       8.54309306       39      -0.01111863       0.04945603      -0.06339129
40
Lattice="5.348315823430794 -1.9929459830412177e-42 0.0 2.164499138108783e-42 5.6741922160583425 0.0 0.0 0.0 15.44062932739436" Properties=species:S:1:pos:R:3:spacegroup_kinds:I:1:forces:R:3 spacegroup="P 1" unit_cell=conventional occupancy="_JSON {\"0\": {\"In\": 1}, \"1\": {\"In\": 1}, \"2\": {\"In\": 1}, \"3\": {\"In\": 1}, \"4\": {\"In\": 1}, \"5\": {\"In\": 1}, \"6\": {\"In\": 1}, \"7\": {\"In\": 1}, \"8\": {\"In\": 1}, \"9\": {\"In\": 1}, \"10\": {\"In\": 1}, \"11\": {\"In\": 1}, \"12\": {\"In\": 1}, \"13\": {\"In\": 1}, \"14\": {\"In\": 1}, \"15\": {\"In\": 1}, \"16\": {\"O\": 1}, \"17\": {\"O\": 1}, \"18\": {\"O\": 1}, \"19\": {\"O\": 1}, \"20\": {\"O\": 1}, \"21\": {\"O\": 1}, \"22\": {\"O\": 1}, \"23\": {\"O\": 1}, \"24\": {\"O\": 1}, \"25\": {\"O\": 1}, \"26\": {\"O\": 1}, \"27\": {\"O\": 1}, \"28\": {\"O\": 1}, \"29\": {\"O\": 1}, \"30\": {\"O\": 1}, \"31\": {\"O\": 1}, \"32\": {\"O\": 1}, \"33\": {\"O\": 1}, \"34\": {\"O\": 1}, \"35\": {\"O\": 1}, \"36\": {\"O\": 1}, \"37\": {\"O\": 1}, \"38\": {\"O\": 1}, \"39\": {\"O\": 1}}" n_minim_iter=5 energy=-45148.99033070428 stress="-0.057439093508288644 -4.2349172210675666e-13 -6.801418088575741e-14 -4.2349172210675666e-13 -0.0574469199469993 1.4634391724835599e-13 -6.801418088575741e-14 1.4634391724835599e-13 -0.057433120674883154" free_energy=-45148.99033070428 pbc="T T T"
In       2.66509087       4.57362517       8.84029939        0       0.05232946      -0.01783876      -0.02730321
In      -0.00906704       3.93766315       6.60032994        1       0.05232946       0.01783876       0.02730321
In       2.68322496       1.73652906      14.32064460        2      -0.05232946      -0.01783876       0.02730321
In       5.35738287       1.10056704       1.11998472        3      -0.05232946       0.01783876      -0.02730321
In       2.68322496       1.10056704       6.60032994        4      -0.05232946       0.01783876       0.02730321
In       5.35738287       1.73652906       8.84029939        5      -0.05232946      -0.01783876      -0.02730321
In       2.66509087       3.93766315       1.11998472        6       0.05232946       0.01783876      -0.02730321
In      -0.00906704       4.57362517      14.32064460        7       0.05232946      -0.01783876       0.02730321
In       2.67266073       4.27548461      12.62295264        8      -0.01942327      -0.01773732      -0.00680244
In       5.34681864       4.23580371       2.81767669        9      -0.01942327       0.01773732       0.00680244
In       2.67565509       1.43838850      10.53799135       10       0.01942327      -0.01773732       0.00680244
In       0.00149718       1.39870761       4.90263798       11       0.01942327       0.01773732      -0.00680244
In       2.67565509       1.39870761       2.81767669       12       0.01942327       0.01773732       0.00680244
In       0.00149718       1.43838850      12.62295264       13       0.01942327      -0.01773732      -0.00680244
In       2.67266073       4.23580371       4.90263798       14      -0.01942327       0.01773732      -0.00680244
In       5.34681864       4.27548461      10.53799135       15      -0.01942327      -0.01773732       0.00680244
O        4.59393986       5.07548131      12.31343174       16      -0.02039087       0.02886545       0.01558577
O        1.91978195       3.43580701       3.12719759       17      -0.02039087      -0.02886545      -0.01558577
O        0.75437596       2.23838520      10.84751225       18       0.02039087       0.02886545      -0.01558577
O        3.42853387       0.59871091       4.59311708       19       0.02039087      -0.02886545       0.01558577
O        0.75437596       0.59871091       3.12719759       20       0.02039087      -0.02886545      -0.01558577
O        3.42853387       2.23838520      12.31343174       21       0.02039087       0.02886545       0.01558577
O        4.59393986       3.43580701       4.59311708       22      -0.02039087      -0.02886545       0.01558577
O        1.91978195       5.07548131      10.84751225       23      -0.02039087       0.02886545      -0.01558577
O        3.78435127       3.02430451       9.66368744       24      -0.04617200       0.00503731       0.02760260
O        1.11019335       5.48698381       5.77694189       25      -0.04617200      -0.00503731      -0.02760260
O        1.56396456       0.18720840      13.49725655       26       0.04617200       0.00503731      -0.02760260
O        4.23812247       2.64988770       1.94337277       27       0.04617200      -0.00503731       0.02760260
O        1.56396456       2.64988770       5.77694189       28       0.04617200      -0.00503731      -0.02760260
O        4.23812247       0.18720840       9.66368744       29       0.04617200       0.00503731       0.02760260
O        3.78435127       5.48698381       1.94337277       30      -0.04617200      -0.00503731       0.02760260
O        1.11019335       3.02430451      13.49725655       31      -0.04617200       0.00503731      -0.02760260
O        3.43026547       3.77187077      14.61655292       32      -0.01893611       0.02572907       0.02397841
O        0.75610756       4.73941755       0.82407640       33      -0.01893611      -0.02572907      -0.02397841
O        1.91805035       0.93477467       8.54439107       34       0.01893611       0.02572907      -0.02397841
O        4.59220826       1.90232144       6.89623826       35       0.01893611      -0.02572907       0.02397841
O        1.91805035       1.90232144       0.82407640       36       0.01893611      -0.02572907      -0.02397841
O        4.59220826       0.93477467      14.61655292       37       0.01893611       0.02572907       0.02397841
O        3.43026547       4.73941755       6.89623826       38      -0.01893611      -0.02572907       0.02397841
O        0.75610756       3.77187077       8.54439107       39      -0.01893611       0.02572907      -0.02397841
40