40
Lattice="5.879739830006747 9.891423270777245e-43 0.0 2.2136507277354154e-43 6.28307647288543 0.0 0.0 0.0 17.264309370480035" Properties=species:S:1:pos:R:3:spacegroup_kinds:I:1:forces:R:3 spacegroup="P 1" unit_cell=conventional occupancy="_JSON {\"0\": {\"In\": 1}, \"1\": {\"In\": 1}, \"2\": {\"In\": 1}, \"3\": {\"In\": 1}, \"4\": {\"In\": 1}, \"5\": {\"In\": 1}, \"6\": {\"In\": 1}, \"7\": {\"In\": 1}, \"8\": {\"In\": 1}, \"9\": {\"In\": 1}, \"10\": {\"In\": 1}, \"11\": {\"In\": 1}, \"12\": {\"In\": 1}, \"13\": {\"In\": 1}, \"14\": {\"In\": 1}, \"15\": {\"In\": 1}, \"16\": {\"O\": 1}, \"17\": {\"O\": 1}, \"18\": {\"O\": 1}, \"19\": {\"O\": 1}, \"20\": {\"O\": 1}, \"21\": {\"O\": 1}, \"22\": {\"O\": 1}, \"23\": {\"O\": 1}, \"24\": {\"O\": 1}, \"25\": {\"O\": 1}, \"26\": {\"O\": 1}, \"27\": {\"O\": 1}, \"28\": {\"O\": 1}, \"29\": {\"O\": 1}, \"30\": {\"O\": 1}, \"31\": {\"O\": 1}, \"32\": {\"O\": 1}, \"33\": {\"O\": 1}, \"34\": {\"O\": 1}, \"35\": {\"O\": 1}, \"36\": {\"O\": 1}, \"37\": {\"O\": 1}, \"38\": {\"O\": 1}, \"39\": {\"O\": 1}}" n_minim_iter=10 energy=-45145.41150987528 stress="0.07901586352417726 1.4371247294201025e-13 -3.2263836529749216e-13 1.4371247294201025e-13 0.07899410109179789 -7.600081945904492e-14 -3.2263836529749216e-13 -7.600081945904492e-14 0.07905324916101808" free_energy=-45145.41150987528 pbc="T T T"
In       2.73978237       5.24741867       9.99095399        0      -0.00507145       0.00180173       0.00564155
In      -0.20008754       4.17719604       7.27335539        1      -0.00507145      -0.00180173      -0.00564155
In       3.13995746       2.10588043      15.90551007        2       0.00507145       0.00180173      -0.00564155
In       6.07982737       1.03565781       1.35879930        3       0.00507145      -0.00180173       0.00564155
In       3.13995746       1.03565781       7.27335539        4       0.00507145      -0.00180173      -0.00564155
In       6.07982737       2.10588043       9.99095399        5       0.00507145       0.00180173       0.00564155
In       2.73978237       4.17719604       1.35879930        6      -0.00507145      -0.00180173       0.00564155
In      -0.20008754       5.24741867      15.90551007        7      -0.00507145       0.00180173      -0.00564155
In       2.74719984       4.94247061      14.06291753        8       0.00325092      -0.00483560       0.00268856
In       5.68706975       4.48214410       3.20139184        9       0.00325092       0.00483560      -0.00268856
In       3.13253999       1.80093237      11.83354652       10      -0.00325092      -0.00483560      -0.00268856
In       0.19267008       1.34060587       5.43076285       11      -0.00325092       0.00483560       0.00268856
In       3.13253999       1.34060587       3.20139184       12      -0.00325092       0.00483560      -0.00268856
In       0.19267008       1.80093237      14.06291753       13      -0.00325092      -0.00483560       0.00268856
In       2.74719984       4.48214410       5.43076285       14       0.00325092       0.00483560       0.00268856
In       5.68706975       4.94247061      11.83354652       15       0.00325092      -0.00483560      -0.00268856
O        4.90053933       5.67130026      13.81236472       16       0.00447637       0.00500547      -0.00385997
O        1.96066941       3.75331445       3.45194465       17       0.00447637      -0.00500547       0.00385997
O        0.97920050       2.52976202      12.08409934       18      -0.00447637       0.00500547       0.00385997
O        3.91907042       0.61177622       5.18021003       19      -0.00447637      -0.00500548      -0.00385997
O        0.97920050       0.61177622       3.45194465       20      -0.00447637      -0.00500547       0.00385997
O        3.91907042       2.52976202      13.81236472       21      -0.00447637       0.00500547      -0.00385997
O        4.90053933       3.75331445       5.18021003       22       0.00447637      -0.00500547      -0.00385997
O        1.96066941       5.67130026      12.08409934       23       0.00447637       0.00500547       0.00385997
O        4.12193407       3.61847999      10.91270483       24       0.00331822       0.00923006      -0.00060427
O        1.18206415       5.80613472       6.35160454       25       0.00331822      -0.00923006       0.00060427
O        1.75780576       0.47694176      14.98375923       26      -0.00331822       0.00923006       0.00060427
O        4.69767568       2.66459648       2.28055014       27      -0.00331822      -0.00923006      -0.00060427
O        1.75780576       2.66459648       6.35160454       28      -0.00331822      -0.00923006       0.00060427
O        4.69767568       0.47694176      10.91270483       29      -0.00331822       0.00923006      -0.00060427
O        4.12193407       5.80613472       2.28055014       30       0.00331822      -0.00923006      -0.00060427
O        1.18206415       3.61847999      14.98375923       31       0.00331822       0.00923006       0.00060427
O        3.72648855       4.21698402      16.43471460       32       0.00574282       0.00433974       0.00273728
O        0.78661864       5.20763069       0.82959477       33       0.00574282      -0.00433974      -0.00273728
O        2.15325128       1.07544578       9.46174946       34      -0.00574282       0.00433974      -0.00273728
O        5.09312119       2.06609245       7.80255991       35      -0.00574282      -0.00433974       0.00273728
O        2.15325128       2.06609245       0.82959477       36      -0.00574282      -0.00433974      -0.00273728
O        5.09312119       1.07544578      16.43471460       37      -0.00574282       0.00433974       0.00273728
O        3.72648855       5.20763069       7.80255991       38       0.00574282      -0.00433974       0.00273728
O        0.78661864       4.21698402       9.46174946       39       0.00574282       0.00433974      -0.00273728
