40
Lattice="5.4744114144326215 -2.3383408288099665e-42 0.0 2.438042241552217e-42 5.70782758081287 0.0 0.0 0.0 15.829197706047005" Properties=species:S:1:pos:R:3:spacegroup_kinds:I:1:forces:R:3 spacegroup="P 1" unit_cell=conventional occupancy="_JSON {\"0\": {\"In\": 1}, \"1\": {\"In\": 1}, \"2\": {\"In\": 1}, \"3\": {\"In\": 1}, \"4\": {\"In\": 1}, \"5\": {\"In\": 1}, \"6\": {\"In\": 1}, \"7\": {\"In\": 1}, \"8\": {\"In\": 1}, \"9\": {\"In\": 1}, \"10\": {\"In\": 1}, \"11\": {\"In\": 1}, \"12\": {\"In\": 1}, \"13\": {\"In\": 1}, \"14\": {\"In\": 1}, \"15\": {\"In\": 1}, \"16\": {\"O\": 1}, \"17\": {\"O\": 1}, \"18\": {\"O\": 1}, \"19\": {\"O\": 1}, \"20\": {\"O\": 1}, \"21\": {\"O\": 1}, \"22\": {\"O\": 1}, \"23\": {\"O\": 1}, \"24\": {\"O\": 1}, \"25\": {\"O\": 1}, \"26\": {\"O\": 1}, \"27\": {\"O\": 1}, \"28\": {\"O\": 1}, \"29\": {\"O\": 1}, \"30\": {\"O\": 1}, \"31\": {\"O\": 1}, \"32\": {\"O\": 1}, \"33\": {\"O\": 1}, \"34\": {\"O\": 1}, \"35\": {\"O\": 1}, \"36\": {\"O\": 1}, \"37\": {\"O\": 1}, \"38\": {\"O\": 1}, \"39\": {\"O\": 1}}" n_minim_iter=1 energy=-45149.99014583255 stress="-0.02468411172202204 2.0870487327779484e-13 1.6074820600191745e-13 2.0870487327779484e-13 -0.02766309639052026 5.665390079372499e-13 1.6074820600191745e-13 5.665390079372499e-13 -0.023403525218645336" free_energy=-45149.99014583255 pbc="T T T"
In       2.73158400       4.58776903       9.04492961        0      -0.00149784       0.06252335       0.05660749
In      -0.00562170       3.97397234       6.78426809        1      -0.00149784      -0.06252335      -0.05660749
In       2.74282741       1.73385524      14.69886695        2       0.00149784       0.06252335      -0.05660749
In       5.48003312       1.12005855       1.13033076        3       0.00149784      -0.06252335       0.05660749
In       2.74282741       1.12005855       6.78426809        4       0.00149784      -0.06252335      -0.05660749
In       5.48003312       1.73385524       9.04492961        5       0.00149784       0.06252335       0.05660749
In       2.73158400       3.97397234       1.13033076        6      -0.00149784      -0.06252335       0.05660749
In      -0.00562170       4.58776903      14.69886695        7      -0.00149784       0.06252335      -0.05660749
In       2.72549427       4.29205032      12.95840532        8       0.03142334      -0.03244346       0.02291119
In       5.46269998       4.26969105       2.87079239        9       0.03142334       0.03244346      -0.02291119
In       2.74891714       1.43813653      10.78539124       10      -0.03142334      -0.03244346      -0.02291119
In       0.01171143       1.41577726       5.04380646       11      -0.03142334       0.03244346       0.02291119
In       2.74891714       1.41577726       2.87079239       12      -0.03142334       0.03244346      -0.02291119
In       0.01171143       1.43813653      12.95840532       13      -0.03142334      -0.03244346       0.02291119
In       2.72549427       4.26969105       5.04380646       14       0.03142334       0.03244346       0.02291119
In       5.46269998       4.29205032      10.78539124       15       0.03142334      -0.03244346      -0.02291119
O        4.70213008       5.06469905      12.63095719       16       0.00911247       0.03217470       0.00194213
O        1.96492438       3.49704232       3.19824052       17       0.00911247      -0.03217470      -0.00194213
O        0.77228133       2.21078526      11.11283937       18      -0.00911247       0.03217470      -0.00194213
O        3.50948704       0.64312853       4.71635833       19      -0.00911247      -0.03217470       0.00194213
O        0.77228133       0.64312853       3.19824052       20      -0.00911247      -0.03217470      -0.00194213
O        3.50948704       2.21078526      12.63095719       21      -0.00911247       0.03217470       0.00194213
O        4.70213008       3.49704232       4.71635833       22       0.00911247      -0.03217470       0.00194213
O        1.96492438       5.06469905      11.11283937       23       0.00911247       0.03217470      -0.00194213
O        3.86992333       3.03501282       9.88402251       24       0.07338596      -0.02589461       0.04147503
O        1.13271762       5.52672855       5.94517520       25       0.07338596       0.02589461      -0.04147503
O        1.60448808       0.18109903      13.85977405       26      -0.07338596      -0.02589461      -0.04147503
O        4.34169379       2.67281476       1.96942366       27      -0.07338596       0.02589461       0.04147503
O        1.60448808       2.67281476       5.94517520       28      -0.07338596       0.02589461      -0.04147503
O        4.34169379       0.18109903       9.88402251       29      -0.07338596      -0.02589461       0.04147503
O        3.86992333       5.52672855       1.96942366       30       0.07338596       0.02589461       0.04147503
O        1.13271762       3.03501282      13.85977405       31       0.07338596      -0.02589461      -0.04147503
O        3.53278636       3.78227061      15.00097669       32      -0.06500357      -0.01919293      -0.06409547
O        0.79558065       4.77947076       0.82822102       33      -0.06500357       0.01919293       0.06409547
O        1.94162505       0.92835682       8.74281987       34       0.06500357      -0.01919293       0.06409547
O        4.67883076       1.92555697       7.08637783       35       0.06500357       0.01919293      -0.06409547
O        1.94162505       1.92555697       0.82822102       36       0.06500357       0.01919293       0.06409547
O        4.67883076       0.92835682      15.00097669       37       0.06500357      -0.01919293      -0.06409547
O        3.53278636       4.77947076       7.08637783       38      -0.06500357       0.01919293      -0.06409547
O        0.79558065       3.78227061       8.74281987       39      -0.06500357      -0.01919293       0.06409547
40
Lattice="5.47016175881757 -2.3575934618961182e-42 0.0 2.4587257683162126e-42 5.7267504546082435 0.0 0.0 0.0 15.789150107103584" Properties=species:S:1:pos:R:3:spacegroup_kinds:I:1:forces:R:3 spacegroup="P 1" unit_cell=conventional occupancy="_JSON {\"0\": {\"In\": 1}, \"1\": {\"In\": 1}, \"2\": {\"In\": 1}, \"3\": {\"In\": 1}, \"4\": {\"In\": 1}, \"5\": {\"In\": 1}, \"6\": {\"In\": 1}, \"7\": {\"In\": 1}, \"8\": {\"In\": 1}, \"9\": {\"In\": 1}, \"10\": {\"In\": 1}, \"11\": {\"In\": 1}, \"12\": {\"In\": 1}, \"13\": {\"In\": 1}, \"14\": {\"In\": 1}, \"15\": {\"In\": 1}, \"16\": {\"O\": 1}, \"17\": {\"O\": 1}, \"18\": {\"O\": 1}, \"19\": {\"O\": 1}, \"20\": {\"O\": 1}, \"21\": {\"O\": 1}, \"22\": {\"O\": 1}, \"23\": {\"O\": 1}, \"24\": {\"O\": 1}, \"25\": {\"O\": 1}, \"26\": {\"O\": 1}, \"27\": {\"O\": 1}, \"28\": {\"O\": 1}, \"29\": {\"O\": 1}, \"30\": {\"O\": 1}, \"31\": {\"O\": 1}, \"32\": {\"O\": 1}, \"33\": {\"O\": 1}, \"34\": {\"O\": 1}, \"35\": {\"O\": 1}, \"36\": {\"O\": 1}, \"37\": {\"O\": 1}, \"38\": {\"O\": 1}, \"39\": {\"O\": 1}}" n_minim_iter=2 energy=-45149.993804644444 stress="-0.024153578023691984 2.0220983755703094e-13 -6.299534831321944e-14 2.0220983755703094e-13 -0.024731660996731734 2.1635729177209996e-13 -6.299534831321944e-14 2.1635729177209996e-13 -0.0252646782505988" free_energy=-45149.993804644444 pbc="T T T"
In       2.72945939       4.60315260       9.02220269        0      -0.00746990       0.06782720       0.09130045
In      -0.00562149       3.98697308       6.76694742        1      -0.00746990      -0.06782720      -0.09130045
In       2.74070237       1.73977737      14.66152247        2       0.00746990       0.06782720      -0.09130045
In       5.47578325       1.12359785       1.12762763        3       0.00746990      -0.06782720       0.09130045
In       2.74070237       1.12359785       6.76694742        4       0.00746990      -0.06782720      -0.09130045
In       5.47578325       1.73977737       9.02220269        5       0.00746990       0.06782720       0.09130045
In       2.72945939       3.98697308       1.12762763        6      -0.00746990      -0.06782720       0.09130045
In      -0.00562149       4.60315260      14.66152247        7      -0.00746990       0.06782720      -0.09130045
In       2.72346562       4.30618927      12.92568415        8       0.03440124      -0.04524956       0.03651273
In       5.45854650       4.28393641       2.86346596        9       0.03440124       0.04524956      -0.03651273
In       2.74669614       1.44281404      10.75804101       10      -0.03440124      -0.04524956      -0.03651273
In       0.01161526       1.42056119       5.03110910       11      -0.03440124       0.04524956       0.03651273
In       2.74669614       1.42056119       2.86346596       12      -0.03440124       0.04524956      -0.03651273
In       0.01161526       1.44281404      12.92568415       13      -0.03440124      -0.04524956       0.03651273
In       2.72346562       4.28393641       5.03110910       14       0.03440124       0.04524956       0.03651273
In       5.45854650       4.30618927      10.75804101       15       0.03440124      -0.04524956      -0.03651273
O        4.69850518       5.08157932      12.59900645       16      -0.00248006       0.03946099       0.00837401
O        1.96342430       3.50854636       3.19014365       17      -0.00248006      -0.03946099      -0.00837401
O        0.77165658       2.21820409      11.08471871       18       0.00248006       0.03946099      -0.00837401
O        3.50673746       0.64517114       4.70443140       19       0.00248006      -0.03946099       0.00837401
O        0.77165658       0.64517114       3.19014365       20       0.00248006      -0.03946099      -0.00837401
O        3.50673746       2.21820409      12.59900645       21       0.00248006       0.03946099       0.00837401
O        4.69850518       3.50854636       4.70443140       22      -0.00248006      -0.03946099       0.00837401
O        1.96342430       5.08157932      11.08471871       23      -0.00248006       0.03946099      -0.00837401
O        3.86712257       3.04500259       9.85913083       24       0.05547794      -0.01587671       0.03631805
O        1.13204169       5.54512309       5.93001927       25       0.05547794       0.01587671      -0.03631805
O        1.60303919       0.18162736      13.82459433       26      -0.05547794      -0.01587671      -0.03631805
O        4.33812007       2.68174786       1.96455578       27      -0.05547794       0.01587671       0.03631805
O        1.60303919       2.68174786       5.93001927       28      -0.05547794       0.01587671      -0.03631805
O        4.33812007       0.18162736       9.85913083       29      -0.05547794      -0.01587671       0.03631805
O        3.86712257       5.54512309       1.96455578       30       0.05547794       0.01587671       0.03631805
O        1.13204169       3.04500259      13.82459433       31       0.05547794      -0.01587671      -0.03631805
O        3.52986381       3.79475638      14.96284716       32      -0.05520383      -0.03525839      -0.07962040
O        0.79478293       4.79536930       0.82630294       33      -0.05520383       0.03525839       0.07962040
O        1.94029795       0.93138115       8.72087800       34       0.05520383      -0.03525839       0.07962040
O        4.67537883       1.93199408       7.06827211       35       0.05520383       0.03525839      -0.07962040
O        1.94029795       1.93199408       0.82630294       36       0.05520383       0.03525839       0.07962040
O        4.67537883       0.93138115      14.96284716       37       0.05520383      -0.03525839      -0.07962040
O        3.52986381       4.79536930       7.06827211       38      -0.05520383       0.03525839      -0.07962040
O        0.79478293       3.79475638       8.72087800       39      -0.05520383      -0.03525839       0.07962040
40
Lattice="5.457044273606597 -2.325450365707067e-42 0.0 2.4652373084680142e-42 5.7346461016969235 0.0 0.0 0.0 15.805312339000126" Properties=species:S:1:pos:R:3:spacegroup_kinds:I:1:forces:R:3 spacegroup="P 1" unit_cell=conventional occupancy="_JSON {\"0\": {\"In\": 1}, \"1\": {\"In\": 1}, \"2\": {\"In\": 1}, \"3\": {\"In\": 1}, \"4\": {\"In\": 1}, \"5\": {\"In\": 1}, \"6\": {\"In\": 1}, \"7\": {\"In\": 1}, \"8\": {\"In\": 1}, \"9\": {\"In\": 1}, \"10\": {\"In\": 1}, \"11\": {\"In\": 1}, \"12\": {\"In\": 1}, \"13\": {\"In\": 1}, \"14\": {\"In\": 1}, \"15\": {\"In\": 1}, \"16\": {\"O\": 1}, \"17\": {\"O\": 1}, \"18\": {\"O\": 1}, \"19\": {\"O\": 1}, \"20\": {\"O\": 1}, \"21\": {\"O\": 1}, \"22\": {\"O\": 1}, \"23\": {\"O\": 1}, \"24\": {\"O\": 1}, \"25\": {\"O\": 1}, \"26\": {\"O\": 1}, \"27\": {\"O\": 1}, \"28\": {\"O\": 1}, \"29\": {\"O\": 1}, \"30\": {\"O\": 1}, \"31\": {\"O\": 1}, \"32\": {\"O\": 1}, \"33\": {\"O\": 1}, \"34\": {\"O\": 1}, \"35\": {\"O\": 1}, \"36\": {\"O\": 1}, \"37\": {\"O\": 1}, \"38\": {\"O\": 1}, \"39\": {\"O\": 1}}" n_minim_iter=3 energy=-45149.99544690112 stress="-0.025588720687939426 1.1816403941640782e-13 6.782319729635261e-13 1.1816403941640782e-13 -0.023913354994072718 -2.2243572580991722e-13 6.782319729635261e-13 -2.2243572580991722e-13 -0.023800294347287282" free_energy=-45149.99544690112 pbc="T T T"
In       2.72285662       4.61008196       9.03218332        0       0.01591882       0.07610736       0.07727285
In      -0.00566552       3.99188719       6.77312902        1       0.01591882      -0.07610736      -0.07727285
In       2.73418766       1.74275891      14.67578519        2      -0.01591882       0.07610736      -0.07727285
In       5.46270979       1.12456414       1.12952715        3      -0.01591882      -0.07610736       0.07727285
In       2.73418766       1.12456414       6.77312902        4      -0.01591882      -0.07610736      -0.07727285
In       5.46270979       1.74275891       9.03218332        5      -0.01591882       0.07610736       0.07727285
In       2.72285662       3.99188719       1.12952715        6       0.01591882      -0.07610736       0.07727285
In      -0.00566552       4.61008196      14.67578519        7       0.01591882       0.07610736      -0.07727285
In       2.71722666       4.31174782      12.93921360        8       0.00861515      -0.04513061       0.02922365
In       5.44574879       4.29022133       2.86609874        9       0.00861515       0.04513061      -0.02922365
In       2.73981762       1.44442477      10.76875491       10      -0.00861515      -0.04513061      -0.02922365
In       0.01129548       1.42289828       5.03655743       11      -0.00861515       0.04513061       0.02922365
In       2.73981762       1.42289828       2.86609874       12      -0.00861515       0.04513061      -0.02922365
In       0.01129548       1.44442477      12.93921360       13      -0.00861515      -0.04513061       0.02922365
In       2.71722666       4.29022133       5.03655743       14       0.00861515       0.04513061       0.02922365
In       5.44574879       4.31174782      10.76875491       15       0.00861515      -0.04513061      -0.02922365
O        4.68722965       5.08891987      12.61196792       16       0.01170426       0.03935648      -0.00354929
O        1.95870752       3.51304928       3.19334442       17       0.01170426      -0.03935648       0.00354929
O        0.76981462       2.22159682      11.09600059       18      -0.01170426       0.03935648       0.00354929
O        3.49833676       0.64572623       4.70931175       19      -0.01170426      -0.03935648      -0.00354929
O        0.76981462       0.64572623       3.19334442       20      -0.01170426      -0.03935648       0.00354929
O        3.49833676       2.22159682      12.61196792       21      -0.01170426       0.03935648      -0.00354929
O        4.68722965       3.51304928       4.70931175       22       0.01170426      -0.03935648      -0.00354929
O        1.95870752       5.08891987      11.09600059       23       0.01170426       0.03935648       0.00354929
O        3.85834505       3.04905187       9.86954034       24       0.04151285      -0.01111018       0.02993860
O        1.12982291       5.55291729       5.93577200       25       0.04151285       0.01111018      -0.02993860
O        1.59869923       0.18172882      13.83842817       26      -0.04151285      -0.01111018      -0.02993860
O        4.32722136       2.68559423       1.96688417       27      -0.04151285       0.01111018       0.02993860
O        1.59869923       2.68559423       5.93577200       28      -0.04151285       0.01111018      -0.02993860
O        4.32722136       0.18172882       9.86954034       29      -0.04151285      -0.01111018       0.02993860
O        3.85834505       5.55291729       1.96688417       30       0.04151285       0.01111018       0.02993860
O        1.12982291       3.04905187      13.83842817       31       0.04151285      -0.01111018      -0.02993860
O        3.52091461       3.79970015      14.97749737       32      -0.06964328      -0.04291412      -0.05378859
O        0.79239247       4.80226900       0.82781497       33      -0.06964328       0.04291412       0.05378859
O        1.93612966       0.93237710       8.73047114       34       0.06964328      -0.04291412       0.05378859
O        4.66465180       1.93494595       7.07484120       35       0.06964328       0.04291412      -0.05378859
O        1.93612966       1.93494595       0.82781497       36       0.06964328       0.04291412       0.05378859
O        4.66465180       0.93237710      14.97749737       37       0.06964328      -0.04291412      -0.05378859
O        3.52091461       4.80226900       7.07484120       38      -0.06964328       0.04291412      -0.05378859
O        0.79239247       3.79970015       8.73047114       39      -0.06964328      -0.04291412       0.05378859
40
Lattice="5.46033502926851 -2.327380299590709e-42 0.0 2.465897931399492e-42 5.737459592879497 0.0 0.0 0.0 15.788041205977231" Properties=species:S:1:pos:R:3:spacegroup_kinds:I:1:forces:R:3 spacegroup="P 1" unit_cell=conventional occupancy="_JSON {\"0\": {\"In\": 1}, \"1\": {\"In\": 1}, \"2\": {\"In\": 1}, \"3\": {\"In\": 1}, \"4\": {\"In\": 1}, \"5\": {\"In\": 1}, \"6\": {\"In\": 1}, \"7\": {\"In\": 1}, \"8\": {\"In\": 1}, \"9\": {\"In\": 1}, \"10\": {\"In\": 1}, \"11\": {\"In\": 1}, \"12\": {\"In\": 1}, \"13\": {\"In\": 1}, \"14\": {\"In\": 1}, \"15\": {\"In\": 1}, \"16\": {\"O\": 1}, \"17\": {\"O\": 1}, \"18\": {\"O\": 1}, \"19\": {\"O\": 1}, \"20\": {\"O\": 1}, \"21\": {\"O\": 1}, \"22\": {\"O\": 1}, \"23\": {\"O\": 1}, \"24\": {\"O\": 1}, \"25\": {\"O\": 1}, \"26\": {\"O\": 1}, \"27\": {\"O\": 1}, \"28\": {\"O\": 1}, \"29\": {\"O\": 1}, \"30\": {\"O\": 1}, \"31\": {\"O\": 1}, \"32\": {\"O\": 1}, \"33\": {\"O\": 1}, \"34\": {\"O\": 1}, \"35\": {\"O\": 1}, \"36\": {\"O\": 1}, \"37\": {\"O\": 1}, \"38\": {\"O\": 1}, \"39\": {\"O\": 1}}" n_minim_iter=4 energy=-45150.001092593535 stress="-0.023750568248801736 -1.173218575659688e-13 1.372427754580272e-13 -1.173218575659688e-13 -0.023433535821159646 -5.286683773919413e-13 1.372427754580272e-13 -5.286683773919413e-13 -0.02376967124378805" free_energy=-45150.001092593535 pbc="T T T"
In       2.72454276       4.61527791       9.02576063        0       0.00567962      -0.00252020       0.02947117
In      -0.00562475       3.99091148       6.76228057        1       0.00567962       0.00252020      -0.02947117
In       2.73579227       1.74654811      14.65630118        2      -0.00567962      -0.00252020      -0.02947117
In       5.46595978       1.12218168       1.13174003        3      -0.00567962       0.00252020       0.02947117
In       2.73579227       1.12218168       6.76228057        4      -0.00567962       0.00252020      -0.02947117
In       5.46595978       1.74654811       9.02576063        5      -0.00567962      -0.00252020       0.02947117
In       2.72454276       3.99091148       1.13174003        6       0.00567962       0.00252020       0.02947117
In      -0.00562475       4.61527791      14.65630118        7       0.00567962      -0.00252020      -0.02947117
In       2.71990735       4.31201833      12.92642997        8       0.00132806       0.00227950      -0.01379601
In       5.45007486       4.29417106       2.86161123        9       0.00132806      -0.00227950       0.01379601
In       2.74042768       1.44328854      10.75563184       10      -0.00132806       0.00227950       0.01379601
In       0.01026016       1.42544126       5.03240937       11      -0.00132806      -0.00227950      -0.01379601
In       2.74042768       1.42544126       2.86161123       12      -0.00132806      -0.00227950       0.01379601
In       0.01026016       1.44328854      12.92642997       13      -0.00132806       0.00227950      -0.01379601
In       2.71990735       4.29417106       5.03240937       14       0.00132806      -0.00227950      -0.01379601
In       5.45007486       4.31201833      10.75563184       15       0.00132806       0.00227950       0.01379601
O        4.69019412       5.09303848      12.59834027       16      -0.00429268       0.01643815      -0.03634607
O        1.96002660       3.51315091       3.18970093       17      -0.00429268      -0.01643815       0.03634607
O        0.77014091       2.22430869      11.08372154       18       0.00429268       0.01643815       0.03634607
O        3.50030843       0.64442111       4.70431967       19       0.00429268      -0.01643815      -0.03634607
O        0.77014091       0.64442111       3.18970093       20       0.00429268      -0.01643815       0.03634607
O        3.50030843       2.22430869      12.59834027       21       0.00429268       0.01643815      -0.03634607
O        4.69019412       3.51315091       4.70431967       22      -0.00429268      -0.01643815      -0.03634607
O        1.96002660       5.09303848      11.08372154       23      -0.00429268       0.01643815       0.03634607
O        3.86282048       3.04991981       9.86017861       24      -0.01393816       0.00769137       0.01526102
O        1.13265297       5.55626958       5.92786259       25      -0.01393816      -0.00769137      -0.01526102
O        1.59751455       0.18119002      13.82188320       26       0.01393816       0.00769137      -0.01526102
O        4.32768206       2.68753978       1.96615801       27       0.01393816      -0.00769137       0.01526102
O        1.59751455       2.68753978       5.92786259       28       0.01393816      -0.00769137      -0.01526102
O        4.32768206       0.18119002       9.86017861       29       0.01393816       0.00769137       0.01526102
O        3.86282048       5.55626958       1.96615801       30      -0.01393816      -0.00769137       0.01526102
O        1.13265297       3.04991981      13.82188320       31      -0.01393816       0.00769137      -0.01526102
O        3.52052397       3.80003548      14.95826898       32      -0.01858939      -0.00240511       0.00012412
O        0.79035645       4.80615391       0.82977223       33      -0.01858939       0.00240511      -0.00012412
O        1.93981106       0.93130569       8.72379283       34       0.01858939      -0.00240511      -0.00012412
O        4.66997857       1.93742411       7.06424838       35       0.01858939       0.00240511       0.00012412
O        1.93981106       1.93742411       0.82977223       36       0.01858939       0.00240511      -0.00012412
O        4.66997857       0.93130569      14.95826898       37       0.01858939      -0.00240511       0.00012412
O        3.52052397       4.80615391       7.06424838       38      -0.01858939       0.00240511       0.00012412
O        0.79035645       3.80003548       8.72379283       39      -0.01858939      -0.00240511      -0.00012412
40
Lattice="5.461450051950145 -2.3603503677300228e-42 0.0 2.365503376439701e-42 5.735140682045137 0.0 0.0 0.0 15.791200216111106" Properties=species:S:1:pos:R:3:spacegroup_kinds:I:1:forces:R:3 spacegroup="P 1" unit_cell=conventional occupancy="_JSON {\"0\": {\"In\": 1}, \"1\": {\"In\": 1}, \"2\": {\"In\": 1}, \"3\": {\"In\": 1}, \"4\": {\"In\": 1}, \"5\": {\"In\": 1}, \"6\": {\"In\": 1}, \"7\": {\"In\": 1}, \"8\": {\"In\": 1}, \"9\": {\"In\": 1}, \"10\": {\"In\": 1}, \"11\": {\"In\": 1}, \"12\": {\"In\": 1}, \"13\": {\"In\": 1}, \"14\": {\"In\": 1}, \"15\": {\"In\": 1}, \"16\": {\"O\": 1}, \"17\": {\"O\": 1}, \"18\": {\"O\": 1}, \"19\": {\"O\": 1}, \"20\": {\"O\": 1}, \"21\": {\"O\": 1}, \"22\": {\"O\": 1}, \"23\": {\"O\": 1}, \"24\": {\"O\": 1}, \"25\": {\"O\": 1}, \"26\": {\"O\": 1}, \"27\": {\"O\": 1}, \"28\": {\"O\": 1}, \"29\": {\"O\": 1}, \"30\": {\"O\": 1}, \"31\": {\"O\": 1}, \"32\": {\"O\": 1}, \"33\": {\"O\": 1}, \"34\": {\"O\": 1}, \"35\": {\"O\": 1}, \"36\": {\"O\": 1}, \"37\": {\"O\": 1}, \"38\": {\"O\": 1}, \"39\": {\"O\": 1}}" n_minim_iter=5 energy=-45150.00190289278 stress="-0.02326126212740185 4.125505907191538e-13 2.8963296280413957e-13 4.125505907191538e-13 -0.023872952277599436 -7.491883190617999e-13 2.8963296280413957e-13 -7.491883190617999e-13 -0.023257251302422715" free_energy=-45150.00190289278 pbc="T T T"
In       2.72532448       4.61415335       9.02986364        0      -0.00696073      -0.01939206      -0.00607444
In      -0.00540055       3.98855767       6.76133658        1      -0.00696073       0.01939206       0.00607444
In       2.73612557       1.74658301      14.65693669        2       0.00696073      -0.01939206       0.00607444
In       5.46685060       1.12098733       1.13426353        3       0.00696073       0.01939206      -0.00607444
In       2.73612557       1.12098733       6.76133658        4       0.00696073       0.01939206       0.00607444
In       5.46685060       1.74658301       9.02986364        5       0.00696073      -0.01939206      -0.00607444
In       2.72532448       3.98855767       1.13426353        6      -0.00696073       0.01939206      -0.00607444
In      -0.00540055       4.61415335      14.65693669        7      -0.00696073      -0.01939206       0.00607444
In       2.72089661       4.30985636      12.92879134        8       0.00125755       0.01585291      -0.01774847
In       5.45162164       4.29285466       2.86240888        9       0.00125755      -0.01585291       0.01774847
In       2.74055344       1.44228602      10.75800899       10      -0.00125755       0.01585291       0.01774847
In       0.00982842       1.42528432       5.03319123       11      -0.00125755      -0.01585291      -0.01774847
In       2.74055344       1.42528432       2.86240888       12      -0.00125755      -0.01585291       0.01774847
In       0.00982842       1.44228602      12.92879134       13      -0.00125755       0.01585291      -0.01774847
In       2.72089661       4.29285466       5.03319123       14       0.00125755      -0.01585291      -0.01774847
In       5.45162164       4.30985636      10.75800899       15       0.00125755       0.01585291       0.01774847
O        4.69100118       5.09219620      12.59929676       16      -0.00845066       0.00862673      -0.03204406
O        1.96027616       3.51051482       3.19190345       17      -0.00845066      -0.00862673       0.03204406
O        0.77044887       2.22462586      11.08750356       18       0.00845066       0.00862673       0.03204406
O        3.50117389       0.64294448       4.70369666       19       0.00845066      -0.00862673      -0.03204406
O        0.77044887       0.64294448       3.19190345       20       0.00845066      -0.00862673       0.03204406
O        3.50117389       2.22462586      12.59929676       21       0.00845066       0.00862673      -0.03204406
O        4.69100118       3.51051482       4.70369666       22      -0.00845066      -0.00862673      -0.03204406
O        1.96027616       5.09219620      11.08750356       23      -0.00845066       0.00862673       0.03204406
O        3.86373213       3.04880171       9.86329838       24      -0.02153208       0.00754325       0.01283478
O        1.13300711       5.55390931       5.92790183       25      -0.02153208      -0.00754325      -0.01283478
O        1.59771792       0.18123137      13.82350194       26       0.02153208       0.00754325      -0.01283478
O        4.32844294       2.68633897       1.96769828       27       0.02153208      -0.00754325       0.01283478
O        1.59771792       2.68633897       5.92790183       28       0.02153208      -0.00754325      -0.01283478
O        4.32844294       0.18123137       9.86329838       29       0.02153208       0.00754325       0.01283478
O        3.86373213       5.55390931       1.96769828       30      -0.02153208      -0.00754325       0.01283478
O        1.13300711       3.04880171      13.82350194       31      -0.02153208       0.00754325      -0.01283478
O        3.51965384       3.79799436      14.96037610       32       0.00166204       0.01675065       0.01852652
O        0.78892881       4.80471667       0.83082411       33       0.00166203      -0.01675065      -0.01852652
O        1.94179622       0.93042402       8.72642422       34      -0.00166204       0.01675065      -0.01852652
O        4.67252124       1.93714633       7.06477599       35      -0.00166203      -0.01675065       0.01852652
O        1.94179622       1.93714633       0.83082411       36      -0.00166203      -0.01675065      -0.01852652
O        4.67252124       0.93042402      14.96037610       37      -0.00166203       0.01675065       0.01852652
O        3.51965384       4.80471667       7.06477599       38       0.00166203      -0.01675065       0.01852652
O        0.78892881       3.79799436       8.72642422       39       0.00166203       0.01675065      -0.01852652
40