40
Lattice="5.072361087790616 -3.8056904579847853e-42 0.0 3.5037347542159027e-42 5.5263212868522595 0.0 0.0 0.0 14.85892090696548" Properties=species:S:1:pos:R:3:spacegroup_kinds:I:1:forces:R:3 spacegroup="P 1" unit_cell=conventional occupancy="_JSON {\"0\": {\"In\": 1}, \"1\": {\"In\": 1}, \"2\": {\"In\": 1}, \"3\": {\"In\": 1}, \"4\": {\"In\": 1}, \"5\": {\"In\": 1}, \"6\": {\"In\": 1}, \"7\": {\"In\": 1}, \"8\": {\"In\": 1}, \"9\": {\"In\": 1}, \"10\": {\"In\": 1}, \"11\": {\"In\": 1}, \"12\": {\"In\": 1}, \"13\": {\"In\": 1}, \"14\": {\"In\": 1}, \"15\": {\"In\": 1}, \"16\": {\"O\": 1}, \"17\": {\"O\": 1}, \"18\": {\"O\": 1}, \"19\": {\"O\": 1}, \"20\": {\"O\": 1}, \"21\": {\"O\": 1}, \"22\": {\"O\": 1}, \"23\": {\"O\": 1}, \"24\": {\"O\": 1}, \"25\": {\"O\": 1}, \"26\": {\"O\": 1}, \"27\": {\"O\": 1}, \"28\": {\"O\": 1}, \"29\": {\"O\": 1}, \"30\": {\"O\": 1}, \"31\": {\"O\": 1}, \"32\": {\"O\": 1}, \"33\": {\"O\": 1}, \"34\": {\"O\": 1}, \"35\": {\"O\": 1}, \"36\": {\"O\": 1}, \"37\": {\"O\": 1}, \"38\": {\"O\": 1}, \"39\": {\"O\": 1}}" n_minim_iter=17 energy=-45143.8018310302 stress="-0.23011545812593084 2.37975799093641e-13 -2.2845041260745774e-13 2.37975799093641e-13 -0.23013231927524846 2.731047932672212e-13 -2.2845041260745774e-13 2.731047932672212e-13 -0.23010762662477294" free_energy=-45143.8018310302 pbc="T T T"
In       2.60200688       4.21451939       8.35426622        0      -0.00074337      -0.00253170       0.00226427
In       0.06582633       4.07496254       6.50465468        1      -0.00074337       0.00253170      -0.00226427
In       2.47035421       1.45135875      13.93411514        2       0.00074337      -0.00253170      -0.00226427
In       5.00653475       1.31180190       0.92480577        3       0.00074337       0.00253170       0.00226427
In       2.47035421       1.31180190       6.50465468        4       0.00074337       0.00253170      -0.00226427
In       5.00653475       1.45135875       8.35426622        5       0.00074337      -0.00253170       0.00226427
In       2.60200688       4.07496254       0.92480577        6      -0.00074337       0.00253170       0.00226427
In       0.06582633       4.21451939      13.93411514        7      -0.00074337      -0.00253170      -0.00226427
In       2.52584646       3.74110627      12.06064025        8      -0.00043258      -0.00026120       0.00214781
In       5.06202700       4.54837566       2.79828066        9      -0.00043258       0.00026120      -0.00214781
In       2.54651463       0.97794563      10.22774111       10       0.00043258      -0.00026120      -0.00214781
In       0.01033409       1.78521501       4.63117979       11       0.00043258       0.00026120       0.00214781
In       2.54651463       1.78521501       2.79828066       12       0.00043258       0.00026120      -0.00214781
In       0.01033409       0.97794563      12.06064025       13       0.00043258      -0.00026120       0.00214781
In       2.52584646       4.54837566       4.63117979       14      -0.00043258       0.00026120       0.00214781
In       5.06202700       3.74110627      10.22774111       15      -0.00043258      -0.00026120      -0.00214781
O        4.39207576       4.54350299      11.94064642       16      -0.00300496       0.00354113      -0.00207691
O        1.85589522       3.74597894       2.91827449       17      -0.00300496      -0.00354113       0.00207691
O        0.68028532       1.78034234      10.34773494       18       0.00300496       0.00354113       0.00207691
O        3.21646587       0.98281830       4.51118596       19       0.00300496      -0.00354113      -0.00207691
O        0.68028532       0.98281830       2.91827449       20       0.00300496      -0.00354113       0.00207691
O        3.21646587       1.78034234      11.94064642       21       0.00300496       0.00354113      -0.00207691
O        4.39207576       3.74597894       4.51118596       22      -0.00300496      -0.00354113      -0.00207691
O        1.85589522       4.54350299      10.34773494       23      -0.00300496       0.00354113       0.00207691
O        3.45117289       2.60694099       9.30334699       24       0.00318697      -0.00017051       0.00064438
O        0.91499235       5.68254094       5.55557391       25       0.00318697       0.00017051      -0.00064438
O        1.62118820      -0.15621965      12.98503437       26      -0.00318697      -0.00017051      -0.00064438
O        4.15736874       2.91938029       1.87388654       27      -0.00318697       0.00017051       0.00064438
O        1.62118820       2.91938029       5.55557391       28      -0.00318697       0.00017051      -0.00064438
O        4.15736874      -0.15621965       9.30334699       29      -0.00318697      -0.00017051       0.00064438
O        3.45117289       5.68254094       1.87388654       30       0.00318697       0.00017051       0.00064438
O        0.91499235       2.60694099      12.98503437       31       0.00318697      -0.00017051      -0.00064438
O        3.30259811       3.42937193      13.98871783       32       0.00308155      -0.00368370       0.00105578
O        0.76641757       4.86011000       0.87020308       33       0.00308155       0.00368370      -0.00105578
O        1.76976298       0.66621129       8.29966353       34      -0.00308155      -0.00368370      -0.00105578
O        4.30594352       2.09694936       6.55925737       35      -0.00308155       0.00368370       0.00105578
O        1.76976298       2.09694936       0.87020308       36      -0.00308155       0.00368370      -0.00105578
O        4.30594352       0.66621129      13.98871783       37      -0.00308155      -0.00368370       0.00105578
O        3.30259811       4.86011000       6.55925737       38       0.00308155       0.00368370       0.00105578
O        0.76641757       3.42937193       8.29966353       39       0.00308155      -0.00368370      -0.00105578
