40
Lattice="5.411082518180518 -2.1922040420451788e-42 0.0 2.3044755296281763e-42 5.6882055742915325 0.0 0.0 0.0 15.646812149480798" Properties=species:S:1:pos:R:3:spacegroup_kinds:I:1:forces:R:3 spacegroup="P 1" unit_cell=conventional occupancy="_JSON {\"0\": {\"In\": 1}, \"1\": {\"In\": 1}, \"2\": {\"In\": 1}, \"3\": {\"In\": 1}, \"4\": {\"In\": 1}, \"5\": {\"In\": 1}, \"6\": {\"In\": 1}, \"7\": {\"In\": 1}, \"8\": {\"In\": 1}, \"9\": {\"In\": 1}, \"10\": {\"In\": 1}, \"11\": {\"In\": 1}, \"12\": {\"In\": 1}, \"13\": {\"In\": 1}, \"14\": {\"In\": 1}, \"15\": {\"In\": 1}, \"16\": {\"O\": 1}, \"17\": {\"O\": 1}, \"18\": {\"O\": 1}, \"19\": {\"O\": 1}, \"20\": {\"O\": 1}, \"21\": {\"O\": 1}, \"22\": {\"O\": 1}, \"23\": {\"O\": 1}, \"24\": {\"O\": 1}, \"25\": {\"O\": 1}, \"26\": {\"O\": 1}, \"27\": {\"O\": 1}, \"28\": {\"O\": 1}, \"29\": {\"O\": 1}, \"30\": {\"O\": 1}, \"31\": {\"O\": 1}, \"32\": {\"O\": 1}, \"33\": {\"O\": 1}, \"34\": {\"O\": 1}, \"35\": {\"O\": 1}, \"36\": {\"O\": 1}, \"37\": {\"O\": 1}, \"38\": {\"O\": 1}, \"39\": {\"O\": 1}}" n_minim_iter=1 energy=-45149.59422907324 stress="-0.039949907289760785 -2.486555866471787e-13 1.7637499749330632e-13 -2.486555866471787e-13 -0.042552303324577705 1.7955571664197282e-13 1.7637499749330632e-13 1.7955571664197282e-13 -0.038716218461872266" free_energy=-45149.59422907324 pbc="T T T"
In       2.69625091       4.58709605       8.95180865        0      -0.01066736       0.01719104       0.04936616
In      -0.00929035       3.94521231       6.69500350        1      -0.01066736      -0.01719104      -0.04936616
In       2.71483160       1.74299326      14.51840958        2       0.01066736       0.01719104      -0.04936616
In       5.42037286       1.10110952       1.12840257        3       0.01066736      -0.01719104       0.04936616
In       2.71483160       1.10110952       6.69500350        4       0.01066736      -0.01719104      -0.04936616
In       5.42037286       1.74299326       8.95180865        5       0.01066736       0.01719104       0.04936616
In       2.69625091       3.94521231       1.12840257        6      -0.01066736      -0.01719104       0.04936616
In      -0.00929035       4.58709605      14.51840958        7      -0.01066736       0.01719104      -0.04936616
In       2.69389142       4.28959198      12.80788984        8       0.04140122      -0.01606697      -0.02593404
In       5.39943268       4.24271638       2.83892231        9       0.04140122       0.01606697       0.02593404
In       2.71719109       1.44548919      10.66232838       10      -0.04140122      -0.01606697       0.02593404
In       0.01164983       1.39861360       4.98448377       11      -0.04140122       0.01606697      -0.02593404
In       2.71719109       1.39861360       2.83892231       12      -0.04140122       0.01606697       0.02593404
In       0.01164983       1.44548919      12.80788984       13      -0.04140122      -0.01606697      -0.02593404
In       2.69389142       4.24271638       4.98448377       14       0.04140122       0.01606697      -0.02593404
In       5.39943268       4.28959198      10.66232838       15       0.04140122      -0.01606697       0.02593404
O        4.64166104       5.07139386      12.48145437       16       0.04550927       0.04541872      -0.01239928
O        1.93611978       3.46091450       3.16535778       17       0.04550927      -0.04541872       0.01239928
O        0.76942148       2.22729107      10.98876386       18      -0.04550927       0.04541872       0.01239928
O        3.47496274       0.61681171       4.65804829       19      -0.04550927      -0.04541872      -0.01239928
O        0.76942148       0.61681171       3.16535778       20      -0.04550927      -0.04541872       0.01239928
O        3.47496274       2.22729107      12.48145437       21      -0.04550927       0.04541872      -0.01239928
O        4.64166104       3.46091450       4.65804829       22       0.04550927      -0.04541872      -0.01239928
O        1.93611978       5.07139386      10.98876386       23       0.04550927       0.04541872       0.01239928
O        3.82756044       3.03837201       9.77699755       24       0.07205655      -0.03317713       0.04867101
O        1.12201918       5.49393635       5.86981460       25       0.07205655       0.03317713      -0.04867101
O        1.58352208       0.19426923      13.69322068       26      -0.07205655      -0.03317713      -0.04867101
O        4.28906333       2.64983356       1.95359147       27      -0.07205655       0.03317713       0.04867101
O        1.58352208       2.64983356       5.86981460       28      -0.07205655       0.03317713      -0.04867101
O        4.28906333       0.19426923       9.77699755       29      -0.07205655      -0.03317713       0.04867101
O        3.82756044       5.49393635       1.95359147       30       0.07205655       0.03317713       0.04867101
O        1.12201918       3.03837201      13.69322068       31       0.07205655      -0.03317713      -0.04867101
O        3.48137225       3.78100628      14.82588244       32      -0.05817829      -0.00608989      -0.06883732
O        0.77583099       4.75130209       0.82092970       33      -0.05817829       0.00608989       0.06883732
O        1.92971027       0.93690349       8.64433578       34       0.05817829      -0.00608989       0.06883732
O        4.63525153       1.90719930       7.00247637       35       0.05817829       0.00608989      -0.06883732
O        1.92971027       1.90719930       0.82092970       36       0.05817829       0.00608989       0.06883732
O        4.63525153       0.93690349      14.82588244       37       0.05817829      -0.00608989      -0.06883732
O        3.48137225       4.75130209       7.00247637       38      -0.05817829       0.00608989      -0.06883732
O        0.77583099       3.78100628       8.64433578       39      -0.05817829      -0.00608989       0.06883732
40
Lattice="5.4078289928197885 -2.157942726469812e-42 0.0 2.3128390804393043e-42 5.704321798077154 0.0 0.0 0.0 15.61199278415064" Properties=species:S:1:pos:R:3:spacegroup_kinds:I:1:forces:R:3 spacegroup="P 1" unit_cell=conventional occupancy="_JSON {\"0\": {\"In\": 1}, \"1\": {\"In\": 1}, \"2\": {\"In\": 1}, \"3\": {\"In\": 1}, \"4\": {\"In\": 1}, \"5\": {\"In\": 1}, \"6\": {\"In\": 1}, \"7\": {\"In\": 1}, \"8\": {\"In\": 1}, \"9\": {\"In\": 1}, \"10\": {\"In\": 1}, \"11\": {\"In\": 1}, \"12\": {\"In\": 1}, \"13\": {\"In\": 1}, \"14\": {\"In\": 1}, \"15\": {\"In\": 1}, \"16\": {\"O\": 1}, \"17\": {\"O\": 1}, \"18\": {\"O\": 1}, \"19\": {\"O\": 1}, \"20\": {\"O\": 1}, \"21\": {\"O\": 1}, \"22\": {\"O\": 1}, \"23\": {\"O\": 1}, \"24\": {\"O\": 1}, \"25\": {\"O\": 1}, \"26\": {\"O\": 1}, \"27\": {\"O\": 1}, \"28\": {\"O\": 1}, \"29\": {\"O\": 1}, \"30\": {\"O\": 1}, \"31\": {\"O\": 1}, \"32\": {\"O\": 1}, \"33\": {\"O\": 1}, \"34\": {\"O\": 1}, \"35\": {\"O\": 1}, \"36\": {\"O\": 1}, \"37\": {\"O\": 1}, \"38\": {\"O\": 1}, \"39\": {\"O\": 1}}" n_minim_iter=2 energy=-45149.596979920374 stress="-0.03943420291426474 -5.778154688711446e-14 2.8015920070830287e-13 -5.778154688711446e-14 -0.040120839008355495 2.5730139104155276e-13 2.8015920070830287e-13 2.5730139104155276e-13 -0.040820274288465325" free_energy=-45149.596979920374 pbc="T T T"
In       2.69460055       4.60013972       8.93202272        0      -0.01509505       0.02463398       0.08297986
In      -0.00931394       3.95634297       6.67997006        1      -0.01509505      -0.02463398      -0.08297986
In       2.71322844       1.74797882      14.48596645        2       0.01509505       0.02463398      -0.08297986
In       5.41714293       1.10418207       1.12602633        3       0.01509505      -0.02463398       0.08297986
In       2.71322844       1.10418207       6.67997006        4       0.01509505      -0.02463398      -0.08297986
In       5.41714293       1.74797882       8.93202272        5       0.01509505       0.02463398       0.08297986
In       2.69460055       3.95634297       1.12602633        6      -0.01509505      -0.02463398       0.08297986
In      -0.00931394       4.60013972      14.48596645        7      -0.01509505       0.02463398      -0.08297986
In       2.69238493       4.30170145      12.77931719        8       0.04372466      -0.03154062      -0.01853242
In       5.39629942       4.25478125       2.83267559        9       0.04372466       0.03154062       0.01853242
In       2.71544407       1.44954055      10.63867198       10      -0.04372466      -0.03154062       0.01853242
In       0.01152957       1.40262035       4.97332080       11      -0.04372466       0.03154062      -0.01853242
In       2.71544407       1.40262035       2.83267559       12      -0.04372466       0.03154062       0.01853242
In       0.01152957       1.44954055      12.77931719       13      -0.04372466      -0.03154062      -0.01853242
In       2.69238493       4.25478125       4.97332080       14       0.04372466       0.03154062      -0.01853242
In       5.39629942       4.30170145      10.63867198       15       0.04372466      -0.03154062       0.01853242
O        4.63899464       5.08588717      12.45364511       16       0.03519508       0.05445556      -0.00851403
O        1.93508014       3.47059553       3.15834767       17       0.03519508      -0.05445556       0.00851403
O        0.76883435       2.23372627      10.96434407       18      -0.03519508       0.05445556       0.00851403
O        3.47274885       0.61843463       4.64764872       19      -0.03519508      -0.05445556      -0.00851403
O        0.76883435       0.61843463       3.15834767       20      -0.03519508      -0.05445556       0.00851403
O        3.47274885       2.23372627      12.45364511       21      -0.03519508       0.05445556      -0.00851403
O        4.63899464       3.47059553       4.64764872       22       0.03519508      -0.05445556      -0.00851403
O        1.93508014       5.08588717      10.96434407       23       0.03519508       0.05445556       0.00851403
O        3.82545617       3.04688947       9.75537341       24       0.05502434      -0.02601184       0.04313081
O        1.12154167       5.50959323       5.85661938       25       0.05502434       0.02601184      -0.04313081
O        1.58237283       0.19472857      13.66261577       26      -0.05502434      -0.02601184      -0.04313081
O        4.28628732       2.65743233       1.94937701       27      -0.05502434       0.02601184       0.04313081
O        1.58237283       2.65743233       5.85661938       28      -0.05502434       0.02601184      -0.04313081
O        4.28628732       0.19472857       9.75537341       29      -0.05502434      -0.02601184       0.04313081
O        3.82545617       5.50959323       1.94937701       30       0.05502434       0.02601184       0.04313081
O        1.12154167       3.04688947      13.66261577       31       0.05502434      -0.02601184      -0.04313081
O        3.47911984       3.79170217      14.79270191       32      -0.04845222      -0.02516792      -0.08567399
O        0.77520535       4.76478053       0.81929087       33      -0.04845222       0.02516792       0.08567399
O        1.92870915       0.93954127       8.62528727       34       0.04845222      -0.02516792       0.08567399
O        4.63262365       1.91261963       6.98670552       35       0.04845222       0.02516792      -0.08567399
O        1.92870915       1.91261963       0.81929087       36       0.04845222       0.02516792       0.08567399
O        4.63262365       0.93954127      14.79270191       37       0.04845222      -0.02516792      -0.08567399
O        3.47911984       4.76478053       6.98670552       38      -0.04845222       0.02516792      -0.08567399
O        0.77520535       3.79170217       8.62528727       39      -0.04845222      -0.02516792       0.08567399
40
Lattice="5.395896984423474 -2.1519263961032012e-42 0.0 2.320308595961995e-42 5.7121184917113315 0.0 0.0 0.0 15.625159220941006" Properties=species:S:1:pos:R:3:spacegroup_kinds:I:1:forces:R:3 spacegroup="P 1" unit_cell=conventional occupancy="_JSON {\"0\": {\"In\": 1}, \"1\": {\"In\": 1}, \"2\": {\"In\": 1}, \"3\": {\"In\": 1}, \"4\": {\"In\": 1}, \"5\": {\"In\": 1}, \"6\": {\"In\": 1}, \"7\": {\"In\": 1}, \"8\": {\"In\": 1}, \"9\": {\"In\": 1}, \"10\": {\"In\": 1}, \"11\": {\"In\": 1}, \"12\": {\"In\": 1}, \"13\": {\"In\": 1}, \"14\": {\"In\": 1}, \"15\": {\"In\": 1}, \"16\": {\"O\": 1}, \"17\": {\"O\": 1}, \"18\": {\"O\": 1}, \"19\": {\"O\": 1}, \"20\": {\"O\": 1}, \"21\": {\"O\": 1}, \"22\": {\"O\": 1}, \"23\": {\"O\": 1}, \"24\": {\"O\": 1}, \"25\": {\"O\": 1}, \"26\": {\"O\": 1}, \"27\": {\"O\": 1}, \"28\": {\"O\": 1}, \"29\": {\"O\": 1}, \"30\": {\"O\": 1}, \"31\": {\"O\": 1}, \"32\": {\"O\": 1}, \"33\": {\"O\": 1}, \"34\": {\"O\": 1}, \"35\": {\"O\": 1}, \"36\": {\"O\": 1}, \"37\": {\"O\": 1}, \"38\": {\"O\": 1}, \"39\": {\"O\": 1}}" n_minim_iter=3 energy=-45149.598358517585 stress="-0.04096504428073931 -1.8940511115594733e-13 4.843108554606683e-13 -1.8940511115594733e-13 -0.039484331371680205 -8.218029654729584e-14 4.843108554606683e-13 -8.218029654729584e-14 -0.039521515098886274" free_energy=-45149.598358517585 pbc="T T T"
In       2.68855430       4.60659308       8.94009739        0       0.00946758       0.04260104       0.06820320
In      -0.00939420       3.96158466       6.68506183        1       0.00946758      -0.04260104      -0.06820320
In       2.70734269       1.75053383      14.49764144        2      -0.00946758       0.04260104      -0.06820320
In       5.40529118       1.10552542       1.12751778        3      -0.00946758      -0.04260104       0.06820320
In       2.70734269       1.10552542       6.68506183        4      -0.00946758      -0.04260104      -0.06820320
In       5.40529118       1.75053383       8.94009739        5      -0.00946758       0.04260104       0.06820320
In       2.68855430       3.96158466       1.12751778        6       0.00946758      -0.04260104       0.06820320
In      -0.00939420       4.60659308      14.49764144        7       0.00946758       0.04260104      -0.06820320
In       2.68675031       4.30737663      12.78995383        8       0.01957342      -0.03954704      -0.02095194
In       5.38469880       4.26080111       2.83520539        9       0.01957342       0.03954704       0.02095194
In       2.70914667       1.45131738      10.64778500       10      -0.01957342      -0.03954704       0.02095194
In       0.01119818       1.40474187       4.97737422       11      -0.01957342       0.03954704      -0.02095194
In       2.70914667       1.40474187       2.83520539       12      -0.01957342       0.03954704       0.02095194
In       0.01119818       1.45131738      12.78995383       13      -0.01957342      -0.03954704      -0.02095194
In       2.68675031       4.26080111       4.97737422       14       0.01957342       0.03954704      -0.02095194
In       5.38469880       4.30737663      10.64778500       15       0.01957342      -0.03954704       0.02095194
O        4.62902148       5.09321516      12.46408259       16       0.05140858       0.05570042      -0.01844889
O        1.93107298       3.47496258       3.16107663       17       0.05140858      -0.05570042       0.01844889
O        0.76687551       2.23715591      10.97365624       18      -0.05140858       0.05570042       0.01844889
O        3.46482400       0.61890333       4.65150298       19      -0.05140858      -0.05570042      -0.01844889
O        0.76687551       0.61890333       3.16107663       20      -0.05140858      -0.05570042       0.01844889
O        3.46482400       2.23715591      12.46408259       21      -0.05140858       0.05570042      -0.01844889
O        4.62902148       3.47496258       4.65150298       22       0.05140858      -0.05570042      -0.01844889
O        1.93107298       5.09321516      10.97365624       23       0.05140858       0.05570042       0.01844889
O        3.81742710       3.05085873       9.76391289       24       0.04030900      -0.02357947       0.03939484
O        1.11947861       5.51731901       5.86124633       25       0.04030900       0.02357947      -0.03939484
O        1.57846988       0.19479948      13.67382594       26      -0.04030900      -0.02357947      -0.03939484
O        4.27641838       2.66125977       1.95133328       27      -0.04030900       0.02357947       0.03939484
O        1.57846988       2.66125977       5.86124633       28      -0.04030900       0.02357947      -0.03939484
O        4.27641838       0.19479948       9.76391289       29      -0.04030900      -0.02357947       0.03939484
O        3.81742710       5.51731901       1.95133328       30       0.04030900       0.02357947       0.03939484
O        1.11947861       3.05085873      13.67382594       31       0.04030900      -0.02357947      -0.03939484
O        3.47108802       3.79673059      14.80459421       32      -0.06768495      -0.03883412      -0.06493291
O        0.77313953       4.77144715       0.82056501       33      -0.06768495       0.03883412       0.06493291
O        1.92480896       0.94067135       8.63314462       34       0.06768495      -0.03883412       0.06493291
O        4.62275746       1.91538790       6.99201460       35       0.06768495       0.03883412      -0.06493291
O        1.92480896       1.91538790       0.82056501       36       0.06768495       0.03883412       0.06493291
O        4.62275746       0.94067135      14.80459421       37       0.06768495      -0.03883412      -0.06493291
O        3.47108802       4.77144715       6.99201460       38      -0.06768495       0.03883412      -0.06493291
O        0.77313953       3.79673059       8.63314462       39      -0.06768495      -0.03883412       0.06493291
40
Lattice="5.396781574815293 -2.1447844223703513e-42 0.0 2.2959020190946433e-42 5.71426369877629 0.0 0.0 0.0 15.616733168272352" Properties=species:S:1:pos:R:3:spacegroup_kinds:I:1:forces:R:3 spacegroup="P 1" unit_cell=conventional occupancy="_JSON {\"0\": {\"In\": 1}, \"1\": {\"In\": 1}, \"2\": {\"In\": 1}, \"3\": {\"In\": 1}, \"4\": {\"In\": 1}, \"5\": {\"In\": 1}, \"6\": {\"In\": 1}, \"7\": {\"In\": 1}, \"8\": {\"In\": 1}, \"9\": {\"In\": 1}, \"10\": {\"In\": 1}, \"11\": {\"In\": 1}, \"12\": {\"In\": 1}, \"13\": {\"In\": 1}, \"14\": {\"In\": 1}, \"15\": {\"In\": 1}, \"16\": {\"O\": 1}, \"17\": {\"O\": 1}, \"18\": {\"O\": 1}, \"19\": {\"O\": 1}, \"20\": {\"O\": 1}, \"21\": {\"O\": 1}, \"22\": {\"O\": 1}, \"23\": {\"O\": 1}, \"24\": {\"O\": 1}, \"25\": {\"O\": 1}, \"26\": {\"O\": 1}, \"27\": {\"O\": 1}, \"28\": {\"O\": 1}, \"29\": {\"O\": 1}, \"30\": {\"O\": 1}, \"31\": {\"O\": 1}, \"32\": {\"O\": 1}, \"33\": {\"O\": 1}, \"34\": {\"O\": 1}, \"35\": {\"O\": 1}, \"36\": {\"O\": 1}, \"37\": {\"O\": 1}, \"38\": {\"O\": 1}, \"39\": {\"O\": 1}}" n_minim_iter=4 energy=-45149.603911965394 stress="-0.03979880837741958 3.343624529612086e-13 -2.5052194665642705e-13 3.343624529612086e-13 -0.039155796134266674 1.1987518994060646e-13 -2.5052194665642705e-13 1.1987518994060646e-13 -0.039403893401670595" free_energy=-45149.603911965394 pbc="T T T"
In       2.68883000       4.60943539       8.93786887        0       0.01209866      -0.00546060       0.02077604
In      -0.00956079       3.96196016       6.67886430        1       0.01209866       0.00546060      -0.02077604
In       2.70795158       1.75230354      14.48723088        2      -0.01209866      -0.00546060      -0.02077604
In       5.40634236       1.10482831       1.12950228        3      -0.01209866       0.00546060       0.02077604
In       2.70795158       1.10482831       6.67886430        4      -0.01209866       0.00546060      -0.02077604
In       5.40634236       1.75230354       8.93786887        5      -0.01209866      -0.00546060       0.02077604
In       2.68883000       3.96196016       1.12950228        6       0.01209866       0.00546060       0.02077604
In      -0.00956079       4.60943539      14.48723088        7       0.01209866      -0.00546060      -0.02077604
In       2.68838050       4.30781026      12.78233939        8       0.01364175      -0.00759702      -0.03399210
In       5.38677129       4.26358529       2.83439378        9       0.01364175       0.00759702       0.03399210
In       2.70840107       1.45067841      10.64276037       10      -0.01364175      -0.00759702       0.03399210
In       0.01001029       1.40645344       4.97397280       11      -0.01364175       0.00759702      -0.03399210
In       2.70840107       1.40645344       2.83439378       12      -0.01364175       0.00759702       0.03399210
In       0.01001029       1.45067841      12.78233939       13      -0.01364175      -0.00759702      -0.03399210
In       2.68838050       4.26358529       4.97397280       14       0.01364175       0.00759702      -0.03399210
In       5.38677129       4.30781026      10.64276037       15       0.01364175      -0.00759702       0.03399210
O        4.63129378       5.09705700      12.45690338       16       0.02414191       0.03565809      -0.03628356
O        1.93290299       3.47433855       3.15982979       17       0.02414191      -0.03565809       0.03628356
O        0.76548780       2.23992515      10.96819637       18      -0.02414191       0.03565809       0.03628356
O        3.46387859       0.61720670       4.64853680       19      -0.02414191      -0.03565809      -0.03628356
O        0.76548780       0.61720670       3.15982979       20      -0.02414191      -0.03565809       0.03628356
O        3.46387859       2.23992515      12.45690338       21      -0.02414191       0.03565809      -0.03628356
O        4.63129378       3.47433855       4.64853680       22       0.02414191      -0.03565809      -0.03628356
O        1.93290299       5.09705700      10.96819637       23       0.02414191       0.03565809       0.03628356
O        3.81984963       3.05108325       9.76013861       24      -0.00714292      -0.01064918       0.02998843
O        1.12145884       5.52031230       5.85659456       25      -0.00714292       0.01064918      -0.02998843
O        1.57693194       0.19395140      13.66496114       26       0.00714292      -0.01064918      -0.02998843
O        4.27532273       2.66318045       1.95177203       27       0.00714292       0.01064918       0.02998843
O        1.57693194       2.66318045       5.85659456       28       0.00714292       0.01064918      -0.02998843
O        4.27532273       0.19395140       9.76013861       29       0.00714292      -0.01064918       0.02998843
O        3.81984963       5.52031230       1.95177203       30      -0.00714292       0.01064918       0.02998843
O        1.12145884       3.05108325      13.66496114       31      -0.00714292      -0.01064918      -0.02998843
O        3.46963461       3.79713174      14.79394500       32      -0.03242638      -0.01088933      -0.01352484
O        0.77124382       4.77426381       0.82278816       33      -0.03242638       0.01088933       0.01352484
O        1.92714697       0.93999989       8.63115475       34       0.03242638      -0.01088933       0.01352484
O        4.62553776       1.91713196       6.98557842       35       0.03242638       0.01088933      -0.01352484
O        1.92714697       1.91713196       0.82278816       36       0.03242638       0.01088933       0.01352484
O        4.62553776       0.93999989      14.79394500       37       0.03242638      -0.01088933      -0.01352484
O        3.46963461       4.77426381       6.98557842       38      -0.03242638       0.01088933      -0.01352484
O        0.77124382       3.79713174       8.63115475       39      -0.03242638      -0.01088933       0.01352484
40
Lattice="5.3972998477047 -2.1218359175468127e-42 0.0 2.2953989089944583e-42 5.714302107320866 0.0 0.0 0.0 15.61512862223583" Properties=species:S:1:pos:R:3:spacegroup_kinds:I:1:forces:R:3 spacegroup="P 1" unit_cell=conventional occupancy="_JSON {\"0\": {\"In\": 1}, \"1\": {\"In\": 1}, \"2\": {\"In\": 1}, \"3\": {\"In\": 1}, \"4\": {\"In\": 1}, \"5\": {\"In\": 1}, \"6\": {\"In\": 1}, \"7\": {\"In\": 1}, \"8\": {\"In\": 1}, \"9\": {\"In\": 1}, \"10\": {\"In\": 1}, \"11\": {\"In\": 1}, \"12\": {\"In\": 1}, \"13\": {\"In\": 1}, \"14\": {\"In\": 1}, \"15\": {\"In\": 1}, \"16\": {\"O\": 1}, \"17\": {\"O\": 1}, \"18\": {\"O\": 1}, \"19\": {\"O\": 1}, \"20\": {\"O\": 1}, \"21\": {\"O\": 1}, \"22\": {\"O\": 1}, \"23\": {\"O\": 1}, \"24\": {\"O\": 1}, \"25\": {\"O\": 1}, \"26\": {\"O\": 1}, \"27\": {\"O\": 1}, \"28\": {\"O\": 1}, \"29\": {\"O\": 1}, \"30\": {\"O\": 1}, \"31\": {\"O\": 1}, \"32\": {\"O\": 1}, \"33\": {\"O\": 1}, \"34\": {\"O\": 1}, \"35\": {\"O\": 1}, \"36\": {\"O\": 1}, \"37\": {\"O\": 1}, \"38\": {\"O\": 1}, \"39\": {\"O\": 1}}" n_minim_iter=5 energy=-45149.60563638467 stress="-0.03906405857861756 9.082091404688133e-14 9.643064161698396e-15 9.082091404688133e-14 -0.0390487540514017 2.9054736951039675e-14 9.643064161698396e-15 2.9054736951039675e-14 -0.039051204540873664" free_energy=-45149.60563638467 pbc="T T T"
In       2.68917149       4.60974725       8.93860834        0       0.00980929      -0.02786884      -0.00879068
In      -0.00947844       3.96170591       6.67652028        1       0.00980929       0.02786884       0.00879068
In       2.70812836       1.75259619      14.48408459        2      -0.00980929      -0.02786884       0.00879068
In       5.40677828       1.10455486       1.13104403        3      -0.00980929       0.02786884      -0.00879068
In       2.70812836       1.10455486       6.67652028        4      -0.00980929       0.02786884       0.00879068
In       5.40677828       1.75259619       8.93860834        5      -0.00980929      -0.02786884      -0.00879068
In       2.68917149       3.96170591       1.13104403        6       0.00980929       0.02786884      -0.00879068
In      -0.00947844       4.60974725      14.48408459        7       0.00980929      -0.02786884       0.00879068
In       2.68959954       4.30719526      12.77993747        8       0.01135697       0.00858814      -0.02984658
In       5.38824946       4.26425790       2.83519115        9       0.01135697      -0.00858814       0.02984658
In       2.70770031       1.45004421      10.64275546       10      -0.01135697       0.00858814       0.02984658
In       0.00905039       1.40710684       4.97237316       11      -0.01135697      -0.00858814      -0.02984658
In       2.70770031       1.40710684       2.83519115       12      -0.01135697      -0.00858814       0.02984658
In       0.00905039       1.45004421      12.77993747       13      -0.01135697       0.00858814      -0.02984658
In       2.68959954       4.26425790       4.97237316       14       0.01135697      -0.00858814      -0.02984658
In       5.38824946       4.30719526      10.64275546       15       0.01135697       0.00858814       0.02984658
O        4.63290773       5.09875534      12.45464489       16       0.00575104       0.02252034      -0.03555373
O        1.93425781       3.47269782       3.16048373       17       0.00575104      -0.02252034       0.03555373
O        0.76439211       2.24160429      10.96804805       18      -0.00575104       0.02252034       0.03555373
O        3.46304204       0.61554676       4.64708058       19      -0.00575104      -0.02252034      -0.03555373
O        0.76439211       0.61554676       3.16048373       20      -0.00575104      -0.02252034       0.03555373
O        3.46304204       2.24160429      12.45464489       21      -0.00575104       0.02252034      -0.03555373
O        4.63290773       3.47269782       4.64708058       22       0.00575104      -0.02252034      -0.03555373
O        1.93425781       5.09875534      10.96804805       23       0.00575104       0.02252034       0.03555373
O        3.82097882       3.05041790       9.76051415       24      -0.03062235      -0.00395464       0.02416269
O        1.12232890       5.52103527       5.85461447       25      -0.03062235       0.00395464      -0.02416269
O        1.57632103       0.19326684      13.66217878       26       0.03062235      -0.00395464      -0.02416269
O        4.27497095       2.66388421       1.95294984       27       0.03062235       0.00395464       0.02416269
O        1.57632103       2.66388421       5.85461447       28       0.03062235       0.00395464      -0.02416269
O        4.27497095       0.19326684       9.76051415       29       0.03062235      -0.00395464       0.02416269
O        3.82097882       5.52103527       1.95294984       30      -0.03062235       0.00395464       0.02416269
O        1.12232890       3.05041790      13.66217878       31      -0.03062235      -0.00395464      -0.02416269
O        3.46839712       3.79654569      14.79083680       32      -0.00907132       0.00837856       0.01470158
O        0.76974719       4.77490747       0.82429182       33      -0.00907132      -0.00837856      -0.01470158
O        1.92890273       0.93939464       8.63185613       34       0.00907132       0.00837856      -0.01470158
O        4.62755265       1.91775641       6.98327249       35       0.00907132      -0.00837856       0.01470158
O        1.92890273       1.91775641       0.82429182       36       0.00907132      -0.00837856      -0.01470158
O        4.62755265       0.93939464      14.79083680       37       0.00907132       0.00837856       0.01470158
O        3.46839712       4.77490747       6.98327249       38      -0.00907132      -0.00837856       0.01470158
O        0.76974719       3.79654569       8.63185613       39      -0.00907132       0.00837856      -0.01470158
40