40
Lattice="5.628764055583821 -1.331680077350724e-42 0.0 1.3782534178872783e-42 5.825620905527954 0.0 0.0 0.0 16.274669477272127" Properties=species:S:1:pos:R:3:spacegroup_kinds:I:1:forces:R:3 spacegroup="P 1" unit_cell=conventional occupancy="_JSON {\"0\": {\"In\": 1}, \"1\": {\"In\": 1}, \"2\": {\"In\": 1}, \"3\": {\"In\": 1}, \"4\": {\"In\": 1}, \"5\": {\"In\": 1}, \"6\": {\"In\": 1}, \"7\": {\"In\": 1}, \"8\": {\"In\": 1}, \"9\": {\"In\": 1}, \"10\": {\"In\": 1}, \"11\": {\"In\": 1}, \"12\": {\"In\": 1}, \"13\": {\"In\": 1}, \"14\": {\"In\": 1}, \"15\": {\"In\": 1}, \"16\": {\"O\": 1}, \"17\": {\"O\": 1}, \"18\": {\"O\": 1}, \"19\": {\"O\": 1}, \"20\": {\"O\": 1}, \"21\": {\"O\": 1}, \"22\": {\"O\": 1}, \"23\": {\"O\": 1}, \"24\": {\"O\": 1}, \"25\": {\"O\": 1}, \"26\": {\"O\": 1}, \"27\": {\"O\": 1}, \"28\": {\"O\": 1}, \"29\": {\"O\": 1}, \"30\": {\"O\": 1}, \"31\": {\"O\": 1}, \"32\": {\"O\": 1}, \"33\": {\"O\": 1}, \"34\": {\"O\": 1}, \"35\": {\"O\": 1}, \"36\": {\"O\": 1}, \"37\": {\"O\": 1}, \"38\": {\"O\": 1}, \"39\": {\"O\": 1}}" n_minim_iter=1 energy=-45150.21237666988 stress="0.01199327598873046 -6.648729857201622e-14 -2.677143971979736e-13 -6.648729857201622e-14 0.014110440377683687 4.0809993403083095e-14 -2.677143971979736e-13 4.0809993403083095e-14 0.011282506676939256" free_energy=-45150.21237666988 pbc="T T T"
In       2.80805901       4.65859160       9.29007025        0      -0.00318958      -0.05106800       0.00062225
In      -0.00632302       4.07983975       6.98459923        1      -0.00318958       0.05106800      -0.00062225
In       2.82070505       1.74578115      15.12193397        2       0.00318958      -0.05106800      -0.00062225
In       5.63508708       1.16702930       1.15273551        3       0.00318958       0.05106800       0.00062225
In       2.82070505       1.16702930       6.98459923        4       0.00318958       0.05106800      -0.00062225
In       5.63508708       1.74578115       9.29007025        5       0.00318958      -0.05106800       0.00062225
In       2.80805901       4.07983975       1.15273551        6      -0.00318958       0.05106800       0.00062225
In      -0.00632302       4.65859160      15.12193397        7      -0.00318958      -0.05106800      -0.00062225
In       2.79800288       4.35618498      13.31894769        8      -0.02242759       0.01632588      -0.03807230
In       5.61238491       4.38224638       2.95572179        9      -0.02242759      -0.01632588       0.03807230
In       2.83076117       1.44337453      11.09305653       10       0.02242759       0.01632588       0.03807230
In       0.01637914       1.46943593       5.18161295       11       0.02242759      -0.01632588      -0.03807230
In       2.83076117       1.46943593       2.95572179       12       0.02242759      -0.01632588       0.03807230
In       0.01637914       1.44337453      13.31894769       13       0.02242759       0.01632588      -0.03807230
In       2.79800288       4.38224638       5.18161295       14      -0.02242759      -0.01632588      -0.03807230
In       5.61238491       4.35618498      11.09305653       15      -0.02242759       0.01632588       0.03807230
O        4.83479751       5.13694807      12.98924630       16       0.00166494      -0.03737089      -0.01628167
O        2.02041548       3.60148329       3.28542318       17       0.00166494       0.03737089       0.01628167
O        0.79396654       2.22413762      11.42275792       18      -0.00166494      -0.03737089       0.01628167
O        3.60834857       0.68867283       4.85191156       19      -0.00166494       0.03737089      -0.01628167
O        0.79396654       0.68867283       3.28542318       20      -0.00166494       0.03737089       0.01628167
O        3.60834857       2.22413762      12.98924630       21      -0.00166494      -0.03737089      -0.01628167
O        4.83479751       3.60148329       4.85191156       22       0.00166494       0.03737089      -0.01628167
O        2.02041548       5.13694807      11.42275792       23       0.00166494      -0.03737089       0.01628167
O        3.97627883       3.07520779      10.16004227       24      -0.06110644       0.01467978      -0.01596849
O        1.16189680       5.66322357       6.11462721       25      -0.06110644      -0.01467978       0.01596849
O        1.65248523       0.16239734      14.25196195       26       0.06110644       0.01467978       0.01596849
O        4.46686725       2.75041311       2.02270753       27       0.06110644      -0.01467978      -0.01596849
O        1.65248523       2.75041311       6.11462721       28       0.06110644      -0.01467978       0.01596849
O        4.46686725       0.16239734      10.16004227       29       0.06110644       0.01467978      -0.01596849
O        3.97627883       5.66322357       2.02270753       30      -0.06110644      -0.01467978      -0.01596849
O        1.16189680       3.07520779      14.25196195       31      -0.06110644       0.01467978       0.01596849
O        3.63575023       3.84866958      15.42567429       32       0.04453391       0.02822767       0.05222285
O        0.82136820       4.88976177       0.84899519       33       0.04453391      -0.02822767      -0.05222285
O        1.99301382       0.93585913       8.98632993       34      -0.04453391       0.02822767      -0.05222285
O        4.80739585       1.97695132       7.28833955       35      -0.04453391      -0.02822767       0.05222285
O        1.99301382       1.97695132       0.84899519       36      -0.04453391      -0.02822767      -0.05222285
O        4.80739585       0.93585913      15.42567429       37      -0.04453391       0.02822767       0.05222285
O        3.63575023       4.88976177       7.28833955       38       0.04453391      -0.02822767       0.05222285
O        0.82136820       3.84866958       8.98632993       39       0.04453391       0.02822767      -0.05222285
40
Lattice="5.632475244541888 -1.3339926959527492e-42 0.0 1.3735941527598997e-42 5.812135514699253 0.0 0.0 0.0 16.301682054236828" Properties=species:S:1:pos:R:3:spacegroup_kinds:I:1:forces:R:3 spacegroup="P 1" unit_cell=conventional occupancy="_JSON {\"0\": {\"In\": 1}, \"1\": {\"In\": 1}, \"2\": {\"In\": 1}, \"3\": {\"In\": 1}, \"4\": {\"In\": 1}, \"5\": {\"In\": 1}, \"6\": {\"In\": 1}, \"7\": {\"In\": 1}, \"8\": {\"In\": 1}, \"9\": {\"In\": 1}, \"10\": {\"In\": 1}, \"11\": {\"In\": 1}, \"12\": {\"In\": 1}, \"13\": {\"In\": 1}, \"14\": {\"In\": 1}, \"15\": {\"In\": 1}, \"16\": {\"O\": 1}, \"17\": {\"O\": 1}, \"18\": {\"O\": 1}, \"19\": {\"O\": 1}, \"20\": {\"O\": 1}, \"21\": {\"O\": 1}, \"22\": {\"O\": 1}, \"23\": {\"O\": 1}, \"24\": {\"O\": 1}, \"25\": {\"O\": 1}, \"26\": {\"O\": 1}, \"27\": {\"O\": 1}, \"28\": {\"O\": 1}, \"29\": {\"O\": 1}, \"30\": {\"O\": 1}, \"31\": {\"O\": 1}, \"32\": {\"O\": 1}, \"33\": {\"O\": 1}, \"34\": {\"O\": 1}, \"35\": {\"O\": 1}, \"36\": {\"O\": 1}, \"37\": {\"O\": 1}, \"38\": {\"O\": 1}, \"39\": {\"O\": 1}}" n_minim_iter=2 energy=-45150.214195955654 stress="0.012048700991856764 -2.0332016951300435e-13 8.020049113674552e-14 -2.0332016951300435e-13 0.012147189508755974 -3.549452223990684e-13 8.020049113674552e-14 -3.549452223990684e-13 0.012507068314777993" free_energy=-45150.214195955654 pbc="T T T"
In       2.80990202       4.64767347       9.30549148        0      -0.00225414      -0.05442720      -0.01568731
In      -0.00633560       4.07052980       6.99619057        1      -0.00225414       0.05442720       0.01568731
In       2.82257322       1.74160571      15.14703160        2       0.00225414      -0.05442720       0.01568731
In       5.63881084       1.16446204       1.15465045        3       0.00225414       0.05442720      -0.01568731
In       2.82257322       1.16446204       6.99619057        4       0.00225414       0.05442720       0.01568731
In       5.63881084       1.74160571       9.30549148        5       0.00225414      -0.05442720      -0.01568731
In       2.80990202       4.07052980       1.15465045        6      -0.00225414       0.05442720      -0.01568731
In      -0.00633560       4.64767347      15.14703160        7      -0.00225414      -0.05442720       0.01568731
In       2.79978855       4.34614401      13.34095391        8      -0.02317617       0.02399273      -0.04752587
In       5.61602618       4.37205926       2.96072815        9      -0.02317617      -0.02399273       0.04752587
In       2.83268669       1.44007625      11.11156917       10       0.02317617       0.02399273       0.04752587
In       0.01644907       1.46599150       5.19011288       11       0.02317617      -0.02399273      -0.04752587
In       2.83268669       1.46599150       2.96072815       12       0.02317617      -0.02399273       0.04752587
In       0.01644907       1.44007625      13.34095391       13       0.02317617       0.02399273      -0.04752587
In       2.79978855       4.37205926       5.19011288       14      -0.02317617      -0.02399273      -0.04752587
In       5.61602618       4.34614401      11.11156917       15      -0.02317617       0.02399273       0.04752587
O        4.83798961       5.12495862      13.01076279       16       0.00878434      -0.03871218      -0.02164920
O        2.02175198       3.59324465       3.29091927       17       0.00878434       0.03871218       0.02164920
O        0.79448564       2.21889086      11.44176030       18      -0.00878434      -0.03871218       0.02164920
O        3.61072326       0.68717689       4.85992176       19      -0.00878434       0.03871218      -0.02164920
O        0.79448564       0.68717689       3.29091927       20      -0.00878434       0.03871218       0.02164920
O        3.61072326       2.21889086      13.01076279       21      -0.00878434      -0.03871218      -0.02164920
O        4.83798961       3.59324465       4.85992176       22       0.00878434       0.03871218      -0.02164920
O        2.02175198       5.12495862      11.44176030       23       0.00878434      -0.03871218       0.02164920
O        3.97873940       3.06812776      10.17686369       24      -0.05225509       0.00679282      -0.01096861
O        1.16250178       5.65007551       6.12481836       25      -0.05225509      -0.00679282       0.01096861
O        1.65373584       0.16206000      14.27565939       26       0.05225509       0.00679282       0.01096861
O        4.46997347       2.74400776       2.02602266       27       0.05225509      -0.00679282      -0.01096861
O        1.65373584       2.74400776       6.12481836       28       0.05225509      -0.00679282       0.01096861
O        4.46997347       0.16206000      10.17686369       29       0.05225509       0.00679282      -0.01096861
O        3.97873940       5.65007551       2.02602266       30      -0.05225509      -0.00679282      -0.01096861
O        1.16250178       3.06812776      14.27565939       31      -0.05225509       0.00679282       0.01096861
O        3.63826478       3.83983472      15.45141552       32       0.03808125       0.03399902       0.05521115
O        0.82202716       4.87836855       0.85026654       33       0.03808125      -0.03399902      -0.05521115
O        1.99421047       0.93376696       9.00110756       34      -0.03808125       0.03399902      -0.05521115
O        4.81044809       1.97230080       7.30057449       35      -0.03808125      -0.03399902       0.05521115
O        1.99421047       1.97230080       0.85026654       36      -0.03808125      -0.03399902      -0.05521115
O        4.81044809       0.93376696      15.45141552       37      -0.03808125       0.03399902       0.05521115
O        3.63826478       4.87836855       7.30057449       38       0.03808125      -0.03399902       0.05521115
O        0.82202716       3.83983472       9.00110756       39       0.03808125       0.03399902      -0.05521115
40
Lattice="5.6429130805549095 -1.3212564171297581e-42 0.0 1.3643649895135033e-42 5.8076389021427275 0.0 0.0 0.0 16.284126795152705" Properties=species:S:1:pos:R:3:spacegroup_kinds:I:1:forces:R:3 spacegroup="P 1" unit_cell=conventional occupancy="_JSON {\"0\": {\"In\": 1}, \"1\": {\"In\": 1}, \"2\": {\"In\": 1}, \"3\": {\"In\": 1}, \"4\": {\"In\": 1}, \"5\": {\"In\": 1}, \"6\": {\"In\": 1}, \"7\": {\"In\": 1}, \"8\": {\"In\": 1}, \"9\": {\"In\": 1}, \"10\": {\"In\": 1}, \"11\": {\"In\": 1}, \"12\": {\"In\": 1}, \"13\": {\"In\": 1}, \"14\": {\"In\": 1}, \"15\": {\"In\": 1}, \"16\": {\"O\": 1}, \"17\": {\"O\": 1}, \"18\": {\"O\": 1}, \"19\": {\"O\": 1}, \"20\": {\"O\": 1}, \"21\": {\"O\": 1}, \"22\": {\"O\": 1}, \"23\": {\"O\": 1}, \"24\": {\"O\": 1}, \"25\": {\"O\": 1}, \"26\": {\"O\": 1}, \"27\": {\"O\": 1}, \"28\": {\"O\": 1}, \"29\": {\"O\": 1}, \"30\": {\"O\": 1}, \"31\": {\"O\": 1}, \"32\": {\"O\": 1}, \"33\": {\"O\": 1}, \"34\": {\"O\": 1}, \"35\": {\"O\": 1}, \"36\": {\"O\": 1}, \"37\": {\"O\": 1}, \"38\": {\"O\": 1}, \"39\": {\"O\": 1}}" n_minim_iter=3 energy=-45150.215422894165 stress="0.013203725568527025 -1.3621915867413695e-14 5.780316597704614e-14 -1.3621915867413695e-14 0.011588222254853958 -3.208420118728696e-13 5.780316597704614e-14 -3.208420118728696e-13 0.011247374643671051" free_energy=-45150.215422894165 pbc="T T T"
In       2.81507108       4.64320737       9.29524301        0      -0.01658036      -0.05030615      -0.01376125
In      -0.00638546       4.06825098       6.98888379        1      -0.01658036       0.05030615       0.01376125
In       2.82784200       1.73938792      15.13094718        2       0.01658036      -0.05030615       0.01376125
In       5.64929854       1.16443153       1.15317961        3       0.01658036       0.05030615      -0.01376125
In       2.82784200       1.16443153       6.98888379        4       0.01658036       0.05030615       0.01376125
In       5.64929854       1.73938792       9.29524301        5       0.01658036      -0.05030615      -0.01376125
In       2.81507108       4.06825098       1.15317961        6      -0.01658036       0.05030615      -0.01376125
In      -0.00638546       4.64320737      15.13094718        7      -0.01658036      -0.05030615       0.01376125
In       2.80460215       4.34315510      13.32583224        8      -0.00733890       0.01850051      -0.03430137
In       5.62605869       4.36830325       2.95829455        9      -0.00733890      -0.01850051       0.03430137
In       2.83831093       1.43933565      11.10035795       10       0.00733890       0.01850051       0.03430137
In       0.01685439       1.46448380       5.18376884       11       0.00733890      -0.01850051      -0.03430137
In       2.83831093       1.46448380       2.95829455       12       0.00733890      -0.01850051       0.03430137
In       0.01685439       1.43933565      13.32583224       13       0.00733890       0.01850051      -0.03430137
In       2.80460215       4.36830325       5.18376884       14      -0.00733890      -0.01850051      -0.03430137
In       5.62605869       4.34315510      11.10035795       15      -0.00733890       0.01850051       0.03430137
O        4.84708592       5.12037285      12.99640943       16       0.00382088      -0.03401842      -0.00754777
O        2.02562938       3.59108550       3.28771737       17       0.00382088       0.03401842       0.00754777
O        0.79582716       2.21655340      11.42978077       18      -0.00382088      -0.03401842       0.00754777
O        3.61728370       0.68726605       4.85434603       19      -0.00382088       0.03401842      -0.00754777
O        0.79582716       0.68726605       3.28771737       20      -0.00382088       0.03401842       0.00754777
O        3.61728370       2.21655340      12.99640943       21      -0.00382088      -0.03401842      -0.00754777
O        4.84708592       3.59108550       4.85434603       22       0.00382088       0.03401842      -0.00754777
O        2.02562938       5.12037285      11.42978077       23       0.00382088      -0.03401842       0.00754777
O        3.98525005       3.06587635      10.16571819       24      -0.03957938       0.00400764      -0.00592095
O        1.16379351       5.64558201       6.11840860       25      -0.03957938      -0.00400764       0.00592095
O        1.65766303       0.16205689      14.26047200       26       0.03957938       0.00400764       0.00592095
O        4.47911957       2.74176256       2.02365480       27       0.03957938      -0.00400764      -0.00592095
O        1.65766303       2.74176256       6.11840860       28       0.03957938      -0.00400764       0.00592095
O        4.47911957       0.16205689      10.16571819       29       0.03957938       0.00400764      -0.00592095
O        3.98525005       5.64558201       2.02365480       30      -0.03957938      -0.00400764      -0.00592095
O        1.16379351       3.06587635      14.26047200       31      -0.03957938       0.00400764       0.00592095
O        3.64563564       3.83740166      15.43566596       32       0.03679025       0.03211709       0.03630909
O        0.82417910       4.87405669       0.84846083       33       0.03679025      -0.03211709      -0.03630909
O        1.99727744       0.93358221       8.99052423       34      -0.03679025       0.03211709      -0.03630909
O        4.81873398       1.97023724       7.29360256       35      -0.03679025      -0.03211709       0.03630909
O        1.99727744       1.97023724       0.84846083       36      -0.03679025      -0.03211709      -0.03630909
O        4.81873398       0.93358221      15.43566596       37      -0.03679025       0.03211709       0.03630909
O        3.64563564       4.87405669       7.29360256       38       0.03679025      -0.03211709       0.03630909
O        0.82417910       3.83740166       8.99052423       39       0.03679025       0.03211709      -0.03630909
40
Lattice="5.632971737370842 -1.3218918388389818e-42 0.0 1.3636100625655745e-42 5.809042993871021 0.0 0.0 0.0 16.308922867182506" Properties=species:S:1:pos:R:3:spacegroup_kinds:I:1:forces:R:3 spacegroup="P 1" unit_cell=conventional occupancy="_JSON {\"0\": {\"In\": 1}, \"1\": {\"In\": 1}, \"2\": {\"In\": 1}, \"3\": {\"In\": 1}, \"4\": {\"In\": 1}, \"5\": {\"In\": 1}, \"6\": {\"In\": 1}, \"7\": {\"In\": 1}, \"8\": {\"In\": 1}, \"9\": {\"In\": 1}, \"10\": {\"In\": 1}, \"11\": {\"In\": 1}, \"12\": {\"In\": 1}, \"13\": {\"In\": 1}, \"14\": {\"In\": 1}, \"15\": {\"In\": 1}, \"16\": {\"O\": 1}, \"17\": {\"O\": 1}, \"18\": {\"O\": 1}, \"19\": {\"O\": 1}, \"20\": {\"O\": 1}, \"21\": {\"O\": 1}, \"22\": {\"O\": 1}, \"23\": {\"O\": 1}, \"24\": {\"O\": 1}, \"25\": {\"O\": 1}, \"26\": {\"O\": 1}, \"27\": {\"O\": 1}, \"28\": {\"O\": 1}, \"29\": {\"O\": 1}, \"30\": {\"O\": 1}, \"31\": {\"O\": 1}, \"32\": {\"O\": 1}, \"33\": {\"O\": 1}, \"34\": {\"O\": 1}, \"35\": {\"O\": 1}, \"36\": {\"O\": 1}, \"37\": {\"O\": 1}, \"38\": {\"O\": 1}, \"39\": {\"O\": 1}}" n_minim_iter=4 energy=-45150.218191133696 stress="0.010828685451282388 2.726875469400326e-13 -1.5331281362941846e-13 2.726875469400326e-13 0.01138743762561092 6.501002033238609e-14 -1.5331281362941846e-13 6.501002033238609e-14 0.011715367680378041" free_energy=-45150.218191133696 pbc="T T T"
In       2.80973446       4.64030033       9.30833207        0      -0.00503099       0.03189209      -0.01989928
In      -0.00675141       4.07326416       7.00059080        1      -0.00503099      -0.03189209       0.01989928
In       2.82323728       1.73577883      15.15505223        2       0.00503099       0.03189209       0.01989928
In       5.63972315       1.16874267       1.15387063        3       0.00503099      -0.03189209      -0.01989928
In       2.82323728       1.16874267       7.00059080        4       0.00503099      -0.03189209       0.01989928
In       5.63972315       1.73577883       9.30833207        5       0.00503099       0.03189209      -0.01989928
In       2.80973446       4.07326416       1.15387063        6      -0.00503099      -0.03189209      -0.01989928
In      -0.00675141       4.64030033      15.15505223        7      -0.00503099       0.03189209       0.01989928
In       2.79812598       4.34589202      13.34274998        8      -0.00051016      -0.02555287       0.01496620
In       5.61461184       4.36767247       2.96617289        9      -0.00051016       0.02555287      -0.01496620
In       2.83484576       1.44137053      11.12063432       10       0.00051016      -0.02555287      -0.01496620
In       0.01835989       1.46315097       5.18828855       11       0.00051016       0.02555287       0.01496620
In       2.83484576       1.46315097       2.96617289       12       0.00051016       0.02555287      -0.01496620
In       0.01835989       1.44137053      13.34274998       13       0.00051016      -0.02555287       0.01496620
In       2.79812598       4.36767247       5.18828855       14      -0.00051016       0.02555287       0.01496620
In       5.61461184       4.34589202      11.12063432       15      -0.00051016      -0.02555287      -0.01496620
O        4.83910021       5.11876251      13.01478183       16       0.00499106      -0.00470567       0.02198302
O        2.02261434       3.59480198       3.29414104       17       0.00499106       0.00470567      -0.02198302
O        0.79387153       2.21424102      11.44860247       18      -0.00499106      -0.00470567      -0.02198302
O        3.61035740       0.69028048       4.86032040       19      -0.00499106       0.00470567       0.02198302
O        0.79387153       0.69028048       3.29414104       20      -0.00499106       0.00470567      -0.02198302
O        3.61035740       2.21424102      13.01478183       21      -0.00499106      -0.00470567       0.02198302
O        4.83910021       3.59480198       4.86032040       22       0.00499106       0.00470567       0.02198302
O        2.02261434       5.11876251      11.44860247       23       0.00499106      -0.00470567      -0.02198302
O        3.97438006       3.06714089      10.18040188       24       0.02052079      -0.01970569       0.01474640
O        1.15789419       5.64642360       6.12852099       25       0.02052079       0.01970569      -0.01474640
O        1.65859168       0.16261939      14.28298242       26      -0.02052079      -0.01970569      -0.01474640
O        4.47507754       2.74190211       2.02594045       27      -0.02052079       0.01970569       0.01474640
O        1.65859168       2.74190211       6.12852099       28      -0.02052079       0.01970569      -0.01474640
O        4.47507754       0.16261939      10.18040188       29      -0.02052079      -0.01970569       0.01474640
O        3.97438006       5.64642360       2.02594045       30       0.02052079       0.01970569       0.01474640
O        1.15789419       3.06714089      14.28298242       31       0.02052079      -0.01970569      -0.01474640
O        3.64212896       3.84083326      15.46309004       32      -0.01668944      -0.01460789      -0.00382923
O        0.82564309       4.87273123       0.84583283       33      -0.01668944       0.01460789       0.00382923
O        1.99084278       0.93631177       9.00029426       34       0.01668944      -0.01460789       0.00382923
O        4.80732865       1.96820973       7.30862861       35       0.01668944       0.01460789      -0.00382923
O        1.99084278       1.96820973       0.84583283       36       0.01668944       0.01460789       0.00382923
O        4.80732865       0.93631177      15.46309004       37       0.01668944      -0.01460789      -0.00382923
O        3.64212896       4.87273123       7.30862861       38      -0.01668944       0.01460789      -0.00382923
O        0.82564309       3.84083326       9.00029426       39      -0.01668944      -0.01460789       0.00382923
40
Lattice="5.635718111540951 -1.36881553683426e-42 0.0 1.3475855262556546e-42 5.809072364783341 0.0 0.0 0.0 16.30089285387411" Properties=species:S:1:pos:R:3:spacegroup_kinds:I:1:forces:R:3 spacegroup="P 1" unit_cell=conventional occupancy="_JSON {\"0\": {\"In\": 1}, \"1\": {\"In\": 1}, \"2\": {\"In\": 1}, \"3\": {\"In\": 1}, \"4\": {\"In\": 1}, \"5\": {\"In\": 1}, \"6\": {\"In\": 1}, \"7\": {\"In\": 1}, \"8\": {\"In\": 1}, \"9\": {\"In\": 1}, \"10\": {\"In\": 1}, \"11\": {\"In\": 1}, \"12\": {\"In\": 1}, \"13\": {\"In\": 1}, \"14\": {\"In\": 1}, \"15\": {\"In\": 1}, \"16\": {\"O\": 1}, \"17\": {\"O\": 1}, \"18\": {\"O\": 1}, \"19\": {\"O\": 1}, \"20\": {\"O\": 1}, \"21\": {\"O\": 1}, \"22\": {\"O\": 1}, \"23\": {\"O\": 1}, \"24\": {\"O\": 1}, \"25\": {\"O\": 1}, \"26\": {\"O\": 1}, \"27\": {\"O\": 1}, \"28\": {\"O\": 1}, \"29\": {\"O\": 1}, \"30\": {\"O\": 1}, \"31\": {\"O\": 1}, \"32\": {\"O\": 1}, \"33\": {\"O\": 1}, \"34\": {\"O\": 1}, \"35\": {\"O\": 1}, \"36\": {\"O\": 1}, \"37\": {\"O\": 1}, \"38\": {\"O\": 1}, \"39\": {\"O\": 1}}" n_minim_iter=5 energy=-45150.21894293559 stress="0.011531408588379342 1.4309772897622582e-13 -1.7564107015433996e-14 1.4309772897622582e-13 0.011539205885295192 -3.21614873252989e-14 -1.7564107015433996e-14 -3.21614873252989e-14 0.011535756578105138" free_energy=-45150.21894293559 pbc="T T T"
In       2.81109113       4.64158217       9.30380270        0      -0.00624872       0.00514748      -0.01355725
In      -0.00676793       4.07202638       6.99709015        1      -0.00624872      -0.00514748       0.01355725
In       2.82462698       1.73704599      15.14753658        2       0.00624872       0.00514748       0.01355725
In       5.64248604       1.16749019       1.15335628        3       0.00624872      -0.00514748      -0.01355725
In       2.82462698       1.16749019       6.99709015        4       0.00624872      -0.00514748       0.01355725
In       5.64248604       1.73704599       9.30380270        5       0.00624872       0.00514748      -0.01355725
In       2.81109113       4.07202638       1.15335628        6      -0.00624872      -0.00514748      -0.01355725
In      -0.00676793       4.64158217      15.14753658        7      -0.00624872       0.00514748       0.01355725
In       2.79989251       4.34525185      13.33715291        8      -0.00219216      -0.01273565       0.00001244
In       5.61775157       4.36835670       2.96373994        9      -0.00219216       0.01273565      -0.00001244
In       2.83582560       1.44071566      11.11418637       10       0.00219216      -0.01273565      -0.00001244
In       0.01796654       1.46382052       5.18670649       11       0.00219216       0.01273565       0.00001244
In       2.83582560       1.46382052       2.96373994       12       0.00219216       0.01273565      -0.00001244
In       0.01796654       1.44071566      13.33715291       13       0.00219216      -0.01273565       0.00001244
In       2.79989251       4.36835670       5.18670649       14      -0.00219216       0.01273565       0.00001244
In       5.61775157       4.34525185      11.11418637       15      -0.00219216      -0.01273565      -0.00001244
O        4.84136420       5.11941236      13.00896972       16       0.00373493      -0.01312177       0.01322542
O        2.02350515       3.59419619       3.29192313       17       0.00373493       0.01312177      -0.01322542
O        0.79435391       2.21487618      11.44236956       18      -0.00373493      -0.01312177      -0.01322542
O        3.61221296       0.68966001       4.85852330       19      -0.00373493       0.01312177       0.01322542
O        0.79435391       0.68966001       3.29192313       20      -0.00373493       0.01312177      -0.01322542
O        3.61221296       2.21487618      13.00896972       21      -0.00373493      -0.01312177       0.01322542
O        4.84136420       3.59419619       4.85852330       22       0.00373493       0.01312177       0.01322542
O        2.02350515       5.11941236      11.44236956       23       0.00373493      -0.01312177      -0.01322542
O        3.97745060       3.06683158      10.17573702       24       0.00158855      -0.01040662       0.00654008
O        1.15959154       5.64677696       6.12515584       25       0.00158855       0.01040662      -0.00654008
O        1.65826752       0.16229540      14.27560226       26      -0.00158855      -0.01040662      -0.00654008
O        4.47612657       2.74224078       2.02529059       27      -0.00158855       0.01040662       0.00654008
O        1.65826752       2.74224078       6.12515584       28      -0.00158855       0.01040662      -0.00654008
O        4.47612657       0.16229540      10.17573702       29      -0.00158855      -0.01040662       0.00654008
O        3.97745060       5.64677696       2.02529059       30       0.00158855       0.01040662       0.00654008
O        1.15959154       3.06683158      14.27560226       31       0.00158855      -0.01040662      -0.00654008
O        3.64306356       3.84012439      15.45447199       32      -0.00076915      -0.00136750       0.00628277
O        0.82520450       4.87348416       0.84642086       33      -0.00076915       0.00136750      -0.00628277
O        1.99265455       0.93558821       8.99686729       34       0.00076915      -0.00136750      -0.00628277
O        4.81051361       1.96894798       7.30402556       35       0.00076915       0.00136750       0.00628277
O        1.99265455       1.96894798       0.84642086       36       0.00076915       0.00136750      -0.00628277
O        4.81051361       0.93558821      15.45447199       37       0.00076915      -0.00136750       0.00628277
O        3.64306356       4.87348416       7.30402556       38      -0.00076915       0.00136750       0.00628277
O        0.82520450       3.84012439       8.99686729       39      -0.00076915      -0.00136750      -0.00628277
40