40
Lattice="5.863081424595623 -4.472695156082895e-43 0.0 4.631911766829798e-43 6.071792262330156 0.0 0.0 0.0 17.18456776552159" Properties=species:S:1:pos:R:3:spacegroup_kinds:I:1:forces:R:3 spacegroup="P 1" unit_cell=conventional occupancy="_JSON {\"0\": {\"In\": 1}, \"1\": {\"In\": 1}, \"2\": {\"In\": 1}, \"3\": {\"In\": 1}, \"4\": {\"In\": 1}, \"5\": {\"In\": 1}, \"6\": {\"In\": 1}, \"7\": {\"In\": 1}, \"8\": {\"In\": 1}, \"9\": {\"In\": 1}, \"10\": {\"In\": 1}, \"11\": {\"In\": 1}, \"12\": {\"In\": 1}, \"13\": {\"In\": 1}, \"14\": {\"In\": 1}, \"15\": {\"In\": 1}, \"16\": {\"O\": 1}, \"17\": {\"O\": 1}, \"18\": {\"O\": 1}, \"19\": {\"O\": 1}, \"20\": {\"O\": 1}, \"21\": {\"O\": 1}, \"22\": {\"O\": 1}, \"23\": {\"O\": 1}, \"24\": {\"O\": 1}, \"25\": {\"O\": 1}, \"26\": {\"O\": 1}, \"27\": {\"O\": 1}, \"28\": {\"O\": 1}, \"29\": {\"O\": 1}, \"30\": {\"O\": 1}, \"31\": {\"O\": 1}, \"32\": {\"O\": 1}, \"33\": {\"O\": 1}, \"34\": {\"O\": 1}, \"35\": {\"O\": 1}, \"36\": {\"O\": 1}, \"37\": {\"O\": 1}, \"38\": {\"O\": 1}, \"39\": {\"O\": 1}}" n_minim_iter=1 energy=-45147.20116582144 stress="0.06649875991436728 2.672955501949944e-14 -1.5930314995682977e-15 2.672955501949944e-14 0.06304818564752249 2.5504383493686544e-13 -1.5930314995682977e-15 2.5504383493686544e-13 0.06394645363153716" free_energy=-45147.20116582144 pbc="T T T"
In       2.75438938       5.03167283       9.92921785        0      -0.04875688       0.06831017       0.03967654
In      -0.17715133       4.07601557       7.25534992        1      -0.04875688      -0.06831017      -0.03967654
In       3.10869205       1.99577670      15.84763380        2       0.04875688       0.06831017      -0.03967654
In       6.04023276       1.04011943       1.33693397        3       0.04875688      -0.06831017       0.03967654
In       3.10869205       1.04011943       7.25534992        4       0.04875688      -0.06831017      -0.03967654
In       6.04023276       1.99577670       9.92921785        5       0.04875688       0.06831017       0.03967654
In       2.75438938       4.07601557       1.33693397        6      -0.04875688      -0.06831017       0.03967654
In      -0.17715133       5.03167283      15.84763380        7      -0.04875688       0.06831017      -0.03967654
In       2.75074013       4.68737217      13.96457410        8      -0.05545033       0.02119932       0.02503367
In       5.68228084       4.42031623       3.21999366        9      -0.05545033      -0.02119932      -0.02503367
In       3.11234129       1.65147604      11.81227755       10       0.05545033       0.02119932      -0.02503367
In       0.18080058       1.38442010       5.37229022       11       0.05545033      -0.02119932       0.02503367
In       3.11234129       1.38442010       3.21999366       12       0.05545033      -0.02119932      -0.02503367
In       0.18080058       1.65147604      13.96457410       13       0.05545033       0.02119932       0.02503367
In       2.75074013       4.42031623       5.37229022       14      -0.05545033      -0.02119932       0.02503367
In       5.68228084       4.68737217      11.81227755       15      -0.05545033       0.02119932      -0.02503367
O        4.90530557       5.50893884      13.72923578       16      -0.00253618      -0.04038372       0.04976378
O        1.97376486       3.59874955       3.45533198       17      -0.00253618       0.04038372      -0.04976378
O        0.95777585       2.47304271      12.04761586       18       0.00253618      -0.04038372      -0.04976378
O        3.88931656       0.56285342       5.13695190       19       0.00253618       0.04038373       0.04976378
O        0.95777585       0.56285342       3.45533198       20       0.00253618       0.04038372      -0.04976378
O        3.88931656       2.47304271      13.72923578       21       0.00253618      -0.04038372       0.04976378
O        4.90530557       3.59874955       5.13695190       22      -0.00253618       0.04038372       0.04976378
O        1.97376486       5.50893884      12.04761586       23      -0.00253618      -0.04038372      -0.04976378
O        4.10003757       3.40302133      10.82910878       24       0.03587891       0.04450285       0.04313527
O        1.16849685       5.70466706       6.35545899       25       0.03587891      -0.04450285      -0.04313527
O        1.76304386       0.36712520      14.94774287       26      -0.03587891       0.04450285      -0.04313527
O        4.69458457       2.66877093       2.23682490       27      -0.03587891      -0.04450285       0.04313527
O        1.76304386       2.66877093       6.35545899       28      -0.03587891      -0.04450285      -0.04313527
O        4.69458457       0.36712520      10.82910878       29      -0.03587891       0.04450285       0.04313527
O        4.10003757       5.70466706       2.23682490       30       0.03587891      -0.04450285       0.04313527
O        1.16849685       3.40302133      14.94774287       31       0.03587891       0.04450285      -0.04313527
O        3.71790235       4.11761392      16.33487244       32       0.00114389      -0.07802105      -0.00263902
O        0.78636164       4.99007447       0.84969532       33       0.00114389       0.07802105       0.00263902
O        2.14517908       1.08171779       9.44197920       34      -0.00114389      -0.07802105       0.00263902
O        5.07671979       1.95417834       7.74258856       35      -0.00114389       0.07802105      -0.00263902
O        2.14517908       1.95417834       0.84969532       36      -0.00114389       0.07802105       0.00263902
O        5.07671979       1.08171779      16.33487244       37      -0.00114389      -0.07802105      -0.00263902
O        3.71790235       4.99007447       7.74258856       38       0.00114389       0.07802105      -0.00263902
O        0.78636164       4.11761392       9.44197920       39       0.00114389      -0.07802105       0.00263902
40
Lattice="5.848533778759189 -4.468701916137515e-43 0.0 4.6326946064344266e-43 6.082730009433565 0.0 0.0 0.0 17.19633513171887" Properties=species:S:1:pos:R:3:spacegroup_kinds:I:1:forces:R:3 spacegroup="P 1" unit_cell=conventional occupancy="_JSON {\"0\": {\"In\": 1}, \"1\": {\"In\": 1}, \"2\": {\"In\": 1}, \"3\": {\"In\": 1}, \"4\": {\"In\": 1}, \"5\": {\"In\": 1}, \"6\": {\"In\": 1}, \"7\": {\"In\": 1}, \"8\": {\"In\": 1}, \"9\": {\"In\": 1}, \"10\": {\"In\": 1}, \"11\": {\"In\": 1}, \"12\": {\"In\": 1}, \"13\": {\"In\": 1}, \"14\": {\"In\": 1}, \"15\": {\"In\": 1}, \"16\": {\"O\": 1}, \"17\": {\"O\": 1}, \"18\": {\"O\": 1}, \"19\": {\"O\": 1}, \"20\": {\"O\": 1}, \"21\": {\"O\": 1}, \"22\": {\"O\": 1}, \"23\": {\"O\": 1}, \"24\": {\"O\": 1}, \"25\": {\"O\": 1}, \"26\": {\"O\": 1}, \"27\": {\"O\": 1}, \"28\": {\"O\": 1}, \"29\": {\"O\": 1}, \"30\": {\"O\": 1}, \"31\": {\"O\": 1}, \"32\": {\"O\": 1}, \"33\": {\"O\": 1}, \"34\": {\"O\": 1}, \"35\": {\"O\": 1}, \"36\": {\"O\": 1}, \"37\": {\"O\": 1}, \"38\": {\"O\": 1}, \"39\": {\"O\": 1}}" n_minim_iter=2 energy=-45147.20381945305 stress="0.06379497497877774 7.775610704753757e-14 -1.9031640442650979e-13 7.775610704753757e-14 0.06407215044697975 -1.9449602509279852e-13 -1.9031640442650979e-13 -1.9449602509279852e-13 0.06421092778750474" free_energy=-45147.20381945305 pbc="T T T"
In       2.74745640       5.04087578       9.93609759        0      -0.03499762       0.08736330       0.03116696
In      -0.17681049       4.08321923       7.26023754        1      -0.03499762      -0.08736330      -0.03116696
In       3.10107738       1.99951078      15.85840510        2       0.03499762       0.08736330      -0.03116696
In       6.02534427       1.04185422       1.33793003        3       0.03499762      -0.08736330       0.03116696
In       3.10107738       1.04185422       7.26023754        4       0.03499762      -0.08736330      -0.03116696
In       6.02534427       1.99951078       9.93609759        5       0.03499762       0.08736330       0.03116696
In       2.74745640       4.08321923       1.33793003        6      -0.03499762      -0.08736330       0.03116696
In      -0.17681049       5.04087578      15.85840510        7      -0.03499762       0.08736330      -0.03116696
In       2.74380266       4.69585912      13.97418737        8      -0.05721162       0.02036890       0.02756868
In       5.66806955       4.42823590       3.22214776        9      -0.05721162      -0.02036890      -0.02756868
In       3.10473112       1.65449411      11.82031532       10       0.05721162       0.02036890      -0.02756868
In       0.18046423       1.38687089       5.37601981       11       0.05721162      -0.02036890       0.02756868
In       3.10473112       1.38687089       3.22214776       12       0.05721162      -0.02036890      -0.02756868
In       0.18046423       1.65449411      13.97418737       13       0.05721162       0.02036890       0.02756868
In       2.74380266       4.42823590       5.37601981       14      -0.05721162      -0.02036890       0.02756868
In       5.66806955       4.69585912      11.82031532       15      -0.05721162       0.02036890      -0.02756868
O        4.89312926       5.51878056      13.73873813       16      -0.00547078      -0.04159480       0.04385752
O        1.96886237       3.60531446       3.45759700       17      -0.00547078       0.04159480      -0.04385752
O        0.95540452       2.47741555      12.05576457       18       0.00547078      -0.04159480      -0.04385752
O        3.87967141       0.56394945       5.14057056       19       0.00547078       0.04159480       0.04385752
O        0.95540452       0.56394945       3.45759700       20       0.00547078       0.04159480      -0.04385752
O        3.87967141       2.47741555      13.73873813       21       0.00547078      -0.04159480       0.04385752
O        4.89312926       3.60531446       5.14057056       22      -0.00547078       0.04159480       0.04385752
O        1.96886237       5.51878056      12.05576457       23      -0.00547078      -0.04159480      -0.04385752
O        4.08993707       3.40924202      10.83661176       24       0.03117141       0.03857013       0.05455542
O        1.16567018       5.71485299       6.35972337       25       0.03117141      -0.03857013      -0.05455542
O        1.75859671       0.36787702      14.95789094       26      -0.03117141       0.03857013      -0.05455542
O        4.68286360       2.67348799       2.23844419       27      -0.03117141      -0.03857013       0.05455542
O        1.75859671       2.67348799       6.35972337       28      -0.03117141      -0.03857013      -0.05455542
O        4.68286360       0.36787702      10.83661176       29      -0.03117141       0.03857013       0.05455542
O        4.08993707       5.71485299       2.23844419       30       0.03117141      -0.03857013       0.05455542
O        1.16567018       3.40924202      14.95789094       31       0.03117141       0.03857013      -0.05455542
O        3.70867970       4.12487278      16.34605261       32      -0.00290757      -0.09160901       0.00387203
O        0.78441281       4.99922224       0.85028252       33      -0.00290757       0.09160901      -0.00387203
O        2.13985408       1.08350777       9.44845009       34       0.00290757      -0.09160901      -0.00387203
O        5.06412097       1.95785723       7.74788505       35       0.00290757       0.09160901       0.00387203
O        2.13985408       1.95785723       0.85028252       36       0.00290757       0.09160901      -0.00387203
O        5.06412097       1.08350777      16.34605261       37       0.00290757      -0.09160901       0.00387203
O        3.70867970       4.99922224       7.74788505       38      -0.00290757       0.09160901       0.00387203
O        0.78441281       4.12487278       9.44845009       39      -0.00290757      -0.09160901      -0.00387203
40
Lattice="5.850452158012073 -4.544616569218022e-43 0.0 4.801635988380787e-43 6.104249757409301 0.0 0.0 0.0 17.130092815668878" Properties=species:S:1:pos:R:3:spacegroup_kinds:I:1:forces:R:3 spacegroup="P 1" unit_cell=conventional occupancy="_JSON {\"0\": {\"In\": 1}, \"1\": {\"In\": 1}, \"2\": {\"In\": 1}, \"3\": {\"In\": 1}, \"4\": {\"In\": 1}, \"5\": {\"In\": 1}, \"6\": {\"In\": 1}, \"7\": {\"In\": 1}, \"8\": {\"In\": 1}, \"9\": {\"In\": 1}, \"10\": {\"In\": 1}, \"11\": {\"In\": 1}, \"12\": {\"In\": 1}, \"13\": {\"In\": 1}, \"14\": {\"In\": 1}, \"15\": {\"In\": 1}, \"16\": {\"O\": 1}, \"17\": {\"O\": 1}, \"18\": {\"O\": 1}, \"19\": {\"O\": 1}, \"20\": {\"O\": 1}, \"21\": {\"O\": 1}, \"22\": {\"O\": 1}, \"23\": {\"O\": 1}, \"24\": {\"O\": 1}, \"25\": {\"O\": 1}, \"26\": {\"O\": 1}, \"27\": {\"O\": 1}, \"28\": {\"O\": 1}, \"29\": {\"O\": 1}, \"30\": {\"O\": 1}, \"31\": {\"O\": 1}, \"32\": {\"O\": 1}, \"33\": {\"O\": 1}, \"34\": {\"O\": 1}, \"35\": {\"O\": 1}, \"36\": {\"O\": 1}, \"37\": {\"O\": 1}, \"38\": {\"O\": 1}, \"39\": {\"O\": 1}}" n_minim_iter=3 energy=-45147.21114244882 stress="0.0633655147532841 -2.5557829355685074e-15 1.7548856912955203e-13 -2.5557829355685074e-15 0.06470628676091385 -4.460458254590118e-13 1.7548856912955203e-13 -4.460458254590118e-13 0.060537828285532086" free_energy=-45147.21114244882 pbc="T T T"
In       2.74631501       5.06356529       9.89962384        0      -0.04406179       0.03791938       0.02324942
In      -0.17891107       4.09280935       7.23046898        1      -0.04406179      -0.03791938      -0.02324942
In       3.10413715       2.01144041      15.79551538        2       0.04406179       0.03791938      -0.02324942
In       6.02936323       1.04068447       1.33457743        3       0.04406179      -0.03791938       0.02324942
In       3.10413715       1.04068447       7.23046898        4       0.04406179      -0.03791938      -0.02324942
In       6.02936323       2.01144041       9.89962384        5       0.04406179       0.03791938       0.02324942
In       2.74631501       4.09280935       1.33457743        6      -0.04406179      -0.03791938       0.02324942
In      -0.17891107       5.06356529      15.79551538        7      -0.04406179       0.03791938      -0.02324942
In       2.74149909       4.71363412      13.92189430        8      -0.03984073       0.02205945       0.01119038
In       5.66672517       4.44274051       3.20819852        9      -0.03984073      -0.02205945      -0.01119038
In       3.10895307       1.66150924      11.77324493       10       0.03984073       0.02205945      -0.01119038
In       0.18372699       1.39061564       5.35684789       11       0.03984073      -0.02205945       0.01119038
In       3.10895307       1.39061564       3.20819852       12       0.03984073      -0.02205945      -0.01119038
In       0.18372699       1.66150924      13.92189430       13       0.03984073       0.02205945       0.01119038
In       2.74149909       4.44274051       5.35684789       14      -0.03984073      -0.02205945       0.01119038
In       5.66672517       4.71363412      11.77324493       15      -0.03984073       0.02205945      -0.01119038
O        4.89444337       5.53594904      13.68831572       16      -0.03910929      -0.03724667       0.03283121
O        1.96921729       3.62042560       3.44177709       17      -0.03910929       0.03724667      -0.03283121
O        0.95600879       2.48382416      12.00682350       18       0.03910929      -0.03724667      -0.03283121
O        3.88123487       0.56830072       5.12326932       19       0.03910929       0.03724667       0.03283121
O        0.95600879       0.56830072       3.44177709       20       0.03910929       0.03724667      -0.03283121
O        3.88123487       2.48382416      13.68831572       21       0.03910929      -0.03724667       0.03283121
O        4.89444337       3.62042560       5.12326932       22      -0.03910929       0.03724667       0.03283121
O        1.96921729       5.53594904      12.00682350       23      -0.03910929      -0.03724667      -0.03283121
O        4.09305572       3.42352788      10.79787395       24       0.00541726       0.04345813       0.02567350
O        1.16782964       5.73284676       6.33221887       25       0.00541726      -0.04345813      -0.02567350
O        1.75739644       0.37140300      14.89726527       26      -0.00541726       0.04345813      -0.02567350
O        4.68262252       2.68072188       2.23282754       27      -0.00541726      -0.04345813       0.02567350
O        1.75739644       2.68072188       6.33221887       28      -0.00541726      -0.04345813      -0.02567350
O        4.68262252       0.37140300      10.79787395       29      -0.00541726       0.04345813       0.02567350
O        4.09305572       5.73284676       2.23282754       30       0.00541726      -0.04345813       0.02567350
O        1.16782964       3.42352788      14.89726527       31       0.00541726       0.04345813      -0.02567350
O        3.70975551       4.13433830      16.28326722       32       0.01236906      -0.06677889       0.01582043
O        0.78452943       5.02203633       0.84682559       33       0.01236906       0.06677889      -0.01582043
O        2.14069665       1.08221342       9.41187200       34      -0.01236906      -0.06677889      -0.01582043
O        5.06592273       1.96991145       7.71822081       35      -0.01236906       0.06677889       0.01582043
O        2.14069665       1.96991145       0.84682559       36      -0.01236906       0.06677889      -0.01582043
O        5.06592273       1.08221342      16.28326722       37      -0.01236906      -0.06677889       0.01582043
O        3.70975551       5.02203633       7.71822081       38       0.01236906       0.06677889       0.01582043
O        0.78452943       4.13433830       9.41187200       39       0.01236906      -0.06677889      -0.01582043
40
Lattice="5.844051122251928 -4.547653173972421e-43 0.0 4.797930274669745e-43 6.095598952706408 0.0 0.0 0.0 17.1731930035609" Properties=species:S:1:pos:R:3:spacegroup_kinds:I:1:forces:R:3 spacegroup="P 1" unit_cell=conventional occupancy="_JSON {\"0\": {\"In\": 1}, \"1\": {\"In\": 1}, \"2\": {\"In\": 1}, \"3\": {\"In\": 1}, \"4\": {\"In\": 1}, \"5\": {\"In\": 1}, \"6\": {\"In\": 1}, \"7\": {\"In\": 1}, \"8\": {\"In\": 1}, \"9\": {\"In\": 1}, \"10\": {\"In\": 1}, \"11\": {\"In\": 1}, \"12\": {\"In\": 1}, \"13\": {\"In\": 1}, \"14\": {\"In\": 1}, \"15\": {\"In\": 1}, \"16\": {\"O\": 1}, \"17\": {\"O\": 1}, \"18\": {\"O\": 1}, \"19\": {\"O\": 1}, \"20\": {\"O\": 1}, \"21\": {\"O\": 1}, \"22\": {\"O\": 1}, \"23\": {\"O\": 1}, \"24\": {\"O\": 1}, \"25\": {\"O\": 1}, \"26\": {\"O\": 1}, \"27\": {\"O\": 1}, \"28\": {\"O\": 1}, \"29\": {\"O\": 1}, \"30\": {\"O\": 1}, \"31\": {\"O\": 1}, \"32\": {\"O\": 1}, \"33\": {\"O\": 1}, \"34\": {\"O\": 1}, \"35\": {\"O\": 1}, \"36\": {\"O\": 1}, \"37\": {\"O\": 1}, \"38\": {\"O\": 1}, \"39\": {\"O\": 1}}" n_minim_iter=4 energy=-45147.22029461079 stress="0.06155410385639126 -3.781131404388018e-13 -3.715363049928739e-14 -3.781131404388018e-13 0.06156433634349091 4.133279746555917e-14 -3.715363049928739e-14 4.133279746555917e-14 0.06145819471546754" free_energy=-45147.22029461079 pbc="T T T"
In       2.74059718       5.06250413       9.92685380        0      -0.03729780      -0.03858003      -0.00172596
In      -0.18142838       4.08089430       7.24633921        1      -0.03729780       0.03858003       0.00172596
In       3.10345394       2.01470465      15.83293571        2       0.03729780      -0.03858003       0.00172596
In       6.02547950       1.03309482       1.34025729        3       0.03729780       0.03858003      -0.00172596
In       3.10345394       1.03309482       7.24633921        4       0.03729780       0.03858003       0.00172596
In       6.02547950       2.01470465       9.92685380        5       0.03729780      -0.03858003      -0.00172596
In       2.74059718       4.08089430       1.34025729        6      -0.03729780       0.03858003      -0.00172596
In      -0.18142838       5.06250413      15.83293571        7      -0.03729780      -0.03858003       0.00172596
In       2.73439144       4.70848346      13.95886060        8      -0.00220345       0.03712716      -0.03907873
In       5.65641700       4.43491497       3.21433241        9      -0.00220345      -0.03712716       0.03907873
In       3.10965968       1.66068399      11.80092891       10       0.00220345       0.03712716       0.03907873
In       0.18763412       1.38711549       5.37226410       11       0.00220345      -0.03712716      -0.03907873
In       3.10965968       1.38711549       3.21433241       12       0.00220345      -0.03712716       0.03907873
In       0.18763412       1.66068399      13.95886060       13       0.00220345       0.03712716      -0.03907873
In       2.73439144       4.43491497       5.37226410       14      -0.00220345      -0.03712716      -0.03907873
In       5.65641700       4.70848346      11.80092891       15      -0.00220345       0.03712716       0.03907873
O        4.88853608       5.52504028      13.72598301       16      -0.04511131      -0.02604934      -0.00347427
O        1.96651052       3.61835814       3.44720999       17      -0.04511131       0.02604934       0.00347427
O        0.95551504       2.47724081      12.03380650       18       0.04511131      -0.02604934       0.00347427
O        3.87754060       0.57055867       5.13938651       19       0.04511131       0.02604934      -0.00347427
O        0.95551504       0.57055867       3.44720999       20       0.04511131       0.02604934       0.00347427
O        3.87754060       2.47724081      13.72598301       21       0.04511131      -0.02604934      -0.00347427
O        4.88853608       3.61835814       5.13938651       22      -0.04511131       0.02604934      -0.00347427
O        1.96651052       5.52504028      12.03380650       23      -0.04511131      -0.02604934       0.00347427
O        4.09077199       3.42161059      10.82885154       24      -0.02334610       0.03210373       0.01313942
O        1.16874643       5.72178784       6.34434146       25      -0.02334610      -0.03210373      -0.01313942
O        1.75327913       0.37381111      14.93093796       26       0.02334610       0.03210373      -0.01313942
O        4.67530469       2.67398836       2.24225504       27       0.02334610      -0.03210373       0.01313942
O        1.75327913       2.67398836       6.34434146       28       0.02334610      -0.03210373      -0.01313942
O        4.67530469       0.37381111      10.82885154       29       0.02334610       0.03210373       0.01313942
O        4.09077199       5.72178784       2.24225504       30      -0.02334610      -0.03210373       0.01313942
O        1.16874643       3.42161059      14.93093796       31      -0.02334610       0.03210373      -0.01313942
O        3.70558737       4.12188520      16.32453913       32       0.03370032       0.00479665       0.02870208
O        0.78356181       5.02151323       0.84865387       33       0.03370032      -0.00479665      -0.02870208
O        2.13846375       1.07408573       9.43525037       34      -0.03370032       0.00479665      -0.02870208
O        5.06048931       1.97371375       7.73794263       35      -0.03370032      -0.00479665       0.02870208
O        2.13846375       1.97371375       0.84865387       36      -0.03370032      -0.00479665      -0.02870208
O        5.06048931       1.07408573      16.32453913       37      -0.03370032       0.00479665       0.02870208
O        3.70558737       5.02151323       7.73794263       38       0.03370032      -0.00479665       0.02870208
O        0.78356181       4.12188520       9.43525037       39       0.03370032       0.00479665      -0.02870208
40
Lattice="5.842920420405567 1.9505260099500433e-43 0.0 -1.6308729002844225e-43 6.092689396128259 0.0 0.0 0.0 17.184718925694767" Properties=species:S:1:pos:R:3:spacegroup_kinds:I:1:forces:R:3 spacegroup="P 1" unit_cell=conventional occupancy="_JSON {\"0\": {\"In\": 1}, \"1\": {\"In\": 1}, \"2\": {\"In\": 1}, \"3\": {\"In\": 1}, \"4\": {\"In\": 1}, \"5\": {\"In\": 1}, \"6\": {\"In\": 1}, \"7\": {\"In\": 1}, \"8\": {\"In\": 1}, \"9\": {\"In\": 1}, \"10\": {\"In\": 1}, \"11\": {\"In\": 1}, \"12\": {\"In\": 1}, \"13\": {\"In\": 1}, \"14\": {\"In\": 1}, \"15\": {\"In\": 1}, \"16\": {\"O\": 1}, \"17\": {\"O\": 1}, \"18\": {\"O\": 1}, \"19\": {\"O\": 1}, \"20\": {\"O\": 1}, \"21\": {\"O\": 1}, \"22\": {\"O\": 1}, \"23\": {\"O\": 1}, \"24\": {\"O\": 1}, \"25\": {\"O\": 1}, \"26\": {\"O\": 1}, \"27\": {\"O\": 1}, \"28\": {\"O\": 1}, \"29\": {\"O\": 1}, \"30\": {\"O\": 1}, \"31\": {\"O\": 1}, \"32\": {\"O\": 1}, \"33\": {\"O\": 1}, \"34\": {\"O\": 1}, \"35\": {\"O\": 1}, \"36\": {\"O\": 1}, \"37\": {\"O\": 1}, \"38\": {\"O\": 1}, \"39\": {\"O\": 1}}" n_minim_iter=5 energy=-45147.228374473736 stress="0.06014120581216903 1.157724481290845e-13 2.401146416383054e-13 1.157724481290845e-13 0.059855978129234044 -1.9927012889131717e-13 2.401146416383054e-13 -1.9927012889131717e-13 0.061656680449582946" free_energy=-45147.228374473736 pbc="T T T"
In       2.73169354       5.05889469       9.93517488        0       0.00278155      -0.01501747      -0.01644065
In      -0.18976667       4.08013940       7.24954405        1       0.00278155       0.01501747       0.01644065
In       3.11122688       2.01254999      15.84190351        2      -0.00278155      -0.01501747       0.01644065
In       6.03268709       1.03379470       1.34281542        3      -0.00278155       0.01501747      -0.01644065
In       3.11122688       1.03379470       7.24954405        4      -0.00278155       0.01501747       0.01644065
In       6.03268709       2.01254999       9.93517488        5      -0.00278155      -0.01501747      -0.01644065
In       2.73169354       4.08013940       1.34281542        6       0.00278155       0.01501747      -0.01644065
In      -0.18976667       5.05889469      15.84190351        7       0.00278155      -0.01501747       0.01644065
In       2.73002189       4.71374261      13.96338062        8       0.00080018      -0.00400738       0.01246381
In       5.65148210       4.42529148       3.22133831        9       0.00080018       0.00400738      -0.01246381
In       3.11289853       1.66739792      11.81369777       10      -0.00080018      -0.00400738      -0.01246381
In       0.19143832       1.37894678       5.37102115       11      -0.00080018       0.00400738       0.01246381
In       3.11289853       1.37894678       3.22133831       12      -0.00080018       0.00400738      -0.01246381
In       0.19143832       1.66739792      13.96338062       13      -0.00080018      -0.00400738       0.01246381
In       2.73002189       4.42529148       5.37102115       14       0.00080018       0.00400738       0.01246381
In       5.65148210       4.71374261      11.81369777       15       0.00080018      -0.00400738      -0.01246381
O        4.87980653       5.51546706      13.73732641       16      -0.03492961       0.02180091       0.00626653
O        1.95834632       3.62356703       3.44739252       17      -0.03492961      -0.02180091      -0.00626653
O        0.96311389       2.46912236      12.03975198       18       0.03492961       0.02180091      -0.00626653
O        3.88457410       0.57722233       5.14496695       19       0.03492961      -0.02180091       0.00626653
O        0.96311389       0.57722233       3.44739252       20       0.03492961      -0.02180091      -0.00626653
O        3.88457410       2.46912236      13.73732641       21       0.03492961       0.02180091       0.00626653
O        4.87980653       3.62356703       5.14496695       22      -0.03492961      -0.02180091       0.00626653
O        1.95834632       5.51546706      12.03975198       23      -0.03492961       0.02180091      -0.00626653
O        4.08803483       3.42777295      10.84161677       24       0.00553274       0.02277202       0.00296801
O        1.16657462       5.71126115       6.34310216       25       0.00553274      -0.02277202      -0.00296801
O        1.75488559       0.38142825      14.93546162       26      -0.00553274       0.02277202      -0.00296801
O        4.67634580       2.66491645       2.24925730       27      -0.00553274      -0.02277202       0.00296801
O        1.75488559       2.66491645       6.34310216       28      -0.00553274      -0.02277202      -0.00296801
O        4.67634580       0.38142825      10.84161677       29      -0.00553274       0.02277202       0.00296801
O        4.08803483       5.71126115       2.24925730       30       0.00553274      -0.02277202       0.00296801
O        1.16657462       3.42777295      14.93546162       31       0.00553274       0.02277202      -0.00296801
O        3.71029899       4.11515484      16.34048911       32      -0.03490173      -0.00076135       0.00922579
O        0.78883878       5.02387925       0.84422982       33      -0.03490173       0.00076135      -0.00922579
O        2.13262143       1.06881015       9.43658928       34       0.03490173      -0.00076135      -0.00922579
O        5.05408164       1.97753455       7.74812965       35       0.03490173       0.00076135       0.00922579
O        2.13262143       1.97753455       0.84422982       36       0.03490173       0.00076135      -0.00922579
O        5.05408164       1.06881015      16.34048911       37       0.03490173      -0.00076135       0.00922579
O        3.71029899       5.02387925       7.74812965       38      -0.03490173       0.00076135       0.00922579
O        0.78883878       4.11515484       9.43658928       39      -0.03490173      -0.00076135      -0.00922579
40