40
Lattice="4.966757589808079 -2.518564378556946e-42 0.0 2.944159489164473e-42 5.806056264796208 0.0 0.0 0.0 14.895096481993852" Properties=species:S:1:pos:R:3:spacegroup_kinds:I:1:forces:R:3 spacegroup="P 1" unit_cell=conventional occupancy="_JSON {\"0\": {\"In\": 1}, \"1\": {\"In\": 1}, \"2\": {\"In\": 1}, \"3\": {\"In\": 1}, \"4\": {\"In\": 1}, \"5\": {\"In\": 1}, \"6\": {\"In\": 1}, \"7\": {\"In\": 1}, \"8\": {\"In\": 1}, \"9\": {\"In\": 1}, \"10\": {\"In\": 1}, \"11\": {\"In\": 1}, \"12\": {\"In\": 1}, \"13\": {\"In\": 1}, \"14\": {\"In\": 1}, \"15\": {\"In\": 1}, \"16\": {\"O\": 1}, \"17\": {\"O\": 1}, \"18\": {\"O\": 1}, \"19\": {\"O\": 1}, \"20\": {\"O\": 1}, \"21\": {\"O\": 1}, \"22\": {\"O\": 1}, \"23\": {\"O\": 1}, \"24\": {\"O\": 1}, \"25\": {\"O\": 1}, \"26\": {\"O\": 1}, \"27\": {\"O\": 1}, \"28\": {\"O\": 1}, \"29\": {\"O\": 1}, \"30\": {\"O\": 1}, \"31\": {\"O\": 1}, \"32\": {\"O\": 1}, \"33\": {\"O\": 1}, \"34\": {\"O\": 1}, \"35\": {\"O\": 1}, \"36\": {\"O\": 1}, \"37\": {\"O\": 1}, \"38\": {\"O\": 1}, \"39\": {\"O\": 1}}" n_minim_iter=1 energy=-45146.073491031035 stress="-0.17254058712745657 -1.9943042523185645e-13 -2.260470474428906e-13 -1.9943042523185645e-13 -0.1510612933583352 2.4638332854393215e-13 -2.260470474428906e-13 2.4638332854393215e-13 -0.1626621073818377" free_energy=-45146.073491031035 pbc="T T T"
In       2.53782894       4.52997525       8.40808315        0       0.09275958      -0.04229170      -0.05721176
In       0.05445015       4.17910915       6.48701333        1       0.09275958       0.04229170       0.05721176
In       2.42892865       1.62694712      13.93456157        2      -0.09275958      -0.04229170       0.05721176
In       4.91230744       1.27608101       0.96053491        3      -0.09275958       0.04229170      -0.05721176
In       2.42892865       1.27608101       6.48701333        4      -0.09275958       0.04229170       0.05721176
In       4.91230744       1.62694712       8.40808315        5      -0.09275958      -0.04229170      -0.05721176
In       2.53782894       4.17910915       0.96053491        6       0.09275958       0.04229170      -0.05721176
In       0.05445015       4.52997525      13.93456157        7       0.09275958      -0.04229170       0.05721176
In       2.49278671       4.03010864      12.12766053        8      -0.05679250      -0.02928285      -0.09750061
In       4.97616550       4.67897576       2.76743595        9      -0.05679250       0.02928285       0.09750061
In       2.47397088       1.12708051      10.21498419       10       0.05679250      -0.02928285       0.09750061
In      -0.00940791       1.77594763       4.68011229       11       0.05679250       0.02928285      -0.09750061
In       2.47397088       1.77594763       2.76743595       12       0.05679250       0.02928285       0.09750061
In      -0.00940791       1.12708051      12.12766053       13       0.05679250      -0.02928285      -0.09750061
In       2.49278671       4.67897576       4.68011229       14      -0.05679250       0.02928285      -0.09750061
In       4.97616550       4.03010864      10.21498419       15      -0.05679250      -0.02928285       0.09750061
O        4.33178910       4.90211600      11.92734774       16      -0.01828957       0.06230644      -0.03829245
O        1.84841030       3.80696840       2.96774875       17      -0.01828957      -0.06230644       0.03829245
O        0.63496849       1.99908787      10.41529699       18       0.01828957       0.06230644       0.03829245
O        3.11834729       0.90394027       4.47979949       19       0.01828957      -0.06230644      -0.03829245
O        0.63496849       0.90394027       2.96774875       20       0.01828957      -0.06230644       0.03829245
O        3.11834729       1.99908787      11.92734774       21       0.01828957       0.06230644      -0.03829245
O        4.33178910       3.80696840       4.47979949       22      -0.01828957      -0.06230644      -0.03829245
O        1.84841030       4.90211600      10.41529699       23      -0.01828957       0.06230644       0.03829245
O        3.35553187       2.84969441       9.30674123       24      -0.13285714      -0.09159114       0.04791803
O        0.87215307       5.85938999       5.58835525       25      -0.13285714       0.09159114      -0.04791803
O        1.61122572      -0.05333372      13.03590349       26       0.13285714      -0.09159114      -0.04791803
O        4.09460452       2.95636186       1.85919299       27       0.13285714       0.09159114       0.04791803
O        1.61122572       2.95636186       5.58835525       28       0.13285714       0.09159114      -0.04791803
O        4.09460452      -0.05333372       9.30674123       29       0.13285714      -0.09159114       0.04791803
O        3.35553187       5.85938999       1.85919299       30      -0.13285714       0.09159114       0.04791803
O        0.87215307       2.84969441      13.03590349       31      -0.13285714      -0.09159114      -0.04791803
O        3.24875098       3.59892118      14.02895699       32       0.01682832       0.02208384       0.00315179
O        0.76537219       5.11016321       0.86613949       33       0.01682832      -0.02208384      -0.00315179
O        1.71800661       0.69589305       8.31368773       34      -0.01682832       0.02208384      -0.00315179
O        4.20138540       2.20713508       6.58140875       35      -0.01682832      -0.02208384       0.00315179
O        1.71800661       2.20713508       0.86613949       36      -0.01682832      -0.02208384      -0.00315179
O        4.20138540       0.69589305      14.02895699       37      -0.01682832       0.02208384       0.00315179
O        3.24875098       5.11016321       6.58140875       38       0.01682832      -0.02208384       0.00315179
O        0.76537219       3.59892118       8.31368773       39       0.01682832       0.02208384      -0.00315179
40
Lattice="4.999286325973564 -2.58738385421981e-42 0.0 2.8660977340259095e-42 5.766210300143231 0.0 0.0 0.0 14.90043805708685" Properties=species:S:1:pos:R:3:spacegroup_kinds:I:1:forces:R:3 spacegroup="P 1" unit_cell=conventional occupancy="_JSON {\"0\": {\"In\": 1}, \"1\": {\"In\": 1}, \"2\": {\"In\": 1}, \"3\": {\"In\": 1}, \"4\": {\"In\": 1}, \"5\": {\"In\": 1}, \"6\": {\"In\": 1}, \"7\": {\"In\": 1}, \"8\": {\"In\": 1}, \"9\": {\"In\": 1}, \"10\": {\"In\": 1}, \"11\": {\"In\": 1}, \"12\": {\"In\": 1}, \"13\": {\"In\": 1}, \"14\": {\"In\": 1}, \"15\": {\"In\": 1}, \"16\": {\"O\": 1}, \"17\": {\"O\": 1}, \"18\": {\"O\": 1}, \"19\": {\"O\": 1}, \"20\": {\"O\": 1}, \"21\": {\"O\": 1}, \"22\": {\"O\": 1}, \"23\": {\"O\": 1}, \"24\": {\"O\": 1}, \"25\": {\"O\": 1}, \"26\": {\"O\": 1}, \"27\": {\"O\": 1}, \"28\": {\"O\": 1}, \"29\": {\"O\": 1}, \"30\": {\"O\": 1}, \"31\": {\"O\": 1}, \"32\": {\"O\": 1}, \"33\": {\"O\": 1}, \"34\": {\"O\": 1}, \"35\": {\"O\": 1}, \"36\": {\"O\": 1}, \"37\": {\"O\": 1}, \"38\": {\"O\": 1}, \"39\": {\"O\": 1}}" n_minim_iter=2 energy=-45146.10510997066 stress="-0.15612199304354116 2.377317696652723e-14 1.7826703525140178e-13 2.377317696652723e-14 -0.15618653247175468 -2.286178052287158e-13 1.7826703525140178e-13 -2.286178052287158e-13 -0.1578525006619608" free_energy=-45146.10510997066 pbc="T T T"
In       2.55458567       4.49882574       8.41101519        0       0.03646427      -0.19157862      -0.09121278
In       0.05494251       4.15048971       6.48942287        1       0.03646427       0.19157862       0.09121278
In       2.44470065       1.61572059      13.93964190        2      -0.03646427      -0.19157862       0.09121278
In       4.94434382       1.26738456       0.96079616        3      -0.03646427       0.19157862      -0.09121278
In       2.44470065       1.26738456       6.48942287        4      -0.03646427       0.19157862       0.09121278
In       4.94434382       1.61572059       8.41101519        5      -0.03646427      -0.19157862      -0.09121278
In       2.55458567       4.15048971       0.96079616        6       0.03646427       0.19157862      -0.09121278
In       0.05494251       4.49882574      13.93964190        7       0.03646427      -0.19157862       0.09121278
In       2.50902958       4.00240841      12.13186786        8       0.00843086       0.10473452      -0.15055753
In       5.00867274       4.64690704       2.76857020        9       0.00843086      -0.10473452       0.15055753
In       2.49025675       1.11930326      10.21878923       10      -0.00843086       0.10473452       0.15055753
In      -0.00938641       1.76380189       4.68164883       11      -0.00843086      -0.10473452      -0.15055753
In       2.49025675       1.76380189       2.76857020       12      -0.00843086      -0.10473452       0.15055753
In      -0.00938641       1.11930326      12.13186786       13      -0.00843086       0.10473452      -0.15055753
In       2.50902958       4.64690704       4.68164883       14       0.00843086      -0.10473452      -0.15055753
In       5.00867274       4.00240841      10.21878923       15       0.00843086       0.10473452       0.15055753
O        4.36013247       4.86856359      11.93156934       16      -0.09303476      -0.04487376      -0.00057703
O        1.86048931       3.78075186       2.96886872       17      -0.09303476       0.04487376       0.00057703
O        0.63915385       1.98545844      10.41908774       18       0.09303476      -0.04487376       0.00057703
O        3.13879702       0.89764671       4.48135031       19       0.09303476       0.04487376      -0.00057703
O        0.63915385       0.89764671       2.96886872       20       0.09303476       0.04487376       0.00057703
O        3.13879702       1.98545844      11.93156934       21       0.09303476      -0.04487376      -0.00057703
O        4.36013247       3.78075186       4.48135031       22      -0.09303476       0.04487376      -0.00057703
O        1.86048931       4.86856359      10.41908774       23      -0.09303476      -0.04487376       0.00057703
O        3.37731379       2.83000519       9.31014844       24      -0.07204943      -0.12768196       0.06707238
O        0.87767062       5.81931026       5.59028961       25      -0.07204943       0.12768196      -0.06707238
O        1.62197254      -0.05309996      13.04050864       26       0.07204943      -0.12768196      -0.06707238
O        4.12161570       2.93620511       1.85992942       27       0.07204943       0.12768196       0.06707238
O        1.62197254       2.93620511       5.59028961       28       0.07204943       0.12768196      -0.06707238
O        4.12161570      -0.05309996       9.31014844       29       0.07204943      -0.12768196       0.06707238
O        3.37731379       5.81931026       1.85992942       30      -0.07204943       0.12768196       0.06707238
O        0.87767062       2.83000519      13.04050864       31      -0.07204943      -0.12768196      -0.06707238
O        3.27005262       3.57425430      14.03399254       32       0.10464392       0.14760770      -0.01581097
O        0.77040946       5.07506115       0.86644552       33       0.10464392      -0.14760770       0.01581097
O        1.72923370       0.69114915       8.31666454       34      -0.10464392       0.14760770       0.01581097
O        4.22887687       2.19195600       6.58377351       35      -0.10464392      -0.14760770      -0.01581097
O        1.72923370       2.19195600       0.86644552       36      -0.10464392      -0.14760770       0.01581097
O        4.22887687       0.69114915      14.03399254       37      -0.10464392       0.14760770      -0.01581097
O        3.27005262       5.07506115       6.58377351       38       0.10464392      -0.14760770      -0.01581097
O        0.77040946       3.57425430       8.31666454       39       0.10464392       0.14760770       0.01581097
40
Lattice="4.996306255843943 -2.5924064985849945e-42 0.0 2.8541035669548703e-42 5.75770468820385 0.0 0.0 0.0 14.931350404368763" Properties=species:S:1:pos:R:3:spacegroup_kinds:I:1:forces:R:3 spacegroup="P 1" unit_cell=conventional occupancy="_JSON {\"0\": {\"In\": 1}, \"1\": {\"In\": 1}, \"2\": {\"In\": 1}, \"3\": {\"In\": 1}, \"4\": {\"In\": 1}, \"5\": {\"In\": 1}, \"6\": {\"In\": 1}, \"7\": {\"In\": 1}, \"8\": {\"In\": 1}, \"9\": {\"In\": 1}, \"10\": {\"In\": 1}, \"11\": {\"In\": 1}, \"12\": {\"In\": 1}, \"13\": {\"In\": 1}, \"14\": {\"In\": 1}, \"15\": {\"In\": 1}, \"16\": {\"O\": 1}, \"17\": {\"O\": 1}, \"18\": {\"O\": 1}, \"19\": {\"O\": 1}, \"20\": {\"O\": 1}, \"21\": {\"O\": 1}, \"22\": {\"O\": 1}, \"23\": {\"O\": 1}, \"24\": {\"O\": 1}, \"25\": {\"O\": 1}, \"26\": {\"O\": 1}, \"27\": {\"O\": 1}, \"28\": {\"O\": 1}, \"29\": {\"O\": 1}, \"30\": {\"O\": 1}, \"31\": {\"O\": 1}, \"32\": {\"O\": 1}, \"33\": {\"O\": 1}, \"34\": {\"O\": 1}, \"35\": {\"O\": 1}, \"36\": {\"O\": 1}, \"37\": {\"O\": 1}, \"38\": {\"O\": 1}, \"39\": {\"O\": 1}}" n_minim_iter=3 energy=-45146.10840242617 stress="-0.15770344479301301 4.032362564358068e-13 4.573511472290243e-13 4.032362564358068e-13 -0.15748741852998147 -1.0971493312087836e-12 4.573511472290243e-13 -1.0971493312087836e-12 -0.15273897221681615" free_energy=-45146.10840242617 pbc="T T T"
In       2.55322829       4.49139134       8.42807363        0       0.07228069      -0.14899012      -0.10408220
In       0.05507516       4.14516569       6.50327677        1       0.07228069       0.14899012       0.10408220
In       2.44307797       1.61253900      13.96895197        2      -0.07228069      -0.14899012       0.10408220
In       4.94123109       1.26631335       0.96239843        3      -0.07228069       0.14899012      -0.10408220
In       2.44307797       1.26631335       6.50327677        4      -0.07228069       0.14899012       0.10408220
In       4.94123109       1.61253900       8.42807363        5      -0.07228069      -0.14899012      -0.10408220
In       2.55322829       4.14516569       0.96239843        6       0.07228069       0.14899012      -0.10408220
In       0.05507516       4.49139134      13.96895197        7       0.07228069      -0.14899012       0.10408220
In       2.50756369       3.99693535      12.15639084        8      -0.01070939       0.09743091      -0.13349744
In       5.00571682       4.63962168       2.77495956        9      -0.01070939      -0.09743091       0.13349744
In       2.48874257       1.11808300      10.24063476       10       0.01070939       0.09743091       0.13349744
In      -0.00941056       1.76076934       4.69071564       11       0.01070939      -0.09743091      -0.13349744
In       2.48874257       1.76076934       2.77495956       12       0.01070939      -0.09743091       0.13349744
In      -0.00941056       1.11808300      12.15639084       13       0.01070939       0.09743091      -0.13349744
In       2.50756369       4.63962168       4.69071564       14      -0.01070939      -0.09743091      -0.13349744
In       5.00571682       3.99693535      10.24063476       15      -0.01070939       0.09743091       0.13349744
O        4.35713512       4.86120283      11.95631591       16      -0.05308657      -0.05136928       0.01720513
O        1.85898199       3.77535420       2.97503449       17      -0.05308657       0.05136928      -0.01720513
O        0.63917113       1.98235049      10.44070969       18       0.05308657      -0.05136928      -0.01720513
O        3.13732426       0.89650186       4.49064071       19       0.05308657       0.05136928       0.01720513
O        0.63917113       0.89650186       2.97503449       20       0.05308657       0.05136928      -0.01720513
O        3.13732426       1.98235049      11.95631591       21       0.05308657      -0.05136928       0.01720513
O        4.35713512       3.77535420       4.49064071       22      -0.05308657       0.05136928       0.01720513
O        1.85898199       4.86120283      10.44070969       23      -0.05308657      -0.05136928      -0.01720513
O        3.37497923       2.82529189       9.32975136       24      -0.04317916      -0.13777305       0.06470854
O        0.87682611       5.81126515       5.60159905       25      -0.04317916       0.13777305      -0.06470854
O        1.62132702      -0.05356046      13.06727425       26       0.04317916      -0.13777305      -0.06470854
O        4.11948015       2.93241280       1.86407615       27       0.04317916       0.13777305       0.06470854
O        1.62132702       2.93241280       5.60159905       28       0.04317916       0.13777305      -0.06470854
O        4.11948015      -0.05356046       9.32975136       29       0.04317916      -0.13777305       0.06470854
O        3.37497923       5.81126515       1.86407615       30      -0.04317916       0.13777305       0.06470854
O        0.87682611       2.82529189      13.06727425       31      -0.04317916      -0.13777305      -0.06470854
O        3.26855092       3.56959593      14.06304101       32       0.03661098       0.13895099      -0.01207917
O        0.77039779       5.06696110       0.86830940       33       0.03661098      -0.13895099       0.01207917
O        1.72775534       0.69074358       8.33398460       34      -0.03661098       0.13895099       0.01207917
O        4.22590846       2.18810876       6.59736581       35      -0.03661098      -0.13895099      -0.01207917
O        1.72775534       2.18810876       0.86830940       36      -0.03661098      -0.13895099       0.01207917
O        4.22590846       0.69074358      14.06304101       37      -0.03661098       0.13895099      -0.01207917
O        3.26855092       5.06696110       6.59736581       38       0.03661098      -0.13895099      -0.01207917
O        0.77039779       3.56959593       8.33398460       39       0.03661098       0.13895099       0.01207917
40
Lattice="5.013394617423573 -2.5939865158078027e-42 0.0 2.838870616261504e-42 5.7475285602186155 0.0 0.0 0.0 14.906802463885805" Properties=species:S:1:pos:R:3:spacegroup_kinds:I:1:forces:R:3 spacegroup="P 1" unit_cell=conventional occupancy="_JSON {\"0\": {\"In\": 1}, \"1\": {\"In\": 1}, \"2\": {\"In\": 1}, \"3\": {\"In\": 1}, \"4\": {\"In\": 1}, \"5\": {\"In\": 1}, \"6\": {\"In\": 1}, \"7\": {\"In\": 1}, \"8\": {\"In\": 1}, \"9\": {\"In\": 1}, \"10\": {\"In\": 1}, \"11\": {\"In\": 1}, \"12\": {\"In\": 1}, \"13\": {\"In\": 1}, \"14\": {\"In\": 1}, \"15\": {\"In\": 1}, \"16\": {\"O\": 1}, \"17\": {\"O\": 1}, \"18\": {\"O\": 1}, \"19\": {\"O\": 1}, \"20\": {\"O\": 1}, \"21\": {\"O\": 1}, \"22\": {\"O\": 1}, \"23\": {\"O\": 1}, \"24\": {\"O\": 1}, \"25\": {\"O\": 1}, \"26\": {\"O\": 1}, \"27\": {\"O\": 1}, \"28\": {\"O\": 1}, \"29\": {\"O\": 1}, \"30\": {\"O\": 1}, \"31\": {\"O\": 1}, \"32\": {\"O\": 1}, \"33\": {\"O\": 1}, \"34\": {\"O\": 1}, \"35\": {\"O\": 1}, \"36\": {\"O\": 1}, \"37\": {\"O\": 1}, \"38\": {\"O\": 1}, \"39\": {\"O\": 1}}" n_minim_iter=4 energy=-45146.12665491919 stress="-0.15253744813090706 -7.675570400952335e-14 -1.0098456627430215e-13 -7.675570400952335e-14 -0.1530391108452267 8.723230447776019e-13 -1.0098456627430215e-13 8.723230447776019e-13 -0.1530574078103831" free_energy=-45146.12665491919 pbc="T T T"
In       2.56357826       4.47761738       8.41105003        0       0.06081053      -0.00478664       0.01093873
In       0.05688095       4.14367546       6.49575244        1       0.06081053       0.00478664      -0.01093873
In       2.44981636       1.60385310      13.94915367        2      -0.06081053      -0.00478664      -0.01093873
In       4.95651366       1.26991118       0.95764880        3      -0.06081053       0.00478664       0.01093873
In       2.44981636       1.26991118       6.49575244        4      -0.06081053       0.00478664      -0.01093873
In       4.95651366       1.60385310       8.41105003        5      -0.06081053      -0.00478664       0.01093873
In       2.56357826       4.14367546       0.95764880        6       0.06081053       0.00478664       0.01093873
In       0.05688095       4.47761738      13.94915367        7       0.06081053      -0.00478664      -0.01093873
In       2.51620728       3.99318271      12.13154007        8       0.03455393      -0.07426850       0.04037838
In       5.02290459       4.62811013       2.77526239        9       0.03455393       0.07426850      -0.04037838
In       2.49718734       1.11941843      10.22866362       10      -0.03455393      -0.07426850      -0.04037838
In      -0.00950997       1.75434585       4.67813884       11      -0.03455393       0.07426850       0.04037838
In       2.49718734       1.75434585       2.77526239       12      -0.03455393       0.07426850      -0.04037838
In      -0.00950997       1.11941843      12.13154007       13      -0.03455393      -0.07426850       0.04037838
In       2.51620728       4.62811013       4.67813884       14       0.03455393       0.07426850       0.04037838
In       5.02290459       3.99318271      10.22866362       15       0.03455393      -0.07426850      -0.04037838
O        4.36929506       4.85112909      11.93678881       16      -0.03593977       0.02681016       0.17621790
O        1.86259775       3.77016375       2.97001366       17      -0.03593977      -0.02681016      -0.17621790
O        0.64409956       1.97736481      10.42341489       18       0.03593977       0.02681016      -0.17621790
O        3.15079687       0.89639947       4.48338758       19       0.03593977      -0.02681016       0.17621790
O        0.64409956       0.89639947       2.97001366       20       0.03593977      -0.02681016      -0.17621790
O        3.15079687       1.97736481      11.93678881       21       0.03593977       0.02681016       0.17621790
O        4.36929506       3.77016375       4.48338758       22      -0.03593977      -0.02681016       0.17621790
O        1.86259775       4.85112909      10.42341489       23      -0.03593977       0.02681016      -0.17621790
O        3.38431432       2.81601673       9.31663236       24       0.07756928      -0.10895979       0.03839767
O        0.87761701       5.80527611       5.59017011       25       0.07756928       0.10895979      -0.03839767
O        1.62908030      -0.05774755      13.04357134       26      -0.07756928      -0.10895979      -0.03839767
O        4.13577761       2.93151183       1.86323113       27      -0.07756928       0.10895979       0.03839767
O        1.62908030       2.93151183       5.59017011       28      -0.07756928       0.10895979      -0.03839767
O        4.13577761      -0.05774755       9.31663236       29      -0.07756928      -0.10895979       0.03839767
O        3.38431432       5.80527611       1.86323113       30       0.07756928       0.10895979       0.03839767
O        0.87761701       2.81601673      13.04357134       31       0.07756928      -0.10895979      -0.03839767
O        3.28258984       3.56800306      14.03943538       32      -0.07743279       0.03254935      -0.09362833
O        0.77589253       5.05328978       0.86736708       33      -0.07743279      -0.03254935       0.09362833
O        1.73080478       0.69423878       8.32076831       34       0.07743279       0.03254935       0.09362833
O        4.23750209       2.17952550       6.58603415       35       0.07743279      -0.03254935      -0.09362833
O        1.73080478       2.17952550       0.86736708       36       0.07743279      -0.03254935       0.09362833
O        4.23750209       0.69423878      14.03943538       37       0.07743279       0.03254935      -0.09362833
O        3.28258984       5.05328978       6.58603415       38      -0.07743279      -0.03254935      -0.09362833
O        0.77589253       3.56800306       8.32076831       39      -0.07743279       0.03254935       0.09362833
40
Lattice="5.021833067487151 -2.61994277616064e-42 0.0 2.820630936200163e-42 5.735278967648902 0.0 0.0 0.0 14.913538706681422" Properties=species:S:1:pos:R:3:spacegroup_kinds:I:1:forces:R:3 spacegroup="P 1" unit_cell=conventional occupancy="_JSON {\"0\": {\"In\": 1}, \"1\": {\"In\": 1}, \"2\": {\"In\": 1}, \"3\": {\"In\": 1}, \"4\": {\"In\": 1}, \"5\": {\"In\": 1}, \"6\": {\"In\": 1}, \"7\": {\"In\": 1}, \"8\": {\"In\": 1}, \"9\": {\"In\": 1}, \"10\": {\"In\": 1}, \"11\": {\"In\": 1}, \"12\": {\"In\": 1}, \"13\": {\"In\": 1}, \"14\": {\"In\": 1}, \"15\": {\"In\": 1}, \"16\": {\"O\": 1}, \"17\": {\"O\": 1}, \"18\": {\"O\": 1}, \"19\": {\"O\": 1}, \"20\": {\"O\": 1}, \"21\": {\"O\": 1}, \"22\": {\"O\": 1}, \"23\": {\"O\": 1}, \"24\": {\"O\": 1}, \"25\": {\"O\": 1}, \"26\": {\"O\": 1}, \"27\": {\"O\": 1}, \"28\": {\"O\": 1}, \"29\": {\"O\": 1}, \"30\": {\"O\": 1}, \"31\": {\"O\": 1}, \"32\": {\"O\": 1}, \"33\": {\"O\": 1}, \"34\": {\"O\": 1}, \"35\": {\"O\": 1}, \"36\": {\"O\": 1}, \"37\": {\"O\": 1}, \"38\": {\"O\": 1}, \"39\": {\"O\": 1}}" n_minim_iter=5 energy=-45146.143605261976 stress="-0.15068451767941232 -4.4167820937872304e-13 -2.852685601519083e-13 -4.4167820937872304e-13 -0.15030260084056996 -1.6807808774313315e-13 -2.852685601519083e-13 -1.6807808774313315e-13 -0.15023916339382162" free_energy=-45146.143605261976 pbc="T T T"
In       2.57274003       4.46259351       8.41248974        0       0.00125804       0.01152327       0.00186664
In       0.06182349       4.14032495       6.50104897        1       0.00125804      -0.01152327      -0.00186664
In       2.44909304       1.59495402      13.95781832        2      -0.00125804       0.01152327      -0.00186664
In       4.96000957       1.27268546       0.95572038        3      -0.00125804      -0.01152327       0.00186664
In       2.44909304       1.27268546       6.50104897        4      -0.00125804      -0.01152327      -0.00186664
In       4.96000957       1.59495402       8.41248974        5      -0.00125804       0.01152328       0.00186664
In       2.57274003       4.14032495       0.95572038        6       0.00125804      -0.01152327       0.00186664
In       0.06182349       4.46259351      13.95781832        7       0.00125804       0.01152327      -0.00186664
In       2.52225493       3.98381664      12.13466398        8      -0.08979681      -0.07022130      -0.13145134
In       5.03317147       4.61910181       2.77887473        9      -0.08979681       0.07022130       0.13145134
In       2.49957813       1.11617716      10.23564408       10       0.08979681      -0.07022130       0.13145134
In      -0.01133840       1.75146233       4.67789463       11       0.08979681       0.07022130      -0.13145134
In       2.49957813       1.75146233       2.77887473       12       0.08979681       0.07022130       0.13145134
In      -0.01133840       1.11617716      12.13466398       13       0.08979681      -0.07022130      -0.13145134
In       2.52225493       4.61910181       4.67789463       14      -0.08979681       0.07022130      -0.13145134
In       5.03317147       3.98381664      10.23564408       15      -0.08979681      -0.07022130       0.13145134
O        4.37229304       4.84088674      11.95149283       16       0.06199677      -0.04162223      -0.00001500
O        1.86137651       3.76203171       2.96204588       17       0.06199677       0.04162223       0.00001500
O        0.64954003       1.97324726      10.41881523       18      -0.06199677      -0.04162223       0.00001500
O        3.16045656       0.89439223       4.49472348       19      -0.06199677       0.04162223      -0.00001500
O        0.64954003       0.89439223       2.96204588       20      -0.06199677       0.04162223       0.00001500
O        3.16045656       1.97324726      11.95149283       21      -0.06199677      -0.04162223      -0.00001500
O        4.37229304       3.76203171       4.49472348       22       0.06199677       0.04162223      -0.00001500
O        1.86137651       4.84088674      10.41881523       23       0.06199677      -0.04162223       0.00001500
O        3.39203799       2.80049631       9.32489973       24       0.07212350      -0.01527600      -0.00552717
O        0.88112146       5.80242214       5.58863898       25       0.07212350       0.01527600       0.00552717
O        1.62979508      -0.06714318      13.04540833       26      -0.07212350      -0.01527600       0.00552717
O        4.14071161       2.93478266       1.86813037       27      -0.07212350       0.01527600      -0.00552717
O        1.62979508       2.93478266       5.58863898       28      -0.07212350       0.01527600       0.00552717
O        4.14071161      -0.06714318       9.32489973       29      -0.07212350      -0.01527600      -0.00552717
O        3.39203799       5.80242214       1.86813037       30       0.07212350       0.01527600      -0.00552717
O        0.88112146       2.80049631      13.04540833       31       0.07212350      -0.01527600       0.00552717
O        3.28650252       3.56630957      14.04045563       32      -0.06593754       0.00735047       0.06420265
O        0.77558599       5.03660888       0.87308307       33      -0.06593754      -0.00735047      -0.06420265
O        1.73533055       0.69867009       8.32985243       34       0.06593754       0.00735047      -0.06420265
O        4.24624708       2.16896940       6.58368628       35       0.06593754      -0.00735047       0.06420265
O        1.73533055       2.16896940       0.87308307       36       0.06593754      -0.00735047      -0.06420265
O        4.24624708       0.69867009      14.04045563       37       0.06593754       0.00735047       0.06420265
O        3.28650252       5.03660888       6.58368628       38      -0.06593754      -0.00735047       0.06420265
O        0.77558599       3.56630957       8.32985243       39      -0.06593754       0.00735047      -0.06420265
40