40
Lattice="5.778291981038479 -1.7497596555677334e-42 0.0 1.5623595910032973e-42 5.939350152958231 0.0 0.0 0.0 16.68775244244114" Properties=species:S:1:pos:R:3:spacegroup_kinds:I:1:forces:R:3 spacegroup="P 1" unit_cell=conventional occupancy="_JSON {\"0\": {\"In\": 1}, \"1\": {\"In\": 1}, \"2\": {\"In\": 1}, \"3\": {\"In\": 1}, \"4\": {\"In\": 1}, \"5\": {\"In\": 1}, \"6\": {\"In\": 1}, \"7\": {\"In\": 1}, \"8\": {\"In\": 1}, \"9\": {\"In\": 1}, \"10\": {\"In\": 1}, \"11\": {\"In\": 1}, \"12\": {\"In\": 1}, \"13\": {\"In\": 1}, \"14\": {\"In\": 1}, \"15\": {\"In\": 1}, \"16\": {\"O\": 1}, \"17\": {\"O\": 1}, \"18\": {\"O\": 1}, \"19\": {\"O\": 1}, \"20\": {\"O\": 1}, \"21\": {\"O\": 1}, \"22\": {\"O\": 1}, \"23\": {\"O\": 1}, \"24\": {\"O\": 1}, \"25\": {\"O\": 1}, \"26\": {\"O\": 1}, \"27\": {\"O\": 1}, \"28\": {\"O\": 1}, \"29\": {\"O\": 1}, \"30\": {\"O\": 1}, \"31\": {\"O\": 1}, \"32\": {\"O\": 1}, \"33\": {\"O\": 1}, \"34\": {\"O\": 1}, \"35\": {\"O\": 1}, \"36\": {\"O\": 1}, \"37\": {\"O\": 1}, \"38\": {\"O\": 1}, \"39\": {\"O\": 1}}" n_minim_iter=14 energy=-45149.62281871546 stress="0.034883371554011 -2.129940310668196e-13 -1.393474083341986e-13 -2.129940310668196e-13 0.034977505403960385 -3.789807625875213e-14 -1.393474083341986e-13 -3.789807625875213e-14 0.035063514382362874" free_energy=-45149.62281871546 pbc="T T T"
In       2.87916444       4.71825662       9.52016838        0       0.00717682       0.00446081      -0.00529527
In      -0.00998155       4.19076861       7.16758406        1       0.00717682      -0.00446081       0.00529527
In       2.89912754       1.74858154      15.51146028        2      -0.00717682       0.00446081       0.00529527
In       5.78827354       1.22109354       1.17629216        3      -0.00717682      -0.00446081      -0.00529527
In       2.89912754       1.22109354       7.16758406        4      -0.00717682      -0.00446081       0.00529527
In       5.78827354       1.74858154       9.52016838        5      -0.00717682       0.00446081      -0.00529527
In       2.87916444       4.19076861       1.17629216        6       0.00717682      -0.00446081      -0.00529527
In      -0.00998155       4.71825662      15.51146028        7       0.00717682       0.00446081       0.00529527
In       2.85562597       4.37881118      13.63728082        8       0.00028458       0.00179680      -0.00156805
In       5.74477196       4.53021405       3.05047162        9       0.00028458      -0.00179680       0.00156805
In       2.92266601       1.40913610      11.39434784       10      -0.00028458       0.00179680       0.00156805
In       0.03352002       1.56053897       5.29340460       11      -0.00028458      -0.00179680      -0.00156805
In       2.92266601       1.56053897       3.05047162       12      -0.00028458      -0.00179680       0.00156805
In       0.03352002       1.40913610      13.63728082       13      -0.00028458       0.00179680      -0.00156805
In       2.85562597       4.53021405       5.29340460       14       0.00028458      -0.00179680      -0.00156805
In       5.74477196       4.37881118      11.39434784       15       0.00028458       0.00179680       0.00156805
O        4.95728741       5.16779411      13.32604495       16       0.00519803      -0.00725315      -0.00235825
O        2.06814142       3.74123112       3.36170749       17       0.00519803       0.00725315       0.00235825
O        0.82100457       2.19811903      11.70558371       18      -0.00519803      -0.00725315       0.00235825
O        3.71015056       0.77155605       4.98216873       19      -0.00519803       0.00725315      -0.00235825
O        0.82100457       0.77155605       3.36170749       20      -0.00519803       0.00725315       0.00235825
O        3.71015056       2.19811903      13.32604495       21      -0.00519803      -0.00725315      -0.00235825
O        4.95728741       3.74123112       4.98216873       22       0.00519803       0.00725315      -0.00235825
O        2.06814142       5.16779411      11.70558371       23       0.00519803      -0.00725315       0.00235825
O        4.05842148       3.10215926      10.42393893       24      -0.00098253       0.00104099       0.00356891
O        1.16927549       5.80686597       6.26381351       25      -0.00098253      -0.00104099      -0.00356891
O        1.71987050       0.13248419      14.60768974       26       0.00098253       0.00104099      -0.00356891
O        4.60901649       2.83719089       2.08006271       27       0.00098253      -0.00104099       0.00356891
O        1.71987050       2.83719089       6.26381351       28       0.00098253      -0.00104099      -0.00356891
O        4.60901649       0.13248419      10.42393893       29       0.00098253       0.00104099       0.00356891
O        4.05842148       5.80686597       2.08006271       30      -0.00098253      -0.00104099       0.00356891
O        1.16927549       3.10215926      14.60768974       31      -0.00098253       0.00104099      -0.00356891
O        3.73798256       3.91508257      15.82900630       32      -0.00240001      -0.00368648      -0.00273615
O        0.84883657       4.99394266       0.85874615       33      -0.00240001       0.00368648       0.00273615
O        2.04030942       0.94540749       9.20262237       34       0.00240001      -0.00368648       0.00273615
O        4.92945541       2.02426758       7.48513008       35       0.00240001       0.00368648      -0.00273615
O        2.04030942       2.02426758       0.85874615       36       0.00240001       0.00368648       0.00273615
O        4.92945541       0.94540749      15.82900630       37       0.00240001      -0.00368648      -0.00273615
O        3.73798256       4.99394266       7.48513008       38      -0.00240001       0.00368648      -0.00273615
O        0.84883657       3.91508257       9.20262237       39      -0.00240001      -0.00368648       0.00273615
