40
Lattice="5.907217118643703 5.152436836869575e-43 0.0 1.2567314779483552e-43 6.224395940237621 0.0 0.0 0.0 17.346007136269993" Properties=species:S:1:pos:R:3:spacegroup_kinds:I:1:forces:R:3 spacegroup="P 1" unit_cell=conventional occupancy="_JSON {\"0\": {\"In\": 1}, \"1\": {\"In\": 1}, \"2\": {\"In\": 1}, \"3\": {\"In\": 1}, \"4\": {\"In\": 1}, \"5\": {\"In\": 1}, \"6\": {\"In\": 1}, \"7\": {\"In\": 1}, \"8\": {\"In\": 1}, \"9\": {\"In\": 1}, \"10\": {\"In\": 1}, \"11\": {\"In\": 1}, \"12\": {\"In\": 1}, \"13\": {\"In\": 1}, \"14\": {\"In\": 1}, \"15\": {\"In\": 1}, \"16\": {\"O\": 1}, \"17\": {\"O\": 1}, \"18\": {\"O\": 1}, \"19\": {\"O\": 1}, \"20\": {\"O\": 1}, \"21\": {\"O\": 1}, \"22\": {\"O\": 1}, \"23\": {\"O\": 1}, \"24\": {\"O\": 1}, \"25\": {\"O\": 1}, \"26\": {\"O\": 1}, \"27\": {\"O\": 1}, \"28\": {\"O\": 1}, \"29\": {\"O\": 1}, \"30\": {\"O\": 1}, \"31\": {\"O\": 1}, \"32\": {\"O\": 1}, \"33\": {\"O\": 1}, \"34\": {\"O\": 1}, \"35\": {\"O\": 1}, \"36\": {\"O\": 1}, \"37\": {\"O\": 1}, \"38\": {\"O\": 1}, \"39\": {\"O\": 1}}" n_minim_iter=11 energy=-45146.39104492159 stress="0.0709361778154638 7.522885617178591e-14 -7.700038365532038e-15 7.522885617178591e-14 0.07092531909116989 -9.994014746039964e-14 -7.700038365532038e-15 -9.994014746039964e-14 0.07095656638659029" free_energy=-45146.39104492159 pbc="T T T"
In       2.74520040       5.18477221      10.03062830        0      -0.00371497       0.00299016      -0.00304903
In      -0.20840816       4.15182170       7.31537884        1      -0.00371497      -0.00299016       0.00304903
In       3.16201672       2.07257424      15.98838241        2       0.00371497       0.00299016       0.00304903
In       6.11562527       1.03962373       1.35762473        3       0.00371497      -0.00299016      -0.00304903
In       3.16201672       1.03962373       7.31537884        4       0.00371497      -0.00299016       0.00304903
In       6.11562527       2.07257424      10.03062830        5       0.00371497       0.00299016      -0.00304903
In       2.74520040       4.15182170       1.35762473        6      -0.00371497      -0.00299016      -0.00304903
In      -0.20840816       5.18477221      15.98838241        7      -0.00371497       0.00299016       0.00304903
In       2.75363960       4.86460324      14.10904137        8       0.00115209      -0.00264403       0.00283372
In       5.70724816       4.47199067       3.23696577        9       0.00115209       0.00264403      -0.00283372
In       3.15357752       1.75240527      11.90996934       10      -0.00115209      -0.00264403      -0.00283372
In       0.19996896       1.35979270       5.43603780       11      -0.00115209       0.00264403       0.00283372
In       3.15357752       1.35979270       3.23696577       12      -0.00115209       0.00264403      -0.00283372
In       0.19996896       1.75240527      14.10904137       13      -0.00115209      -0.00264403       0.00283372
In       2.75363960       4.47199067       5.43603780       14       0.00115209       0.00264403       0.00283372
In       5.70724816       4.86460324      11.90996934       15       0.00115209      -0.00264403      -0.00283372
O        4.91935823       5.65164623      13.87193048       16      -0.00368204       0.00594498      -0.00306213
O        1.96574967       3.68494768       3.47407666       17      -0.00368204      -0.00594498       0.00306213
O        0.98785889       2.53944826      12.14708022       18       0.00368204       0.00594498       0.00306213
O        3.94146745       0.57274971       5.19892691       19       0.00368204      -0.00594498      -0.00306213
O        0.98785889       0.57274971       3.47407666       20       0.00368204      -0.00594498       0.00306213
O        3.94146745       2.53944826      13.87193048       21       0.00368204       0.00594498      -0.00306213
O        4.91935823       3.68494768       5.19892691       22      -0.00368204      -0.00594498      -0.00306213
O        1.96574967       5.65164623      12.14708022       23      -0.00368204       0.00594498       0.00306213
O        4.13307639       3.55516848      10.95208853       24       0.00233223       0.00615167       0.00549405
O        1.17946783       5.78142543       6.39391861       25       0.00233223      -0.00615167      -0.00549405
O        1.77414073       0.44297051      15.06692217       26      -0.00233223       0.00615167      -0.00549405
O        4.72774929       2.66922746       2.27908496       27      -0.00233223      -0.00615167       0.00549405
O        1.77414073       2.66922746       6.39391861       28      -0.00233223      -0.00615167      -0.00549405
O        4.72774929       0.44297051      10.95208853       29      -0.00233223       0.00615167       0.00549405
O        4.13307639       5.78142543       2.27908496       30       0.00233223      -0.00615167       0.00549405
O        1.17946783       3.55516848      15.06692217       31       0.00233223       0.00615167      -0.00549405
O        3.74234026       4.18987866      16.51661181       32       0.00117353       0.00528813      -0.00248696
O        0.78873170       5.14671525       0.82939533       33       0.00117353      -0.00528813       0.00248696
O        2.16487686       1.07768069       9.50239889       34      -0.00117353       0.00528813       0.00248696
O        5.11848541       2.03451728       7.84360824       35      -0.00117353      -0.00528813      -0.00248696
O        2.16487686       2.03451728       0.82939533       36      -0.00117353      -0.00528813       0.00248696
O        5.11848541       1.07768069      16.51661181       37      -0.00117353       0.00528813      -0.00248696
O        3.74234026       5.14671525       7.84360824       38       0.00117353      -0.00528813      -0.00248696
O        0.78873170       4.18987866       9.50239889       39       0.00117353       0.00528813       0.00248696
