40
Lattice="5.4744114144326215 -2.3383408288099668e-42 0.0 1.071797738814219e-42 5.707827580812871 0.0 0.0 0.0 15.829197706047006" Properties=species:S:1:pos:R:3:spacegroup_kinds:I:1:forces:R:3 spacegroup="P 1" unit_cell=conventional occupancy="_JSON {\"0\": {\"In\": 1}, \"1\": {\"In\": 1}, \"2\": {\"In\": 1}, \"3\": {\"In\": 1}, \"4\": {\"In\": 1}, \"5\": {\"In\": 1}, \"6\": {\"In\": 1}, \"7\": {\"In\": 1}, \"8\": {\"In\": 1}, \"9\": {\"In\": 1}, \"10\": {\"In\": 1}, \"11\": {\"In\": 1}, \"12\": {\"In\": 1}, \"13\": {\"In\": 1}, \"14\": {\"In\": 1}, \"15\": {\"In\": 1}, \"16\": {\"O\": 1}, \"17\": {\"O\": 1}, \"18\": {\"O\": 1}, \"19\": {\"O\": 1}, \"20\": {\"O\": 1}, \"21\": {\"O\": 1}, \"22\": {\"O\": 1}, \"23\": {\"O\": 1}, \"24\": {\"O\": 1}, \"25\": {\"O\": 1}, \"26\": {\"O\": 1}, \"27\": {\"O\": 1}, \"28\": {\"O\": 1}, \"29\": {\"O\": 1}, \"30\": {\"O\": 1}, \"31\": {\"O\": 1}, \"32\": {\"O\": 1}, \"33\": {\"O\": 1}, \"34\": {\"O\": 1}, \"35\": {\"O\": 1}, \"36\": {\"O\": 1}, \"37\": {\"O\": 1}, \"38\": {\"O\": 1}, \"39\": {\"O\": 1}}" n_minim_iter=14 energy=-45150.22305164202 stress="-0.010882821958269957 -2.4260694027180995e-14 -7.108259452632733e-14 -2.4260694027180995e-14 -0.010936922763019292 -2.706355128932167e-13 -7.108259452632733e-14 -2.706355128932167e-13 -0.01102588815487215" free_energy=-45150.22305164202 pbc="T T T"
In       2.73158400       4.58776903       9.04492961        0      -0.00708495       0.00305725       0.00489951
In      -0.00562170       3.97397234       6.78426809        1      -0.00708495      -0.00305725      -0.00489951
In       2.74282741       1.73385524      14.69886695        2       0.00708495       0.00305725      -0.00489951
In       5.48003312       1.12005855       1.13033076        3       0.00708495      -0.00305725       0.00489951
In       2.74282741       1.12005855       6.78426809        4       0.00708495      -0.00305725      -0.00489951
In       5.48003312       1.73385524       9.04492961        5       0.00708495       0.00305725       0.00489951
In       2.73158400       3.97397234       1.13033076        6      -0.00708495      -0.00305725       0.00489951
In      -0.00562170       4.58776903      14.69886695        7      -0.00708495       0.00305725      -0.00489951
In       2.72549427       4.29205032      12.95840532        8      -0.00446598      -0.00214445       0.00317879
In       5.46269998       4.26969105       2.87079239        9      -0.00446598       0.00214445      -0.00317879
In       2.74891714       1.43813653      10.78539124       10       0.00446598      -0.00214445      -0.00317879
In       0.01171143       1.41577726       5.04380646       11       0.00446598       0.00214445       0.00317879
In       2.74891714       1.41577726       2.87079239       12       0.00446598       0.00214445      -0.00317879
In       0.01171143       1.43813653      12.95840532       13       0.00446598      -0.00214445       0.00317879
In       2.72549427       4.26969105       5.04380646       14      -0.00446598       0.00214445       0.00317879
In       5.46269998       4.29205032      10.78539124       15      -0.00446598      -0.00214445      -0.00317879
O        4.70213008       5.06469905      12.63095719       16      -0.00205807       0.00225118      -0.00129460
O        1.96492438       3.49704232       3.19824052       17      -0.00205807      -0.00225118       0.00129460
O        0.77228133       2.21078526      11.11283937       18       0.00205807       0.00225118       0.00129460
O        3.50948704       0.64312853       4.71635833       19       0.00205807      -0.00225118      -0.00129460
O        0.77228133       0.64312853       3.19824052       20       0.00205807      -0.00225118       0.00129460
O        3.50948704       2.21078526      12.63095719       21       0.00205807       0.00225118      -0.00129460
O        4.70213008       3.49704232       4.71635833       22      -0.00205807      -0.00225118      -0.00129460
O        1.96492438       5.06469905      11.11283937       23      -0.00205807       0.00225118       0.00129460
O        3.86992333       3.03501282       9.88402251       24      -0.00144004      -0.00594390      -0.00082310
O        1.13271762       5.52672855       5.94517520       25      -0.00144004       0.00594390       0.00082310
O        1.60448808       0.18109903      13.85977405       26       0.00144004      -0.00594390       0.00082310
O        4.34169379       2.67281476       1.96942366       27       0.00144004       0.00594390      -0.00082310
O        1.60448808       2.67281476       5.94517520       28       0.00144004       0.00594390       0.00082310
O        4.34169379       0.18109903       9.88402251       29       0.00144004      -0.00594390      -0.00082310
O        3.86992333       5.52672855       1.96942366       30      -0.00144004       0.00594390      -0.00082310
O        1.13271762       3.03501282      13.85977405       31      -0.00144004      -0.00594390       0.00082310
O        3.53278636       3.78227061      15.00097669       32      -0.00307974       0.00273151       0.00250385
O        0.79558065       4.77947076       0.82822102       33      -0.00307974      -0.00273151      -0.00250385
O        1.94162505       0.92835682       8.74281987       34       0.00307974       0.00273151      -0.00250385
O        4.67883076       1.92555697       7.08637783       35       0.00307974      -0.00273151       0.00250385
O        1.94162505       1.92555697       0.82822102       36       0.00307974      -0.00273151      -0.00250385
O        4.67883076       0.92835682      15.00097669       37       0.00307974       0.00273151       0.00250384
O        3.53278636       4.77947076       7.08637783       38      -0.00307974      -0.00273151       0.00250385
O        0.79558065       3.78227061       8.74281987       39      -0.00307974       0.00273151      -0.00250385
