40
Lattice="5.018963847658972 -3.765627583174697e-42 0.0 3.466850596564196e-42 5.468145163407704 0.0 0.0 0.0 14.702499596645884" Properties=species:S:1:pos:R:3:spacegroup_kinds:I:1:forces:R:3 spacegroup="P 1" unit_cell=conventional occupancy="_JSON {\"0\": {\"In\": 1}, \"1\": {\"In\": 1}, \"2\": {\"In\": 1}, \"3\": {\"In\": 1}, \"4\": {\"In\": 1}, \"5\": {\"In\": 1}, \"6\": {\"In\": 1}, \"7\": {\"In\": 1}, \"8\": {\"In\": 1}, \"9\": {\"In\": 1}, \"10\": {\"In\": 1}, \"11\": {\"In\": 1}, \"12\": {\"In\": 1}, \"13\": {\"In\": 1}, \"14\": {\"In\": 1}, \"15\": {\"In\": 1}, \"16\": {\"O\": 1}, \"17\": {\"O\": 1}, \"18\": {\"O\": 1}, \"19\": {\"O\": 1}, \"20\": {\"O\": 1}, \"21\": {\"O\": 1}, \"22\": {\"O\": 1}, \"23\": {\"O\": 1}, \"24\": {\"O\": 1}, \"25\": {\"O\": 1}, \"26\": {\"O\": 1}, \"27\": {\"O\": 1}, \"28\": {\"O\": 1}, \"29\": {\"O\": 1}, \"30\": {\"O\": 1}, \"31\": {\"O\": 1}, \"32\": {\"O\": 1}, \"33\": {\"O\": 1}, \"34\": {\"O\": 1}, \"35\": {\"O\": 1}, \"36\": {\"O\": 1}, \"37\": {\"O\": 1}, \"38\": {\"O\": 1}, \"39\": {\"O\": 1}}" n_minim_iter=17 energy=-45143.8018310302 stress="-0.23011545812593084 2.37975799093641e-13 -2.2845041260745774e-13 2.37975799093641e-13 -0.23013231927524846 2.731047932672212e-13 -2.2845041260745774e-13 2.731047932672212e-13 -0.23010762662477294" free_energy=-45143.8018310302 pbc="T T T"
In       2.57461530       4.17015273       8.26632005        0      -0.00074337      -0.00253170       0.00226427
In       0.06513337       4.03206501       6.43617955        1      -0.00074337       0.00253170      -0.00226427
In       2.44434855       1.43608015      13.78742935        2       0.00074337      -0.00253170      -0.00226427
In       4.95383047       1.29799243       0.91507025        3       0.00074337       0.00253170       0.00226427
In       2.44434855       1.29799243       6.43617955        4       0.00074337       0.00253170      -0.00226427
In       4.95383047       1.43608015       8.26632005        5       0.00074337      -0.00253170       0.00226427
In       2.57461530       4.03206501       0.91507025        6      -0.00074337       0.00253170       0.00226427
In       0.06513337       4.17015273      13.78742935        7      -0.00074337      -0.00253170      -0.00226427
In       2.49925662       3.70172328      11.93367671        8      -0.00043258      -0.00026120       0.00214781
In       5.00873855       4.50049446       2.76882289        9      -0.00043258       0.00026120      -0.00214781
In       2.51970722       0.96765070      10.12007268       10       0.00043258      -0.00026120      -0.00214781
In       0.01022530       1.76642188       4.58242691       11       0.00043258       0.00026120       0.00214781
In       2.51970722       1.76642188       2.76882289       12       0.00043258       0.00026120      -0.00214781
In       0.01022530       0.96765070      11.93367671       13       0.00043258      -0.00026120       0.00214781
In       2.49925662       4.50049446       4.58242691       14      -0.00043258       0.00026120       0.00214781
In       5.00873855       3.70172328      10.12007268       15      -0.00043258      -0.00026120      -0.00214781
O        4.34583995       4.49567309      11.81494607       16      -0.00300496       0.00354113      -0.00207691
O        1.83635803       3.70654466       2.88755353       17      -0.00300496      -0.00354113       0.00207691
O        0.67312389       1.76160051      10.23880333       18       0.00300496       0.00354113       0.00207691
O        3.18260582       0.97247207       4.46369627       19       0.00300496      -0.00354113      -0.00207691
O        0.67312389       0.97247207       2.88755353       20       0.00300496      -0.00354113       0.00207691
O        3.18260582       1.76160051      11.81494607       21       0.00300496       0.00354113      -0.00207691
O        4.34583995       3.70654466       4.46369627       22      -0.00300496      -0.00354113      -0.00207691
O        1.83635803       4.49567309      10.23880333       23      -0.00300496       0.00354113       0.00207691
O        3.41484206       2.57949747       9.20540975       24       0.00318697      -0.00017051       0.00064438
O        0.90536013       5.62272027       5.49708984       25       0.00318697       0.00017051      -0.00064438
O        1.60412179      -0.15457511      12.84833964       26      -0.00318697      -0.00017051      -0.00064438
O        4.11360371       2.88864769       1.85415996       27      -0.00318697       0.00017051       0.00064438
O        1.60412179       2.88864769       5.49708984       28      -0.00318697       0.00017051      -0.00064438
O        4.11360371      -0.15457511       9.20540975       29      -0.00318697      -0.00017051       0.00064438
O        3.41484206       5.62272027       1.85415996       30       0.00318697       0.00017051       0.00064438
O        0.90536013       2.57949747      12.84833964       31       0.00318697      -0.00017051      -0.00064438
O        3.26783134       3.39327060      13.84145723       32       0.00308155      -0.00368370       0.00105578
O        0.75834941       4.80894715       0.86104237       33       0.00308155       0.00368370      -0.00105578
O        1.75113251       0.65919802       8.21229217       34      -0.00308155      -0.00368370      -0.00105578
O        4.26061443       2.07487457       6.49020743       35      -0.00308155       0.00368370       0.00105578
O        1.75113251       2.07487457       0.86104237       36      -0.00308155       0.00368370      -0.00105578
O        4.26061443       0.65919802      13.84145723       37      -0.00308155      -0.00368370       0.00105578
O        3.26783134       4.80894715       6.49020743       38       0.00308155       0.00368370       0.00105578
O        0.75834941       3.39327060       8.21229217       39       0.00308155      -0.00368370      -0.00105578
