40
Lattice="5.730913476313364 -1.2304600416350475e-42 0.0 1.2334504469430562e-42 5.895058778917977 0.0 0.0 0.0 16.566854163783884" Properties=species:S:1:pos:R:3:spacegroup_kinds:I:1:forces:R:3 spacegroup="P 1" unit_cell=conventional occupancy="_JSON {\"0\": {\"In\": 1}, \"1\": {\"In\": 1}, \"2\": {\"In\": 1}, \"3\": {\"In\": 1}, \"4\": {\"In\": 1}, \"5\": {\"In\": 1}, \"6\": {\"In\": 1}, \"7\": {\"In\": 1}, \"8\": {\"In\": 1}, \"9\": {\"In\": 1}, \"10\": {\"In\": 1}, \"11\": {\"In\": 1}, \"12\": {\"In\": 1}, \"13\": {\"In\": 1}, \"14\": {\"In\": 1}, \"15\": {\"In\": 1}, \"16\": {\"O\": 1}, \"17\": {\"O\": 1}, \"18\": {\"O\": 1}, \"19\": {\"O\": 1}, \"20\": {\"O\": 1}, \"21\": {\"O\": 1}, \"22\": {\"O\": 1}, \"23\": {\"O\": 1}, \"24\": {\"O\": 1}, \"25\": {\"O\": 1}, \"26\": {\"O\": 1}, \"27\": {\"O\": 1}, \"28\": {\"O\": 1}, \"29\": {\"O\": 1}, \"30\": {\"O\": 1}, \"31\": {\"O\": 1}, \"32\": {\"O\": 1}, \"33\": {\"O\": 1}, \"34\": {\"O\": 1}, \"35\": {\"O\": 1}, \"36\": {\"O\": 1}, \"37\": {\"O\": 1}, \"38\": {\"O\": 1}, \"39\": {\"O\": 1}}" n_minim_iter=7 energy=-45149.999225292646 stress="0.023163170499256442 -1.147063395082664e-13 1.1792429383776215e-13 -1.147063395082664e-13 0.02339781050957638 -2.0597004559017955e-13 1.1792429383776215e-13 -2.0597004559017955e-13 0.023231214646467636" free_energy=-45149.999225292646 pbc="T T T"
In       2.85931295       4.69550172       9.45025539        0      -0.00112553      -0.00854908      -0.00036435
In      -0.00614379       4.14708645       7.11659878        1      -0.00112553       0.00854908       0.00036435
In       2.87160053       1.74797233      15.40002586        2       0.00112553      -0.00854908       0.00036435
In       5.73705726       1.19955706       1.16682831        3       0.00112553       0.00854908      -0.00036435
In       2.87160053       1.19955706       7.11659878        4       0.00112553       0.00854908       0.00036435
In       5.73705726       1.74797233       9.45025539        5       0.00112553      -0.00854908      -0.00036435
In       2.85931295       4.14708645       1.16682831        6      -0.00112553       0.00854908      -0.00036435
In      -0.00614379       4.69550172      15.40002586        7      -0.00112553      -0.00854908       0.00036435
In       2.84287874       4.38185553      13.54727603        8      -0.00279546      -0.00642633      -0.00031300
In       5.70833548       4.46073264       3.01957813        9      -0.00279546       0.00642633       0.00031300
In       2.88803473       1.43432614      11.30300521       10       0.00279546      -0.00642633       0.00031300
In       0.02257799       1.51320325       5.26384895       11       0.00279546       0.00642633      -0.00031300
In       2.88803473       1.51320325       3.01957813       12       0.00279546       0.00642633       0.00031300
In       0.02257799       1.43432614      13.54727603       13       0.00279546      -0.00642633      -0.00031300
In       2.84287874       4.46073264       5.26384895       14      -0.00279546       0.00642633      -0.00031300
In       5.70833548       4.38185553      11.30300521       15      -0.00279546      -0.00642633       0.00031300
O        4.92353550       5.16180545      13.22743977       16      -0.00286618      -0.00410197      -0.00571709
O        2.05807876       3.68078272       3.33941439       17      -0.00286618       0.00410197       0.00571709
O        0.80737798       2.21427606      11.62284147       18       0.00286618      -0.00410197       0.00571709
O        3.67283471       0.73325333       4.94401269       19       0.00286618       0.00410197      -0.00571709
O        0.80737798       0.73325333       3.33941439       20       0.00286618       0.00410197       0.00571709
O        3.67283471       2.21427606      13.22743977       21       0.00286618      -0.00410197      -0.00571709
O        4.92353550       3.68078272       4.94401269       22      -0.00286618       0.00410197      -0.00571709
O        2.05807876       5.16180545      11.62284147       23      -0.00286618      -0.00410197       0.00571709
O        4.03472716       3.09549222      10.34459916       24       0.00471178      -0.00607716       0.00569919
O        1.16927043       5.74709595       6.22225501       25       0.00471178       0.00607716      -0.00569919
O        1.69618631       0.14796283      14.50568209       26      -0.00471178      -0.00607716      -0.00569919
O        4.56164305       2.79956656       2.06117208       27      -0.00471178       0.00607716       0.00569919
O        1.69618631       2.79956656       6.22225501       28      -0.00471178       0.00607716      -0.00569919
O        4.56164305       0.14796283      10.34459916       29      -0.00471178      -0.00607716       0.00569919
O        4.03472716       5.74709595       2.06117208       30       0.00471178       0.00607716       0.00569919
O        1.16927043       3.09549222      14.50568209       31       0.00471178      -0.00607716      -0.00569919
O        3.70750940       3.88988960      15.71028090       32      -0.00072058      -0.00404856      -0.00816966
O        0.84205267       4.95269857       0.85657327       33      -0.00072058       0.00404856       0.00816966
O        2.02340407       0.94236021       9.14000035       34       0.00072058      -0.00404856       0.00816966
O        4.88886081       2.00516918       7.42685381       35       0.00072058       0.00404856      -0.00816966
O        2.02340407       2.00516918       0.85657327       36       0.00072058       0.00404856       0.00816966
O        4.88886081       0.94236021      15.71028090       37       0.00072058      -0.00404856      -0.00816966
O        3.70750940       4.95269857       7.42685381       38      -0.00072058       0.00404856      -0.00816966
O        0.84205267       3.88988960       9.14000035       39      -0.00072058      -0.00404856       0.00816966
