80
Lattice="11.758812762970885 0.0 0.0 6.452317444010323 9.830426094342354 0.0 6.452317444010323 3.4829815090918417 9.192720870539437" Properties=species:S:1:pos:R:3:initial_magmoms:R:1:forces:R:3 uid=supercell-002.xyz_R3c type=Bulk energy=-90301.48618061238 stress="0.0022458671939614484 -0.0008654266564368133 -0.0005856830262491139 -0.0008654266564368133 0.0033802251238085226 -0.0003581769381707793 -0.0005856830262491139 -0.0003581769381707793 0.0036187391065073712" virial="-2.043471211743105e-06 8.182525317212349e-07 5.58174377499385e-07 8.182525317212349e-07 -3.1097052393502893e-06 3.4389071554915676e-07 5.58174377499385e-07 3.4389071554915676e-07 -3.3248529483245103e-06" pbc="T T T"
In      10.56035509       5.70622635       3.94006911      10.00000000       0.13494918      -0.00945054      -0.00659279
In      16.45034502       5.70622635       3.94006911      10.00000000      -0.00429723       0.00103930       0.00058404
In      13.79709736      10.62143940       3.94006911      10.00000000      -0.00014742      -0.00181694       0.00055154
In      19.67650374      10.62143940       3.94006911      10.00000000      -0.00062107       0.00656748       0.00084769
In      13.79709736       7.44771711       8.53642955      10.00000000       0.00032743      -0.00043969      -0.00197188
In      19.67650374       7.44771711       8.53642955      10.00000000      -0.00011251       0.00309967       0.00549794
In      17.02325608      12.36293015       8.53642955      10.00000000       0.00231698       0.00119083       0.00115470
In      22.90266246      12.36293015       8.53642955      10.00000000       0.00151805       0.00091590       0.00063814
In       7.92664710       4.27882935       2.95447155      10.00000000      -0.02282037      -0.01886325      -0.01295977
In      13.80605348       4.27882935       2.95447155      10.00000000      -0.01258144       0.00585752       0.00455778
In      11.15280582       9.19404240       2.95447155      10.00000000       0.00226294      -0.00390994       0.00030424
In      17.03221221       9.19404240       2.95447155      10.00000000      -0.00214668      -0.00111916      -0.00036117
In      11.15280582       6.02032010       7.55083198      10.00000000       0.00226222      -0.00152536      -0.00308478
In      17.03221221       6.02032010       7.55083198      10.00000000      -0.00214563      -0.00064570      -0.00039789
In      14.37896455      10.93553315       7.55083198      10.00000000      -0.00183740      -0.00085252      -0.00068075
In      20.25837093      10.93553315       7.55083198      10.00000000      -0.00216884      -0.00104510      -0.00097148
In       4.40507673       2.37787445       1.64188889      10.00000000       0.00077303       0.00069068       0.00037911
In      10.28448311       2.37787445       1.64188889      10.00000000       0.00462245      -0.00011835      -0.00006916
In       7.63123545       7.29308750       1.64188889      10.00000000      -0.00275898       0.00584548      -0.00594510
In      13.51064183       7.29308750       1.64188889      10.00000000      -0.00310577      -0.00302134       0.00638615
In       7.63123545       4.11936520       6.23824933      10.00000000      -0.00296374      -0.00271955       0.00689691
In      13.51064183       4.11936520       6.23824933      10.00000000      -0.00332040       0.00502742      -0.00565014
In      10.85739417       9.03457825       6.23824933      10.00000000       0.00461974       0.00095655       0.00012568
In      16.73680055       9.03457825       6.23824933      10.00000000       0.00076111       0.00068666       0.00038229
In       1.76078518       0.95047746       0.65629133      10.00000000      -0.00150526      -0.00050905      -0.00035486
In       7.64019156       0.95047746       0.65629133      10.00000000      -0.00213809      -0.00101283      -0.00119344
In       4.98694390       5.86569050       0.65629133      10.00000000      -0.00268977      -0.00111288      -0.00061860
In      10.86635028       5.86569050       0.65629133      10.00000000       0.00576238       0.00005176       0.00287598
In       4.98694390       2.69196821       5.25265176      10.00000000      -0.00207361      -0.00137145      -0.00060862
In      10.86635028       2.69196821       5.25265176      10.00000000       0.00786751       0.00021041      -0.00150336
In       8.21310263       7.60718126       5.25265176      10.00000000      -0.01557775       0.01674993       0.01034079
In      14.09250901       7.60718126       5.25265176      10.00000000      -0.00891051      -0.00597854      -0.00412789
O        6.02263415       2.30932705       0.21474656       4.00000000       0.00014331       0.00926004      -0.01204523
O       11.90204053       2.30932705       0.21474656       4.00000000      -0.00016246       0.00793048      -0.01370035
O        9.24879287       7.22454010       0.21474656       4.00000000      -0.00099782       0.00841782      -0.01151294
O       15.12819925       7.22454010       0.21474656       4.00000000       0.00016801       0.00913771      -0.01307508
O        9.24879287       4.05081780       4.81110699       4.00000000      -0.01465410       0.00530117      -0.01128208
O       15.12819925       4.05081780       4.81110699       4.00000000       0.00439313       0.00699346      -0.01153017
O       12.47495159       8.96603085       4.81110699       4.00000000      -0.00014164       0.01195117      -0.01162735
O       18.35435798       8.96603085       4.81110699       4.00000000       0.00073114       0.00755276      -0.01346984
O        7.09636398       5.12094207       1.14909010       4.00000000      -0.00510856       0.01556103       0.00350750
O       12.97577036       5.12094207       1.14909010       4.00000000      -0.00671686       0.01294146      -0.00404922
O       10.32252270      10.03615511       1.14909010       4.00000000      -0.00843381       0.01409540      -0.00048168
O       16.20192908      10.03615511       1.14909010       4.00000000      -0.00726583       0.01378305      -0.00016899
O       10.32252270       6.86243282       5.74545054       4.00000000      -0.01763081       0.01650517       0.00213991
O       16.20192908       6.86243282       5.74545054       4.00000000      -0.00691308       0.01413919      -0.00003294
O       13.54868142      11.77764587       5.74545054       4.00000000      -0.00594716       0.01578878      -0.00081420
O       19.42808780      11.77764587       5.74545054       4.00000000      -0.00658857       0.01052070       0.00140616
O        8.17506304       2.18091283       2.51292678       4.00000000       0.00895935      -0.00212613      -0.01219013
O       14.05446942       2.18091283       2.51292678       4.00000000       0.00823844      -0.00669663      -0.01340571
O       11.40122176       7.09612588       2.51292678       4.00000000      -0.00719500      -0.01564114      -0.00292258
O       17.28062814       7.09612588       2.51292678       4.00000000       0.01125363      -0.00571429      -0.01156356
O       11.40122176       3.92240358       7.10928721       4.00000000       0.00513541      -0.00557539      -0.01183879
O       17.28062814       3.92240358       7.10928721       4.00000000       0.00779332      -0.00500887      -0.01277552
O       14.62738048       8.83761663       7.10928721       4.00000000       0.00745373      -0.00453727      -0.01282209
O       20.50678687       8.83761663       7.10928721       4.00000000       0.00757964      -0.00645453      -0.01436282
O        4.15666079       4.47579097       2.08343366       4.00000000      -0.00527455       0.00482571       0.01232648
O       10.03606717       4.47579097       2.08343366       4.00000000      -0.01916519       0.00271430       0.01115241
O        7.38281951       9.39100402       2.08343366       4.00000000      -0.00712453       0.00332290       0.01370703
O       13.26222589       9.39100402       2.08343366       4.00000000      -0.00613159       0.00718109       0.01161243
O        7.38281951       6.21728172       6.67979410       4.00000000      -0.00499159       0.00438987       0.00964281
O       13.26222589       6.21728172       6.67979410       4.00000000      -0.00586088       0.00611642       0.01689014
O       10.60897823      11.13249477       6.67979410       4.00000000      -0.00745747       0.00482918       0.01303429
O       16.48838462      11.13249477       6.67979410       4.00000000      -0.00825969       0.00513522       0.01280247
O        6.30908968       4.34737676       4.38161388       4.00000000       0.00540328      -0.00762917       0.01293556
O       12.18849606       4.34737676       4.38161388       4.00000000      -0.03219133       0.00832988       0.00761596
O        9.53524840       9.26258981       4.38161388       4.00000000      -0.00199181      -0.01215243       0.01272946
O       15.41465478       9.26258981       4.38161388       4.00000000       0.00025847      -0.00875228       0.01313782
O        9.53524840       6.08886751       8.97797431       4.00000000      -0.00053921      -0.00906909       0.01249967
O       15.41465478       6.08886751       8.97797431       4.00000000      -0.00008577      -0.00825149       0.01382519
O       12.76140712      11.00408056       8.97797431       4.00000000       0.00008173      -0.00869287       0.01322803
O       18.64081350      11.00408056       8.97797431       4.00000000      -0.00000823      -0.00780722       0.01078742
O        5.23535984       1.53576173       3.44727032       4.00000000       0.00785175      -0.01337699       0.00007514
O       11.11476623       1.53576173       3.44727032       4.00000000       0.00596897      -0.01526362      -0.00015150
O        8.46151857       6.45097478       3.44727032       4.00000000      -0.01125662      -0.01082044      -0.00198792
O       14.34092495       6.45097478       3.44727032       4.00000000       0.01326723      -0.01187726      -0.00113551
O        8.46151857       3.27725249       8.04363076       4.00000000       0.00731321      -0.01363877      -0.00045200
O       14.34092495       3.27725249       8.04363076       4.00000000       0.00761787      -0.01388751       0.00011765
O       11.68767729       8.19246553       8.04363076       4.00000000       0.00718632      -0.01329044       0.00078464
O       17.56708367       8.19246553       8.04363076       4.00000000       0.00717565      -0.01383755      -0.00099127
