80
Lattice="11.758812762970885 0.0 0.0 6.452317444010323 9.830426094342354 0.0 6.452317444010323 3.4829815090918417 9.192720870539437" Properties=species:S:1:pos:R:3:initial_magmoms:R:1:forces:R:3 uid=supercell-003.xyz_R3c type=Bulk energy=-90301.48655483079 stress="0.002298006766356598 -0.0008636978984669288 -0.0005978449556141371 -0.0008636978984669288 0.0033872019395663057 -0.00031889082707370835 -0.0005978449556141371 -0.00031889082707370835 0.0036464778920334675" virial="-2.085809515918755e-06 7.931951680254419e-07 5.538541423794208e-07 7.931951680254419e-07 -3.0906962048224462e-06 2.9118384708559254e-07 5.538541423794208e-07 2.9118384708559254e-07 -3.3473181709483243e-06" pbc="T T T"
In      10.57093864       5.70622635       3.94006911      10.00000000       0.00139825       0.00071603       0.00006889
In      16.45034502       5.70622635       3.94006911      10.00000000       0.00266948       0.00052247      -0.00025287
In      13.79709736      10.62143940       3.94006911      10.00000000       0.00272102       0.00209681       0.00126354
In      19.67650374      10.62143940       3.94006911      10.00000000       0.00148973       0.00093606       0.00076255
In      13.79709736       7.44771711       8.53642955      10.00000000       0.01304405       0.01591575      -0.00192168
In      19.67650374       7.44771711       8.53642955      10.00000000       0.00096478       0.00179929       0.00040541
In      17.02325608      12.36293015       8.53642955      10.00000000      -0.00070598      -0.00437939      -0.00116953
In      22.90266246      12.36293015       8.53642955      10.00000000       0.00251170       0.00079557       0.00077551
In       7.92664710       4.27882935       2.95447155      10.00000000      -0.00351795      -0.00157108      -0.00515467
In      13.80605348       4.27882935       2.95447155      10.00000000      -0.00133456      -0.00027444      -0.00098920
In      11.15280582       9.19404240       2.95447155      10.00000000      -0.00215054      -0.00359812       0.00321319
In      17.03221221       9.19404240       2.95447155      10.00000000      -0.00178998      -0.00093000      -0.00067770
In      11.15280582       6.02032010       7.55083198      10.00000000       0.00601057       0.00802774       0.00017061
In      17.03221221       6.02032010       7.55083198      10.00000000      -0.00466613      -0.00059992       0.00089776
In      14.37896455      10.93553315       7.55083198      10.00000000      -0.00264164      -0.00308593       0.00002044
In      20.25837093      10.93553315       7.55083198      10.00000000      -0.00076732      -0.00204939      -0.00105330
In       4.40507673       2.37787445       1.64188889      10.00000000       0.01857695       0.00742456      -0.00930587
In      10.28448311       2.37787445       1.64188889      10.00000000      -0.00161901       0.00136291      -0.00065595
In       7.63123545       7.29308750       1.64188889      10.00000000       0.00090514      -0.00303749      -0.00040309
In      13.51064183       7.29308750       1.64188889      10.00000000       0.00244190      -0.00042819       0.00109455
In       7.63123545       4.11936520       6.23824933      10.00000000       0.00139626       0.00119159       0.00009331
In      13.51064183       4.11936520       6.23824933      10.00000000       0.00393887       0.00228737      -0.00097685
In      10.85739417       9.03457825       6.23824933      10.00000000       0.00310843      -0.00008239       0.00302805
In      16.73680055       9.03457825       6.23824933      10.00000000       0.00140702       0.00078175       0.00086608
In       1.76078518       0.95047746       0.65629133      10.00000000      -0.00442619      -0.00067672      -0.00072222
In       7.64019156       0.95047746       0.65629133      10.00000000       0.00132997       0.00928490      -0.00240141
In       4.98694390       5.86569050       0.65629133      10.00000000       0.00201407      -0.00431376      -0.00121738
In      10.86635028       5.86569050       0.65629133      10.00000000      -0.00204359      -0.00141141      -0.00051115
In       4.98694390       2.69196821       5.25265176      10.00000000      -0.00133704      -0.00005716      -0.00066770
In      10.86635028       2.69196821       5.25265176      10.00000000      -0.00229021      -0.00243964      -0.00346522
In       8.21310263       7.60718126       5.25265176      10.00000000      -0.00199259      -0.00102295      -0.00080360
In      14.09250901       7.60718126       5.25265176      10.00000000      -0.00267748      -0.00137373       0.00210592
O        6.02844157       2.31817494       0.21474656       4.00000000      -0.06800766      -0.04436328       0.00955870
O       11.90204053       2.30932705       0.21474656       4.00000000       0.00280075       0.00927942      -0.01311209
O        9.24879287       7.22454010       0.21474656       4.00000000       0.00208885       0.01224716      -0.01290746
O       15.12819925       7.22454010       0.21474656       4.00000000      -0.00035626       0.01054228      -0.01300006
O        9.24879287       4.05081780       4.81110699       4.00000000       0.00129591       0.00930082      -0.01124034
O       15.12819925       4.05081780       4.81110699       4.00000000       0.00024214       0.00929491      -0.01295630
O       12.47495159       8.96603085       4.81110699       4.00000000       0.00006589       0.01063134      -0.01476131
O       18.35435798       8.96603085       4.81110699       4.00000000       0.00046690       0.00905905      -0.01301200
O        7.09636398       5.12094207       1.14909010       4.00000000      -0.00346033       0.02469739       0.00546506
O       12.97577036       5.12094207       1.14909010       4.00000000      -0.00792930       0.01337799      -0.00016953
O       10.32252270      10.03615511       1.14909010       4.00000000       0.00061706       0.02200307      -0.00431765
O       16.20192908      10.03615511       1.14909010       4.00000000      -0.00806231       0.01281074      -0.00001191
O       10.32252270       6.86243282       5.74545054       4.00000000      -0.00769748       0.01259460       0.00045790
O       16.20192908       6.86243282       5.74545054       4.00000000      -0.00688973       0.01351408      -0.00074461
O       13.54868142      11.77764587       5.74545054       4.00000000      -0.00786723       0.01334025       0.00037060
O       19.42808780      11.77764587       5.74545054       4.00000000      -0.00805437       0.01428535       0.00073342
O        8.17506304       2.18091283       2.51292678       4.00000000       0.00911754      -0.00873285      -0.00756420
O       14.05446942       2.18091283       2.51292678       4.00000000       0.00875831      -0.00549145      -0.01391137
O       11.40122176       7.09612588       2.51292678       4.00000000       0.00766507      -0.00336634      -0.01424455
O       17.28062814       7.09612588       2.51292678       4.00000000       0.00680841      -0.00351872      -0.01226380
O       11.40122176       3.92240358       7.10928721       4.00000000       0.00917290      -0.00183138      -0.00495395
O       17.28062814       3.92240358       7.10928721       4.00000000       0.00766699      -0.00542806      -0.01339694
O       14.62738048       8.83761663       7.10928721       4.00000000       0.00879548      -0.00363349      -0.01510179
O       20.50678687       8.83761663       7.10928721       4.00000000       0.00680416      -0.00506264      -0.01316257
O        4.15666079       4.47579097       2.08343366       4.00000000      -0.01014331       0.00421429       0.01454545
O       10.03606717       4.47579097       2.08343366       4.00000000      -0.00356284       0.00601748       0.01452322
O        7.38281951       9.39100402       2.08343366       4.00000000      -0.00741773       0.00488240       0.01249041
O       13.26222589       9.39100402       2.08343366       4.00000000      -0.01012949       0.00783294       0.00974190
O        7.38281951       6.21728172       6.67979410       4.00000000      -0.00718557       0.00513162       0.01310412
O       13.26222589       6.21728172       6.67979410       4.00000000      -0.00834859       0.00060721       0.00567873
O       10.60897823      11.13249477       6.67979410       4.00000000      -0.00816337       0.00521543       0.01264965
O       16.48838462      11.13249477       6.67979410       4.00000000      -0.00718446       0.00595782       0.01400300
O        6.30908968       4.34737676       4.38161388       4.00000000      -0.00014354      -0.00908016       0.01385121
O       12.18849606       4.34737676       4.38161388       4.00000000      -0.00056359      -0.00948598       0.01307072
O        9.53524840       9.26258981       4.38161388       4.00000000       0.00107314      -0.00800168       0.01156752
O       15.41465478       9.26258981       4.38161388       4.00000000      -0.00036156      -0.00903705       0.01297576
O        9.53524840       6.08886751       8.97797431       4.00000000       0.00924282      -0.01438029       0.01517643
O       15.41465478       6.08886751       8.97797431       4.00000000       0.01426387      -0.01141058       0.01046334
O       12.76140712      11.00408056       8.97797431       4.00000000      -0.00037064      -0.00775824       0.01227261
O       18.64081350      11.00408056       8.97797431       4.00000000      -0.00010372      -0.00696863       0.01311945
O        5.23535984       1.53576173       3.44727032       4.00000000       0.00707659      -0.01526641      -0.00406868
O       11.11476623       1.53576173       3.44727032       4.00000000       0.00714207      -0.01368177       0.00023219
O        8.46151857       6.45097478       3.44727032       4.00000000       0.00781997      -0.01251130       0.00096438
O       14.34092495       6.45097478       3.44727032       4.00000000       0.00695605      -0.01400639      -0.00045186
O        8.46151857       3.27725249       8.04363076       4.00000000       0.01096621      -0.01237147       0.00156038
O       14.34092495       3.27725249       8.04363076       4.00000000       0.00436586      -0.01347787       0.00162963
O       11.68767729       8.19246553       8.04363076       4.00000000      -0.00000171      -0.00664641      -0.00670906
O       17.56708367       8.19246553       8.04363076       4.00000000       0.00876388      -0.01313627      -0.00056020
