1
Lattice="3.8436211803596603 0.5238554359886655 -3.619139277655092e-10 0.7886155001586327 3.7981487449590254 -8.032805661583718e-10 -2.316118340108595 -2.161002090031553 2.2390877824275055" Properties=species:S:1:pos:R:3:spacegroup_kinds:I:1:forces:R:3 spacegroup="P 1" unit_cell=conventional occupancy="_JSON {\"0\": {\"In\": 1}}" n_minim_iter=2 energy=-1968.9911819068227 stress="-0.06502304266532889 0.0029400297306708227 -2.429947361667113e-13 0.0029400297306708227 -0.06543097850609492 -2.2666338866497648e-13 -2.429947361667113e-13 -2.2666338866497648e-13 -0.06817410706482685" free_energy=-1968.9911819068227 pbc="T T T"
In       0.00000000       0.00000000       0.00000000        0      -0.00000000       0.00000000       0.00000000
