1
Lattice="3.9422947480534782 0.5846259119905696 -3.805551519497813e-10 0.8560694329119912 3.8923797943590484 -8.264315581225064e-10 -2.399182090330645 -2.238502852727996 2.261969410329446" Properties=species:S:1:pos:R:3:spacegroup_kinds:I:1:forces:R:3 spacegroup="P 1" unit_cell=conventional occupancy="_JSON {\"0\": {\"In\": 1}}" n_minim_iter=2 energy=-1969.0433050295323 stress="-0.05170317729138254 6.562453343343185e-05 -3.751339473770728e-13 6.562453343343185e-05 -0.0517122828448386 -1.1998377632551015e-13 -3.751339473770728e-13 -1.1998377632551015e-13 -0.05177351232868127" free_energy=-1969.0433050295323 pbc="T T T"
In       0.00000000       0.00000000       0.00000000        0       0.00000000       0.00000000       0.00000000
