1
Lattice="4.220069240802627 0.7531404953875873 -4.3251553391084936e-10 1.0434046533058337 4.15782536098149 -8.914578115611132e-10 -2.631736946897685 -2.4554829277246353 2.3282545472837874" Properties=species:S:1:pos:R:3:spacegroup_kinds:I:1:forces:R:3 spacegroup="P 1" unit_cell=conventional occupancy="_JSON {\"0\": {\"In\": 1}}" n_minim_iter=1 energy=-1969.0123880469687 stress="0.04986673940980068 -0.01426038104724849 3.0584073805529206e-12 -0.01426038104724849 0.05184539985140062 3.0183105509425996e-12 3.0584073805529206e-12 3.0183105509425996e-12 0.0651507274360973" free_energy=-1969.0123880469687 pbc="T T T"
In       0.00000000       0.00000000       0.00000000        0       0.00000000      -0.00000000       0.00000000
1
Lattice="4.239764993166005 0.788389007966236 -4.4080255179933844e-10 1.079931783278906 4.175034343406285 -8.973131242995782e-10 -2.6598483880667385 -2.4817116752287944 2.315918422287319" Properties=species:S:1:pos:R:3:spacegroup_kinds:I:1:forces:R:3 spacegroup="P 1" unit_cell=conventional occupancy="_JSON {\"0\": {\"In\": 1}}" n_minim_iter=2 energy=-1969.0206205566526 stress="0.0480872025039981 -0.005256222290406315 1.8523724273216442e-12 -0.005256222290406315 0.04881651535020496 -1.989553385597781e-13 1.8523724273216442e-12 -1.989553385597781e-13 0.053720715249755906" free_energy=-1969.0206205566526 pbc="T T T"
In       0.00000000       0.00000000       0.00000000        0       0.00000000       0.00000000       0.00000000
