1
Lattice="4.666405933858145 1.2247242319811453 -5.556769275083063e-10 1.5447484597524792 4.57045358580969 -1.0066705359071529e-09 -3.105577196651477 -2.8975889084434794 2.2879384994470437" Properties=species:S:1:pos:R:3:spacegroup_kinds:I:1:forces:R:3 spacegroup="P 1" unit_cell=conventional occupancy="_JSON {\"0\": {\"In\": 1}}" n_minim_iter=2 energy=-1968.9386879219762 stress="-0.03138917912309617 0.0063497049859411354 -1.422985325778113e-12 0.0063497049859411354 -0.03227021518948608 -1.9067962512127584e-12 -1.422985325778113e-12 -1.9067962512127584e-12 -0.03819466451970947" free_energy=-1968.9386879219762 pbc="T T T"
In       0.00000000       0.00000000       0.00000000        0      -0.00000000       0.00000000      -0.00000000
