1
Lattice="4.37170775424435 0.8690129629482828 -4.6559772282420523e-10 1.1694941426894363 4.301080755869092 -9.282332146704985e-10 -2.77060094830909 -2.5850468589450846 2.3469800469069315" Properties=species:S:1:pos:R:3:spacegroup_kinds:I:1:forces:R:3 spacegroup="P 1" unit_cell=conventional occupancy="_JSON {\"0\": {\"In\": 1}}" n_minim_iter=1 energy=-1968.9426362581999 stress="0.03923270970253912 -0.008151726606759608 4.4486261712077525e-12 -0.008151726606759608 0.040363780380829134 4.150682734562412e-12 4.4486261712077525e-12 4.150682734562412e-12 0.047969565430163216" free_energy=-1968.9426362581999 pbc="T T T"
In       0.00000000       0.00000000       0.00000000        0       0.00000000      -0.00000000      -0.00000000
