1
Lattice="4.339796340998933 0.8626695764880731 -4.621990781355836e-10 1.1609573847510253 4.269684886538807 -9.214575481880548e-10 -2.7503768627183276 -2.566177231053221 2.3298481949246295" Properties=species:S:1:pos:R:3:spacegroup_kinds:I:1:forces:R:3 spacegroup="P 1" unit_cell=conventional occupancy="_JSON {\"0\": {\"In\": 1}}" n_minim_iter=1 energy=-1968.9426362581999 stress="0.03923270970253912 -0.008151726606759608 4.4486261712077525e-12 -0.008151726606759608 0.040363780380829134 4.150682734562412e-12 4.4486261712077525e-12 4.150682734562412e-12 0.047969565430163216" free_energy=-1968.9426362581999 pbc="T T T"
In       0.00000000       0.00000000       0.00000000        0       0.00000000      -0.00000000      -0.00000000
