1
Lattice="3.8118883285439424 0.4622083039094118 -3.476043174322205e-10 0.7249199661134069 3.770758569336212 -7.935865499858747e-10 -2.2684041471765473 -2.116483436175893 2.262514007682086" Properties=species:S:1:pos:R:3:spacegroup_kinds:I:1:forces:R:3 spacegroup="P 1" unit_cell=conventional occupancy="_JSON {\"0\": {\"In\": 1}}" n_minim_iter=2 energy=-1968.9334564998262 stress="-0.0727476966618694 0.007882640347835375 -2.6681450094262773e-12 0.007882640347835375 -0.07384143101442503 -2.489444384235329e-12 -2.6681450094262773e-12 -2.489444384235329e-12 -0.08119615119640562" free_energy=-1968.9334564998262 pbc="T T T"
In       0.00000000       0.00000000       0.00000000        0       0.00000000       0.00000000      -0.00000000
