1
Lattice="3.430628950157361 -1.6865419255680497e-10 -2.3066451979737374e-10 0.23743309816913089 3.4224027404079136 -6.919959935049467e-10 -1.834031024005886 -1.7112013696573336 2.3403707119011243" Properties=species:S:1:pos:R:3:spacegroup_kinds:I:1:forces:R:3 spacegroup="P 1" unit_cell=conventional occupancy="_JSON {\"0\": {\"In\": 1}}" n_minim_iter=1 energy=-1969.6847085217182 stress="0.009938957601997811 -0.04227961704810372 1.171458396711634e-11 -0.04227961704810372 0.01580535103007518 1.069228832628142e-11 1.171458396711634e-11 1.069228832628142e-11 0.05525339616557064" free_energy=-1969.6847085217182 pbc="T T T"
In       0.00000000       0.00000000       0.00000000        0       0.00000000      -0.00000000       0.00000000
1
Lattice="3.4069800349093664 0.10717906905977628 -2.5024568757598885e-10 0.3427184293047765 3.3913926917021 -6.929495865817368e-10 -1.874849231956065 -1.7492858799373077 2.245871674606823" Properties=species:S:1:pos:R:3:spacegroup_kinds:I:1:forces:R:3 spacegroup="P 1" unit_cell=conventional occupancy="_JSON {\"0\": {\"In\": 1}}" n_minim_iter=2 energy=-1969.8197686533113 stress="-0.04177030154682902 -0.03869059490569618 1.0325037917715166e-11 -0.03869059490569618 -0.03640189313799772 9.946428064138029e-12 1.0325037917715166e-11 9.946428064138029e-12 -0.0003025043372646166" free_energy=-1969.8197686533113 pbc="T T T"
In       0.00000000       0.00000000       0.00000000        0      -0.00000000      -0.00000000       0.00000000
1
Lattice="3.453196528270071 0.23960743873305207 -2.7951187295454983e-10 0.47802788632654325 3.428333024583063 -7.093446081479932e-10 -1.9656122071516908 -1.833970231227326 2.1805732800392024" Properties=species:S:1:pos:R:3:spacegroup_kinds:I:1:forces:R:3 spacegroup="P 1" unit_cell=conventional occupancy="_JSON {\"0\": {\"In\": 1}}" n_minim_iter=3 energy=-1969.8701912414463 stress="-0.13245841332810057 -0.013034747298066704 3.4218022385251012e-12 -0.013034747298066704 -0.13064981236995632 3.49001048819571e-12 3.4218022385251012e-12 3.49001048819571e-12 -0.11848803476578726" free_energy=-1969.8701912414463 pbc="T T T"
In       0.00000000       0.00000000       0.00000000        0       0.00000000       0.00000000      -0.00000000
1
Lattice="3.728508563637419 0.6236756994186198 -3.7388872304911194e-10 0.8802294876897725 3.676403614425961 -7.8538931865677e-10 -2.304369025523232 -2.1500396565099287 2.087572838682914" Properties=species:S:1:pos:R:3:spacegroup_kinds:I:1:forces:R:3 spacegroup="P 1" unit_cell=conventional occupancy="_JSON {\"0\": {\"In\": 1}}" n_minim_iter=4 energy=-1970.1617315481608 stress="-0.13770215560357024 0.03779464712254305 -1.0310738602777156e-11 0.03779464712254305 -0.14294624921103735 -9.616445893198914e-12 -1.0310738602777156e-11 -9.616445893198914e-12 -0.17820969409655024" free_energy=-1970.1617315481608 pbc="T T T"
In       0.00000000       0.00000000       0.00000000        0       0.00000000      -0.00000000      -0.00000000
1
Lattice="3.868536603423426 0.7307324446620193 -4.0445174467326407e-10 0.9967208353247549 3.808686510352107 -8.193517552232015e-10 -2.4326287192325666 -2.269709477091294 2.10482345142662" Properties=species:S:1:pos:R:3:spacegroup_kinds:I:1:forces:R:3 spacegroup="P 1" unit_cell=conventional occupancy="_JSON {\"0\": {\"In\": 1}}" n_minim_iter=5 energy=-1970.3162146532777 stress="-0.06119113973821599 0.0384442156574808 -1.0452473087543703e-11 0.0384442156574808 -0.06652536246365084 -9.765072279109414e-12 -1.0452473087543703e-11 -9.765072279109414e-12 -0.10239487265138467" free_energy=-1970.3162146532777 pbc="T T T"
In       0.00000000       0.00000000       0.00000000        0       0.00000000       0.00000000      -0.00000000
1
Lattice="3.838758686364592 0.5854660959229958 -3.737552190524272e-10 0.8497418934319063 3.7890338499625056 -8.055872976442163e-10 -2.344250289750949 -2.1872499725100134 2.1907229259704324" Properties=species:S:1:pos:R:3:spacegroup_kinds:I:1:forces:R:3 spacegroup="P 1" unit_cell=conventional occupancy="_JSON {\"0\": {\"In\": 1}}" n_minim_iter=6 energy=-1970.376511266923 stress="0.008225301994352417 -0.022637338099440414 6.170954624538789e-12 -0.022637338099440414 0.01136628435736587 5.5621929116033574e-12 6.170954624538789e-12 5.5621929116033574e-12 0.032487543192076175" free_energy=-1970.376511266923 pbc="T T T"
In       0.00000000       0.00000000       0.00000000        0      -0.00000000       0.00000000      -0.00000000
1
Lattice="3.889030834996483 0.6712279401639593 -3.940761367858122e-10 0.9387774164217775 3.8332498934489836 -8.203089808869728e-10 -2.4139041255637412 -2.2522389163793464 2.1623123084658533" Properties=species:S:1:pos:R:3:spacegroup_kinds:I:1:forces:R:3 spacegroup="P 1" unit_cell=conventional occupancy="_JSON {\"0\": {\"In\": 1}}" n_minim_iter=7 energy=-1970.3970574683426 stress="-0.004066691876007189 -0.001320792314928109 3.4125221908894014e-13 -0.001320792314928109 -0.003883428925449224 2.9815878902942375e-13 3.4125221908894014e-13 2.9815878902942375e-13 -0.0026510933830414312" free_energy=-1970.3970574683426 pbc="T T T"
In       0.00000000       0.00000000       0.00000000        0      -0.00000000      -0.00000000      -0.00000000
