1
Lattice="3.8563483584393796 0.6655871025492331 -3.9076663606626387e-10 0.9308881575790723 3.8010361864624524 -8.134185727984451e-10 -2.3936182578650587 -2.2333116440823058 2.1441407576787976" Properties=species:S:1:pos:R:3:spacegroup_kinds:I:1:forces:R:3 spacegroup="P 1" unit_cell=conventional occupancy="_JSON {\"0\": {\"In\": 1}}" n_minim_iter=1 energy=-1970.3833026413738 stress="-0.02862328038105512 0.00982841953420413 -2.6582184936696242e-12 0.00982841953420413 -0.02998699603848756 -2.475132939042312e-12 -2.6582184936696242e-12 -2.475132939042312e-12 -0.039157181685326545" free_energy=-1970.3833026413738 pbc="T T T"
In       0.00000000       0.00000000       0.00000000        0      -0.00000000      -0.00000000      -0.00000000
