1
Lattice="3.353483454882233 0.18135868340737657 -2.613035574038335e-10 0.4130176835180259 3.33289043434037 -6.86123583743542e-10 -1.883250569055224 -1.7571245584481638 2.1551387042294183" Properties=species:S:1:pos:R:3:spacegroup_kinds:I:1:forces:R:3 spacegroup="P 1" unit_cell=conventional occupancy="_JSON {\"0\": {\"In\": 1}}" n_minim_iter=1 energy=-1969.5552319173198 stress="-0.28131433247528337 0.005682170772538579 -1.6965678713142875e-12 0.005682170772538579 -0.28210274664732415 -1.3921260956283563e-12 -1.6965678713142875e-12 -1.3921260956283563e-12 -0.287404368202947" free_energy=-1969.5552319173198 pbc="T T T"
In       0.00000000       0.00000000       0.00000000        0       0.00000000      -0.00000000       0.00000000
