1
Lattice="3.9211730433043246 0.6767755300880727 -3.973355644306672e-10 0.9465362593195488 3.864931081333255 -8.270915834687575e-10 -2.4338546511653467 -2.2708533052800077 2.180183468555379" Properties=species:S:1:pos:R:3:spacegroup_kinds:I:1:forces:R:3 spacegroup="P 1" unit_cell=conventional occupancy="_JSON {\"0\": {\"In\": 1}}" n_minim_iter=1 energy=-1970.389592945881 stress="0.01755167647154341 -0.011652231942459948 3.1587463602947684e-12 -0.011652231942459948 0.019168450266336273 2.9472058963799854e-12 3.1587463602947684e-12 2.9472058963799854e-12 0.03004030303392889" free_energy=-1970.389592945881 pbc="T T T"
In       0.00000000       0.00000000       0.00000000        0       0.00000000      -0.00000000      -0.00000000
1
Lattice="3.9444365977990605 0.7187025509795497 -4.071817104931592e-10 0.9899728102210477 3.885237092619212 -8.340232845013123e-10 -2.467204703864459 -2.3019698213716446 2.1653981900713846" Properties=species:S:1:pos:R:3:spacegroup_kinds:I:1:forces:R:3 spacegroup="P 1" unit_cell=conventional occupancy="_JSON {\"0\": {\"In\": 1}}" n_minim_iter=2 energy=-1970.3945088513874 stress="0.012337863341152723 0.0008668956498213648 -5.820747684885344e-14 0.0008668956498213648 0.012217579589832162 -2.409406411346408e-13 -5.820747684885344e-14 -2.409406411346408e-13 0.011408742114854847" free_energy=-1970.3945088513874 pbc="T T T"
In       0.00000000       0.00000000       0.00000000        0      -0.00000000       0.00000000      -0.00000000
