1
Lattice="3.7504512899281113 0.5826417230019286 -3.6726245144524726e-10 0.8408125569131365 3.7011336776240973 -7.876276513729387e-10 -2.295631923277237 -2.1418876998917655 2.132544820018773" Properties=species:S:1:pos:R:3:spacegroup_kinds:I:1:forces:R:3 spacegroup="P 1" unit_cell=conventional occupancy="_JSON {\"0\": {\"In\": 1}}" n_minim_iter=2 energy=-1970.3609055144743 stress="-0.04578630106194372 -0.00033703164201754547 8.490476155112916e-14 -0.00033703164201754547 -0.04573953715184725 1.4071943097573925e-13 8.490476155112916e-14 1.4071943097573925e-13 -0.04542507736379057" free_energy=-1970.3609055144743 pbc="T T T"
In       0.00000000       0.00000000       0.00000000        0       0.00000000      -0.00000000       0.00000000
