1
Lattice="3.85634835843938 0.6655871025492326 -3.907658164269123e-10 0.9308881575790727 3.8010361864624524 -8.134169497891411e-10 -2.393618257865059 -2.2333116440823058 2.144140757678797" Properties=species:S:1:pos:R:3:spacegroup_kinds:I:1:forces:R:3 spacegroup="P 1" unit_cell=conventional occupancy="_JSON {\"0\": {\"In\": 1}}" n_minim_iter=1 energy=-1970.3970574683563 stress="-0.004066691876811289 -0.0013207923144676397 4.024541265843679e-13 -0.0013207923144676397 -0.0038834289264349266 4.1337289707516275e-13 4.024541265843679e-13 4.1337289707516275e-13 -0.002651093382923726" free_energy=-1970.3970574683563 pbc="T T T"
In       0.00000000       0.00000000       0.00000000        0      -0.00000000       0.00000000      -0.00000000
