1
Lattice="4.050170874665013 0.7568391640668916 -4.2182470002178204e-10 1.0353358233470076 3.988078405340675 -8.573863591486984e-10 -2.5427533488574396 -2.3724587842673075 2.2096457539789967" Properties=species:S:1:pos:R:3:spacegroup_kinds:I:1:forces:R:3 spacegroup="P 1" unit_cell=conventional occupancy="_JSON {\"0\": {\"In\": 1}}" n_minim_iter=2 energy=-1970.3398787969547 stress="0.05631763727045605 -0.0035479839439325374 8.156739433881933e-13 -0.0035479839439325374 0.05680992814546264 6.06761923543163e-13 8.156739433881933e-13 6.06761923543163e-13 0.06012029471295709" free_energy=-1970.3398787969547 pbc="T T T"
In       0.00000000       0.00000000       0.00000000        0       0.00000000       0.00000000      -0.00000000
