1
Lattice="4.007558272202662 0.730203739372662 -4.1369775510488403e-10 1.005815057864237 3.9474114145180454 -8.473687311490768e-10 -2.506686664885523 -2.338807576510774 2.2000504290208207" Properties=species:S:1:pos:R:3:spacegroup_kinds:I:1:forces:R:3 spacegroup="P 1" unit_cell=conventional occupancy="_JSON {\"0\": {\"In\": 1}}" n_minim_iter=1 energy=-1970.3749729678134 stress="0.035761922511974395 -0.005744259649541849 1.5832510855136948e-12 -0.005744259649541849 0.03655895165769513 1.5566295668941686e-12 1.5832510855136948e-12 1.5566295668941686e-12 0.04191850384278509" free_energy=-1970.3749729678134 pbc="T T T"
In       0.00000000       0.00000000       0.00000000        0      -0.00000000       0.00000000       0.00000000
