1
Lattice="4.169361321770543 0.7791118041958245 -4.342355328696322e-10 1.0658042019680227 4.105441564312027 -8.826172473404246e-10 -2.617582761716339 -2.4422766838046064 2.2746723105149274" Properties=species:S:1:pos:R:3:spacegroup_kinds:I:1:forces:R:3 spacegroup="P 1" unit_cell=conventional occupancy="_JSON {\"0\": {\"In\": 1}}" n_minim_iter=1 energy=-1970.0729186846636 stress="0.09769450396107979 -0.00448312924037422 1.2488873378197792e-12 -0.00448312924037422 0.0983165483822256 1.0845491535662997e-12 1.2488873378197792e-12 1.0845491535662997e-12 0.10249943122160377" free_energy=-1970.0729186846636 pbc="T T T"
In       0.00000000       0.00000000       0.00000000        0       0.00000000      -0.00000000       0.00000000
