1
Lattice="4.080624430735136 0.7625298977747302 -4.2499440151715084e-10 1.0431205955266056 4.018065083208709 -8.638342908514104e-10 -2.5618725129811826 -2.3902974900519625 2.2262602556744264" Properties=species:S:1:pos:R:3:spacegroup_kinds:I:1:forces:R:3 spacegroup="P 1" unit_cell=conventional occupancy="_JSON {\"0\": {\"In\": 1}}" n_minim_iter=1 energy=-1970.2877099864213 stress="0.0739425838343904 -0.006849607729771692 1.842779579411102e-12 -0.006849607729771692 0.07489298255075372 1.7270633119375152e-12 1.842779579411102e-12 1.7270633119375152e-12 0.08128385488546089" free_energy=-1970.2877099864213 pbc="T T T"
In       0.00000000       0.00000000       0.00000000        0      -0.00000000       0.00000000       0.00000000
