80
Lattice="11.760913350966609 0.012954062353367886 0.008944598024879506 6.464299743243585 9.825074019373961 0.008944598024879936 6.464299743243585 3.4894495923856357 9.184546860581127" Properties=species:S:1:pos:R:3:spacegroup_kinds:I:1:forces:R:3 spacegroup="P 1" unit_cell=conventional occupancy="_JSON {\"0\": {\"In\": 1}, \"1\": {\"In\": 1}, \"2\": {\"In\": 1}, \"3\": {\"In\": 1}, \"4\": {\"O\": 1}, \"5\": {\"O\": 1}, \"6\": {\"O\": 1}, \"7\": {\"O\": 1}, \"8\": {\"O\": 1}, \"9\": {\"O\": 1}}" n_minim_iter=4 energy=-90301.47297895541 stress="0.00041343734523376384 7.281881881302624e-06 2.3276061882509844e-05 7.281881881302624e-06 0.00044350165287460497 -1.1870927675217045e-07 2.3276061882509844e-05 -1.1870927675217045e-07 0.00039922005416348326" free_energy=-11287.679176919575 pbc="T T T"
In      10.58086201       5.71158302       3.94376782        0       0.00756076       0.00406854       0.00314295
In      16.46131869       5.71806005       3.94824012        0       0.00697695       0.00426998       0.00332031
In      13.81301188      10.62412003       3.94824012        0       0.00673792       0.00355617       0.00297599
In      19.69346856      10.63059706       3.95271242        0       0.00787699       0.00412899       0.00190336
In      13.81301188       7.45630782       8.53604125        0      -0.00040986      -0.01000032       0.00693557
In      19.69346856       7.46278485       8.54051355        0       0.00921048       0.00236239       0.00306813
In      17.04516175      12.36884483       8.54051355        0       0.00850791       0.00693978       0.00318010
In      22.92561843      12.37532186       8.54498585        0       0.00653658       0.00457097       0.00269181
In       7.93627262       4.28402524       2.95805923        1      -0.00605203      -0.00419638      -0.00011760
In      13.81672930       4.29050227       2.96253153        1      -0.00696236      -0.00556827      -0.00304229
In      11.16842249       9.19656225       2.96253153        1      -0.00696790      -0.00280280      -0.00375281
In      17.04887917       9.20303928       2.96700383        1      -0.00763281      -0.00442024      -0.00276935
In      11.16842249       6.02875004       7.55033266        1      -0.01232963      -0.00883212      -0.00581343
In      17.04887917       6.03522707       7.55480496        1      -0.00456119      -0.00415311      -0.00484824
In      14.40057236      10.94128705       7.55480496        1      -0.00679112      -0.00211007      -0.00281706
In      20.28102904      10.94776408       7.55927726        1      -0.00797529      -0.00317771      -0.00236896
In       4.40848380       2.37971360       1.64315880        2      -0.01133636       0.00105684       0.01655660
In      10.28894048       2.38619063       1.64763110        2       0.00854406       0.00420050       0.00439218
In       7.64063367       7.29225061       1.64763110        2       0.00783168       0.00696439       0.00292222
In      13.52109035       7.29872764       1.65210340        2       0.00684863       0.00527863       0.00246371
In       7.64063367       4.12443840       6.23543223        2       0.00752328       0.00401391       0.00335679
In      13.52109035       4.13091543       6.23990453        2       0.00542858       0.00363513       0.00478275
In      10.87278354       9.03697541       6.23990453        2       0.00616013       0.00518849      -0.00005886
In      16.75324022       9.04345244       6.24437683        2       0.00815944       0.00443753       0.00224884
In       1.76389441       0.95215583       0.65745022        3      -0.00534843      -0.00268473      -0.00241663
In       7.64435109       0.95863286       0.66192252        3      -0.00601499      -0.01078603      -0.00207909
In       4.99604428       5.86469284       0.66192252        3      -0.01057293      -0.00146915      -0.00217601
In      10.87650096       5.87116987       0.66639482        3      -0.00663825      -0.00317251      -0.00284959
In       4.99604428       2.69688063       5.24972365        3      -0.00763046      -0.00496969      -0.00329324
In      10.87650096       2.70335766       5.25419595        3      -0.00691557      -0.00289469      -0.00075791
In       8.22819415       7.60941764       5.25419595        3      -0.00696052      -0.00369264      -0.00207172
In      14.10865083       7.61589467       5.25866825        3      -0.00710508      -0.00401112      -0.00439313
O        6.02060029       2.30578042       0.21775808        4       0.05684220       0.03979789      -0.00991791
O       11.90687413       2.32109894       0.22223843        4      -0.00059224      -0.00784475       0.01269681
O        9.25856732       7.22715892       0.22223843        4      -0.00151766      -0.01133538       0.01240754
O       15.13902400       7.23363595       0.22671073        4       0.00016360      -0.00930397       0.01182722
O        9.25856732       4.05934671       4.81003956        4      -0.00055676      -0.00859327       0.01068677
O       15.13902400       4.06582374       4.81451186        4      -0.00011127      -0.00856307       0.01174477
O       12.49071719       8.97188372       4.81451186        4       0.00022109      -0.00861787       0.01271689
O       18.37117387       8.97836075       4.81898416        4       0.00014844      -0.00859195       0.01214687
O        7.10289407       5.12506220       1.15477681        5       0.00486770      -0.02023974      -0.00455443
O       12.98335075       5.13153923       1.15924911        5       0.00705139      -0.01280867      -0.00001525
O       10.33504394      10.03759921       1.15924911        5       0.00060805      -0.01762587       0.00100984
O       16.21550062      10.04407624       1.16372141        5       0.00701112      -0.01257087      -0.00000861
O       10.33504394       6.86978700       5.74705024        5       0.00773074      -0.01305492       0.00072994
O       16.21550062       6.87626403       5.75152254        5       0.00687153      -0.01307778       0.00016164
O       13.56719381      11.78232401       5.75152254        5       0.00687025      -0.01269170      -0.00009929
O       19.44765049      11.78880104       5.75599484        5       0.00789614      -0.01374586      -0.00095526
O        8.18209070       2.18736384       2.51390284        6      -0.00822701       0.00545213       0.00978117
O       14.06254738       2.19384087       2.51837514        6      -0.00715267       0.00533871       0.01289124
O       11.41424057       7.09990085       2.51837514        6      -0.00700654       0.00369894       0.01253866
O       17.29469725       7.10637788       2.52284744        6      -0.00626369       0.00350453       0.01186030
O       11.41424057       3.93208864       7.10617627        6      -0.00815004       0.00109310       0.00613951
O       17.29469725       3.93856567       7.11064857        6      -0.00701206       0.00434157       0.01207248
O       14.64639044       8.84462565       7.11064857        6      -0.00715902       0.00575340       0.01186992
O       20.52684712       8.85110268       7.11512087        6      -0.00625901       0.00425474       0.01289098
O        4.16266573       4.47637501       2.08731519        7       0.00838415      -0.00377718      -0.01257012
O       10.04312241       4.48285204       2.09178749        7       0.00472113      -0.00557885      -0.01298029
O        7.39481560       9.38891202       2.09178749        7       0.00539141      -0.00493801      -0.01143712
O       13.27527228       9.39538905       2.09625979        7       0.00834842      -0.00757188      -0.01002135
O        7.39481560       6.22109981       6.67958862        7       0.00677100      -0.00434808      -0.01284417
O       13.27527228       6.22757684       6.68406092        7       0.00614548      -0.00429506      -0.00440138
O       10.62696547      11.13363682       6.68406092        7       0.00733707      -0.00425643      -0.01180167
O       16.50742215      11.14011385       6.68853322        7       0.00677784      -0.00586038      -0.01223376
O        6.31833898       4.34911694       4.38345191        8      -0.00002438       0.00869282      -0.01228617
O       12.19879566       4.35559397       4.38792421        8      -0.00002625       0.00858945      -0.01226975
O        9.55048885       9.26165395       4.38792421        8      -0.00055479       0.00802018      -0.01128012
O       15.43094553       9.26813098       4.39239651        8       0.00048925       0.00844561      -0.01216341
O        9.55048885       6.09384174       8.97572534        8      -0.01018823       0.00937217      -0.01439197
O       15.43094553       6.10031877       8.98019764        8      -0.01447086       0.00822377      -0.01082844
O       12.78263872      11.00637875       8.98019764        8       0.00019942       0.00679462      -0.01175926
O       18.66309540      11.01285578       8.98466994        8       0.00027827       0.00826405      -0.01231836
O        5.24186236       1.53867664       3.44644122        9      -0.00631678       0.01288028       0.00278970
O       11.12231904       1.54515367       3.45091352        9      -0.00746292       0.01339408      -0.00016667
O        8.47401223       6.45121365       3.45091352        9      -0.00764111       0.01251916      -0.00109471
O       14.35446891       6.45769068       3.45538582        9      -0.00646507       0.01343083      -0.00013560
O        8.47401223       3.28340144       8.03871465        9      -0.00915353       0.01207811      -0.00149652
O       14.35446891       3.28987847       8.04318695        9      -0.00552785       0.01235760      -0.00074615
O       11.70616210       8.19593845       8.04318695        9      -0.00135579       0.00474634       0.00704189
O       17.58661878       8.20241548       8.04765925        9      -0.00762874       0.01251678       0.00045817
