40
Lattice="5.636232248405413 1.6680416119044088e-44 0.0 -1.8058731608192357e-44 6.10195841212772 0.0 0.0 0.0 16.616113083472246" Properties=species:S:1:pos:R:3:spacegroup_kinds:I:1:forces:R:3 spacegroup="P 1" unit_cell=conventional occupancy="_JSON {\"0\": {\"In\": 1}, \"1\": {\"In\": 1}, \"2\": {\"In\": 1}, \"3\": {\"In\": 1}, \"4\": {\"In\": 1}, \"5\": {\"In\": 1}, \"6\": {\"In\": 1}, \"7\": {\"In\": 1}, \"8\": {\"In\": 1}, \"9\": {\"In\": 1}, \"10\": {\"In\": 1}, \"11\": {\"In\": 1}, \"12\": {\"In\": 1}, \"13\": {\"In\": 1}, \"14\": {\"In\": 1}, \"15\": {\"In\": 1}, \"16\": {\"O\": 1}, \"17\": {\"O\": 1}, \"18\": {\"O\": 1}, \"19\": {\"O\": 1}, \"20\": {\"O\": 1}, \"21\": {\"O\": 1}, \"22\": {\"O\": 1}, \"23\": {\"O\": 1}, \"24\": {\"O\": 1}, \"25\": {\"O\": 1}, \"26\": {\"O\": 1}, \"27\": {\"O\": 1}, \"28\": {\"O\": 1}, \"29\": {\"O\": 1}, \"30\": {\"O\": 1}, \"31\": {\"O\": 1}, \"32\": {\"O\": 1}, \"33\": {\"O\": 1}, \"34\": {\"O\": 1}, \"35\": {\"O\": 1}, \"36\": {\"O\": 1}, \"37\": {\"O\": 1}, \"38\": {\"O\": 1}, \"39\": {\"O\": 1}}" n_minim_iter=1 energy=-45149.715430429074 stress="0.03985663688979679 4.276484536975613e-13 1.2316858066072066e-13 4.276484536975613e-13 0.040663501990846306 -4.625819895760056e-13 1.2316858066072066e-13 -4.625819895760056e-13 0.04308170808449027" free_energy=-45149.715430429074 pbc="T T T"
In       2.80384951       4.94424670       9.49013615        0      -0.01754130       0.11632654       0.05177302
In      -0.01426662       4.20869092       7.12597693        1      -0.01754130      -0.11632654      -0.05177302
In       2.83238274       1.89326749      15.43403347        2       0.01754130       0.11632654      -0.05177302
In       5.65049887       1.15771171       1.18207961        3       0.01754130      -0.11632654       0.05177302
In       2.83238274       1.15771171       7.12597693        4       0.01754130      -0.11632654      -0.05177302
In       5.65049887       1.89326749       9.49013615        5       0.01754130       0.11632654       0.05177302
In       2.80384951       4.20869092       1.18207961        6      -0.01754130      -0.11632654       0.05177302
In      -0.01426662       4.94424670      15.43403347        7      -0.01754130       0.11632654      -0.05177302
In       2.76744635       4.57644240      13.61983019        8      -0.06944803      -0.01541287       0.07296370
In       5.58556248       4.57649522       2.99628289        9      -0.06944803       0.01541287      -0.07296370
In       2.86878590       1.52546320      11.30433943       10       0.06944803      -0.01541287      -0.07296370
In       0.05066977       1.52551601       5.31177365       11       0.06944803       0.01541287       0.07296370
In       2.86878590       1.52551601       2.99628289       12       0.06944803       0.01541287      -0.07296370
In       0.05066977       1.52546320      13.61983019       13       0.06944803      -0.01541287       0.07296370
In       2.76744635       4.57649522       5.31177365       14      -0.06944803       0.01541287       0.07296370
In       5.58556248       4.57644240      11.30433943       15      -0.06944803      -0.01541287      -0.07296370
O        4.81293121       5.37128518      13.26214381       16       0.04054957      -0.08407151      -0.01491035
O        1.99481509       3.78165244       3.35396927       17       0.04054957       0.08407151       0.01491035
O        0.82330104       2.32030598      11.66202581       18      -0.04054957      -0.08407151       0.01491035
O        3.64141716       0.73067323       4.95408727       19      -0.04054957       0.08407151      -0.01491035
O        0.82330104       0.73067323       3.35396927       20      -0.04054957       0.08407151       0.01491035
O        3.64141716       2.32030598      13.26214381       21      -0.04054957      -0.08407151      -0.01491035
O        4.81293121       3.78165244       4.95408727       22       0.04054957       0.08407151      -0.01491035
O        1.99481509       5.37128518      11.66202581       23       0.04054957      -0.08407151       0.01491035
O        3.94156016       3.25432993      10.33376146       24       0.03354880      -0.01659365       0.08485991
O        1.12344404       5.89860769       6.28235163       25       0.03354880       0.01659365      -0.08485991
O        1.69467209       0.20335072      14.59040817       26      -0.03354880      -0.01659365      -0.08485991
O        4.51278821       2.84762849       2.02570492       27      -0.03354880       0.01659365       0.08485991
O        1.69467209       2.84762849       6.28235163       28      -0.03354880       0.01659365      -0.08485991
O        4.51278821       0.20335072      10.33376146       29      -0.03354880      -0.01659365       0.08485991
O        3.94156016       5.89860769       2.02570492       30       0.03354880       0.01659365       0.08485991
O        1.12344404       3.25432993      14.59040817       31       0.03354880      -0.01659365      -0.08485991
O        3.64869739       4.02453038      15.75188269       32      -0.05075918      -0.03432487      -0.05135050
O        0.83058126       5.12840723       0.86423040       33      -0.05075918       0.03432487       0.05135050
O        1.98753486       0.97355118       9.17228694       34       0.05075918      -0.03432487       0.05135050
O        4.80565098       2.07742803       7.44382614       35       0.05075918       0.03432487      -0.05135050
O        1.98753486       2.07742803       0.86423040       36       0.05075918       0.03432487       0.05135050
O        4.80565098       0.97355118      15.75188269       37       0.05075918      -0.03432487      -0.05135050
O        3.64869739       5.12840723       7.44382614       38      -0.05075918       0.03432487      -0.05135050
O        0.83058126       4.02453038       9.17228694       39      -0.05075918      -0.03432487       0.05135050
40
Lattice="5.645290408769725 1.2649463112375037e-43 0.0 -1.8074667540888473e-44 6.105875693582866 0.0 0.0 0.0 16.57880855352794" Properties=species:S:1:pos:R:3:spacegroup_kinds:I:1:forces:R:3 spacegroup="P 1" unit_cell=conventional occupancy="_JSON {\"0\": {\"In\": 1}, \"1\": {\"In\": 1}, \"2\": {\"In\": 1}, \"3\": {\"In\": 1}, \"4\": {\"In\": 1}, \"5\": {\"In\": 1}, \"6\": {\"In\": 1}, \"7\": {\"In\": 1}, \"8\": {\"In\": 1}, \"9\": {\"In\": 1}, \"10\": {\"In\": 1}, \"11\": {\"In\": 1}, \"12\": {\"In\": 1}, \"13\": {\"In\": 1}, \"14\": {\"In\": 1}, \"15\": {\"In\": 1}, \"16\": {\"O\": 1}, \"17\": {\"O\": 1}, \"18\": {\"O\": 1}, \"19\": {\"O\": 1}, \"20\": {\"O\": 1}, \"21\": {\"O\": 1}, \"22\": {\"O\": 1}, \"23\": {\"O\": 1}, \"24\": {\"O\": 1}, \"25\": {\"O\": 1}, \"26\": {\"O\": 1}, \"27\": {\"O\": 1}, \"28\": {\"O\": 1}, \"29\": {\"O\": 1}, \"30\": {\"O\": 1}, \"31\": {\"O\": 1}, \"32\": {\"O\": 1}, \"33\": {\"O\": 1}, \"34\": {\"O\": 1}, \"35\": {\"O\": 1}, \"36\": {\"O\": 1}, \"37\": {\"O\": 1}, \"38\": {\"O\": 1}, \"39\": {\"O\": 1}}" n_minim_iter=2 energy=-45149.71783213286 stress="0.04077419787462567 1.1634584375562702e-13 -8.941333825521488e-14 1.1634584375562702e-13 0.04103655996259829 -3.189328615741951e-14 -8.941333825521488e-14 -3.189328615741951e-14 0.040291995147851076" free_energy=-45149.71783213286 pbc="T T T"
In       2.80831892       4.94766414       9.46893803        0      -0.03432578       0.11307487       0.05655391
In      -0.01432628       4.21114940       7.10987053        1      -0.03432578      -0.11307487      -0.05655391
In       2.83697149       1.89472629      15.39927480        2       0.03432578       0.11307487      -0.05655391
In       5.65961669       1.15821155       1.17953375        3       0.03432578      -0.11307487       0.05655391
In       2.83697149       1.15821155       7.10987053        4       0.03432578      -0.11307487      -0.05655391
In       5.65961669       1.89472629       9.46893803        5       0.03432578       0.11307487       0.05655391
In       2.80831892       4.21114940       1.17953375        6      -0.03432578      -0.11307487       0.05655391
In      -0.01432628       4.94766414      15.39927480        7      -0.03432578       0.11307487      -0.05655391
In       2.77174856       4.57934810      13.58940478        8      -0.06446633      -0.01653691       0.07249849
In       5.59439377       4.57946544       2.98940378        9      -0.06446633       0.01653691      -0.07249849
In       2.87354185       1.52641025      11.27880805       10       0.06446633      -0.01653691      -0.07249849
In       0.05089664       1.52652759       5.30000050       11       0.06446633       0.01653691       0.07249849
In       2.87354185       1.52652759       2.98940378       12       0.06446633       0.01653691      -0.07249849
In       0.05089664       1.52641025      13.58940478       13       0.06446633      -0.01653691       0.07249849
In       2.77174856       4.57946544       5.30000050       14      -0.06446633       0.01653691       0.07249849
In       5.59439377       4.57934810      11.27880805       15      -0.06446633      -0.01653691      -0.07249849
O        4.82075114       5.37455750      13.23233811       16       0.03603738      -0.08976639       0.00310232
O        1.99810593       3.78425604       3.34647044       17       0.03603738       0.08976639      -0.00310232
O        0.82453927       2.32161965      11.63587472       18      -0.03603738      -0.08976639      -0.00310232
O        3.64718448       0.73131819       4.94293384       19      -0.03603738       0.08976639       0.00310232
O        0.82453927       0.73131819       3.34647044       20      -0.03603738       0.08976639      -0.00310232
O        3.64718448       2.32161965      13.23233811       21      -0.03603738      -0.08976639       0.00310232
O        4.82075114       3.78425604       4.94293384       22       0.03603738       0.08976639       0.00310232
O        1.99810593       5.37455750      11.63587472       23       0.03603738      -0.08976639      -0.00310232
O        3.94796502       3.25638440      10.31073835       24       0.02942215       0.00165080       0.07343820
O        1.12531982       5.90242915       6.26807020       25       0.02942215      -0.00165080      -0.07343820
O        1.69732539       0.20344655      14.55747448       26      -0.02942215       0.00165080      -0.07343820
O        4.51997059       2.84949130       2.02133407       27      -0.02942215      -0.00165080       0.07343820
O        1.69732539       2.84949130       6.26807020       28      -0.02942215      -0.00165080      -0.07343820
O        4.51997059       0.20344655      10.31073835       29      -0.02942215       0.00165080       0.07343820
O        3.94796502       5.90242915       2.02133407       30       0.02942215      -0.00165080       0.07343820
O        1.12531982       3.25638440      14.55747448       31       0.02942215       0.00165080      -0.07343820
O        3.65445502       4.02704220      15.71641130       32      -0.04562256      -0.03605099      -0.04766338
O        0.83180982       5.13177134       0.86239725       33      -0.04562256       0.03605099       0.04766338
O        1.99083539       0.97410435       9.15180153       34       0.04562256      -0.03605099       0.04766338
O        4.81348059       2.07883349       7.42700702       35       0.04562256       0.03605099      -0.04766338
O        1.99083539       2.07883349       0.86239725       36       0.04562256       0.03605099       0.04766338
O        4.81348059       0.97410435      15.71641130       37       0.04562256      -0.03605099      -0.04766338
O        3.65445502       5.13177134       7.42700702       38      -0.04562256       0.03605099      -0.04766338
O        0.83180982       4.02704220       9.15180153       39      -0.04562256      -0.03605099       0.04766338
40
Lattice="5.654418660286161 1.4101523376486686e-43 0.0 1.3789793314154102e-44 6.094220929004643 0.0 0.0 0.0 16.583699043536505" Properties=species:S:1:pos:R:3:spacegroup_kinds:I:1:forces:R:3 spacegroup="P 1" unit_cell=conventional occupancy="_JSON {\"0\": {\"In\": 1}, \"1\": {\"In\": 1}, \"2\": {\"In\": 1}, \"3\": {\"In\": 1}, \"4\": {\"In\": 1}, \"5\": {\"In\": 1}, \"6\": {\"In\": 1}, \"7\": {\"In\": 1}, \"8\": {\"In\": 1}, \"9\": {\"In\": 1}, \"10\": {\"In\": 1}, \"11\": {\"In\": 1}, \"12\": {\"In\": 1}, \"13\": {\"In\": 1}, \"14\": {\"In\": 1}, \"15\": {\"In\": 1}, \"16\": {\"O\": 1}, \"17\": {\"O\": 1}, \"18\": {\"O\": 1}, \"19\": {\"O\": 1}, \"20\": {\"O\": 1}, \"21\": {\"O\": 1}, \"22\": {\"O\": 1}, \"23\": {\"O\": 1}, \"24\": {\"O\": 1}, \"25\": {\"O\": 1}, \"26\": {\"O\": 1}, \"27\": {\"O\": 1}, \"28\": {\"O\": 1}, \"29\": {\"O\": 1}, \"30\": {\"O\": 1}, \"31\": {\"O\": 1}, \"32\": {\"O\": 1}, \"33\": {\"O\": 1}, \"34\": {\"O\": 1}, \"35\": {\"O\": 1}, \"36\": {\"O\": 1}, \"37\": {\"O\": 1}, \"38\": {\"O\": 1}, \"39\": {\"O\": 1}}" n_minim_iter=3 energy=-45149.72191567699 stress="0.04186370564168316 -9.239188541943751e-13 1.6029172191208404e-13 -9.239188541943751e-13 0.03805998312198043 8.907523699701951e-13 1.6029172191208404e-13 8.907523699701951e-13 0.0402627094836871" free_energy=-45149.72191567699 pbc="T T T"
In       2.81230522       4.94020706       9.47270336        0      -0.03806951       0.07238130       0.04617098
In      -0.01490411       4.20112433       7.11099568        1      -0.03806951      -0.07238130      -0.04617098
In       2.84211344       1.89309660      15.40284520        2       0.03806951       0.07238130      -0.04617098
In       5.66932277       1.15401387       1.18085384        3       0.03806951      -0.07238130       0.04617098
In       2.84211344       1.15401387       7.11099568        4       0.03806951      -0.07238130      -0.04617098
In       5.66932277       1.89309660       9.47270336        5       0.03806951       0.07238130       0.04617098
In       2.81230522       4.20112433       1.18085384        6      -0.03806951      -0.07238130       0.04617098
In      -0.01490411       4.94020706      15.40284520        7      -0.03806951       0.07238130      -0.04617098
In       2.77508250       4.57032119      13.59467875        8      -0.04523249      -0.01407223       0.04761890
In       5.60229183       4.57101020       2.98902029        9      -0.04523249       0.01407223      -0.04761890
In       2.87933616       1.52321072      11.28086981       10       0.04523249      -0.01407223      -0.04761890
In       0.05212683       1.52389974       5.30282923       11       0.04523249       0.01407223       0.04761890
In       2.87933616       1.52389974       2.98902029       12       0.04523249       0.01407223      -0.04761890
In       0.05212683       1.52321072      13.59467875       13       0.04523249      -0.01407223       0.04761890
In       2.77508250       4.57101020       5.30282923       14      -0.04523249       0.01407223       0.04761890
In       5.60229183       4.57032119      11.28086981       15      -0.04523249      -0.01407223      -0.04761890
O        4.82919284       5.36274528      13.23624340       16       0.02965044      -0.07934304       0.00301642
O        2.00198351       3.77858611       3.34745564       17       0.02965044       0.07934304      -0.00301642
O        0.82522582       2.31563482      11.63930516       18      -0.02965044      -0.07934304      -0.00301642
O        3.65243515       0.73147565       4.94439388       19      -0.02965044       0.07934304       0.00301642
O        0.82522582       0.73147565       3.34745564       20      -0.02965044       0.07934304      -0.00301642
O        3.65243515       2.31563482      13.23624340       21      -0.02965044      -0.07934304       0.00301642
O        4.82919284       3.77858611       4.94439388       22       0.02965044       0.07934304       0.00301642
O        2.00198351       5.36274528      11.63930516       23       0.02965044      -0.07934304      -0.00301642
O        3.95487804       3.25014471      10.31509326       24       0.02142301       0.01107379       0.05593598
O        1.12766871       5.89118668       6.26860578       25       0.02142301      -0.01107379      -0.05593598
O        1.69954062       0.20303425      14.56045530       26      -0.02142301       0.01107379      -0.05593598
O        4.52674995       2.84407622       2.02324374       27      -0.02142301      -0.01107379       0.05593598
O        1.69954062       2.84407622       6.26860578       28      -0.02142301      -0.01107379      -0.05593598
O        4.52674995       0.20303425      10.31509326       29      -0.02142301       0.01107379       0.05593598
O        3.95487804       5.89118668       2.02324374       30       0.02142301      -0.01107379       0.05593598
O        1.12766871       3.25014471      14.56045530       31       0.02142301       0.01107379      -0.05593598
O        3.65954711       4.01872999      15.72020574       32      -0.03537966      -0.00980532      -0.03452710
O        0.83233778       5.12260140       0.86349330       33      -0.03537966       0.00980532       0.03452710
O        1.99487155       0.97161953       9.15534282       34       0.03537966      -0.00980532       0.03452710
O        4.82208088       2.07549093       7.42835622       35       0.03537966       0.00980532      -0.03452710
O        1.99487155       2.07549093       0.86349330       36       0.03537966       0.00980532       0.03452710
O        4.82208088       0.97161953      15.72020574       37       0.03537966      -0.00980532      -0.03452710
O        3.65954711       5.12260140       7.42835622       38      -0.03537966       0.00980532      -0.03452710
O        0.83233778       4.01872999       9.15534282       39      -0.03537966      -0.00980532       0.03452710
40
Lattice="5.64049866067362 1.4148217985316181e-43 0.0 2.047749058752333e-43 6.1113372449905015 0.0 0.0 0.0 16.578064017016644" Properties=species:S:1:pos:R:3:spacegroup_kinds:I:1:forces:R:3 spacegroup="P 1" unit_cell=conventional occupancy="_JSON {\"0\": {\"In\": 1}, \"1\": {\"In\": 1}, \"2\": {\"In\": 1}, \"3\": {\"In\": 1}, \"4\": {\"In\": 1}, \"5\": {\"In\": 1}, \"6\": {\"In\": 1}, \"7\": {\"In\": 1}, \"8\": {\"In\": 1}, \"9\": {\"In\": 1}, \"10\": {\"In\": 1}, \"11\": {\"In\": 1}, \"12\": {\"In\": 1}, \"13\": {\"In\": 1}, \"14\": {\"In\": 1}, \"15\": {\"In\": 1}, \"16\": {\"O\": 1}, \"17\": {\"O\": 1}, \"18\": {\"O\": 1}, \"19\": {\"O\": 1}, \"20\": {\"O\": 1}, \"21\": {\"O\": 1}, \"22\": {\"O\": 1}, \"23\": {\"O\": 1}, \"24\": {\"O\": 1}, \"25\": {\"O\": 1}, \"26\": {\"O\": 1}, \"27\": {\"O\": 1}, \"28\": {\"O\": 1}, \"29\": {\"O\": 1}, \"30\": {\"O\": 1}, \"31\": {\"O\": 1}, \"32\": {\"O\": 1}, \"33\": {\"O\": 1}, \"34\": {\"O\": 1}, \"35\": {\"O\": 1}, \"36\": {\"O\": 1}, \"37\": {\"O\": 1}, \"38\": {\"O\": 1}, \"39\": {\"O\": 1}}" n_minim_iter=4 energy=-45149.73419554054 stress="0.03830740125085172 -3.251740285681195e-14 -6.973323393767887e-13 -3.251740285681195e-14 0.03863489168248114 -2.4134374203237233e-13 -6.973323393767887e-13 -2.4134374203237233e-13 0.038051342123950754" free_energy=-45149.73419554054 pbc="T T T"
In       2.80317473       4.96152604       9.47319910        0      -0.01618085      -0.02753320       0.04423401
In      -0.01707460       4.20547983       7.10486491        1      -0.01618085       0.02753320      -0.04423401
In       2.83732393       1.90585742      15.39389692        2       0.01618085      -0.02753320      -0.04423401
In       5.65757326       1.14981120       1.18416710        3       0.01618085       0.02753320       0.04423401
In       2.83732393       1.14981120       7.10486491        4       0.01618085       0.02753320      -0.04423401
In       5.65757326       1.90585742       9.47319910        5       0.01618085      -0.02753320       0.04423401
In       2.80317473       4.20547983       1.18416710        6      -0.01618085       0.02753320       0.04423401
In      -0.01707460       4.96152604      15.39389692        7      -0.01618085      -0.02753320      -0.04423401
In       2.76394127       4.58205724      13.59479616        8       0.01059055       0.00814460      -0.02150938
In       5.58419060       4.58494863       2.98326785        9       0.01059055      -0.00814460       0.02150938
In       2.87655739       1.52638862      11.27229986       10      -0.01059055       0.00814460       0.02150938
In       0.05630806       1.52928000       5.30576415       11      -0.01059055      -0.00814460      -0.02150938
In       2.87655739       1.52928000       2.98326785       12      -0.01059055      -0.00814460       0.02150938
In       0.05630806       1.52638862      13.59479616       13      -0.01059055       0.00814460      -0.02150938
In       2.76394127       4.58494863       5.30576415       14       0.01059055      -0.00814460      -0.02150938
In       5.58419060       4.58205724      11.27229986       15       0.01059055       0.00814460       0.02150938
O        4.81976660       5.37180689      13.23177082       16      -0.04511519      -0.06303273      -0.02486231
O        1.99951727       3.79519898       3.34629319       17      -0.04511519       0.06303273       0.02486231
O        0.82073206       2.31613827      11.63532520       18       0.04511519      -0.06303273       0.02486231
O        3.64098139       0.73953035       4.94273881       19       0.04511519       0.06303273      -0.02486231
O        0.82073206       0.73953035       3.34629319       20       0.04511519       0.06303273       0.02486231
O        3.64098139       2.31613827      13.23177082       21       0.04511519      -0.06303273      -0.02486231
O        4.81976660       3.79519898       4.94273881       22      -0.04511519       0.06303273      -0.02486231
O        1.99951727       5.37180689      11.63532520       23      -0.04511519      -0.06303273       0.02486231
O        3.94713424       3.25927358      10.31656089       24      -0.01503713       0.03118685      -0.00239153
O        1.12688491       5.90773229       6.26150312       25      -0.01503713      -0.03118685       0.00239153
O        1.69336442       0.20360495      14.55053513       26       0.01503713       0.03118685       0.00239153
O        4.51361375       2.85206367       2.02752888       27       0.01503713      -0.03118685      -0.00239153
O        1.69336442       2.85206367       6.26150312       28       0.01503713      -0.03118685       0.00239153
O        4.51361375       0.20360495      10.31656089       29       0.01503713       0.03118685      -0.00239153
O        3.94713424       5.90773229       2.02752888       30      -0.01503713      -0.03118685      -0.00239153
O        1.12688491       3.25927358      14.55053513       31      -0.01503713       0.03118685       0.00239153
O        3.64744434       4.02777927      15.71168935       32      -0.01615390       0.01301480       0.00613616
O        0.82719501       5.13922660       0.86637467       33      -0.01615390      -0.01301480      -0.00613616
O        1.99305432       0.97211064       9.15540668       34       0.01615390       0.01301480      -0.00613616
O        4.81330365       2.08355798       7.42265734       35       0.01615390      -0.01301480       0.00613616
O        1.99305432       2.08355798       0.86637467       36       0.01615390      -0.01301480      -0.00613616
O        4.81330365       0.97211064      15.71168935       37       0.01615390       0.01301480       0.00613616
O        3.64744434       5.13922660       7.42265734       38      -0.01615390      -0.01301480       0.00613616
O        0.82719501       4.02777927       9.15540668       39      -0.01615390       0.01301480      -0.00613616
40
Lattice="5.640104555547602 2.2939240435035404e-43 0.0 2.0457102772853303e-43 6.106187533112121 0.0 0.0 0.0 16.593204663923597" Properties=species:S:1:pos:R:3:spacegroup_kinds:I:1:forces:R:3 spacegroup="P 1" unit_cell=conventional occupancy="_JSON {\"0\": {\"In\": 1}, \"1\": {\"In\": 1}, \"2\": {\"In\": 1}, \"3\": {\"In\": 1}, \"4\": {\"In\": 1}, \"5\": {\"In\": 1}, \"6\": {\"In\": 1}, \"7\": {\"In\": 1}, \"8\": {\"In\": 1}, \"9\": {\"In\": 1}, \"10\": {\"In\": 1}, \"11\": {\"In\": 1}, \"12\": {\"In\": 1}, \"13\": {\"In\": 1}, \"14\": {\"In\": 1}, \"15\": {\"In\": 1}, \"16\": {\"O\": 1}, \"17\": {\"O\": 1}, \"18\": {\"O\": 1}, \"19\": {\"O\": 1}, \"20\": {\"O\": 1}, \"21\": {\"O\": 1}, \"22\": {\"O\": 1}, \"23\": {\"O\": 1}, \"24\": {\"O\": 1}, \"25\": {\"O\": 1}, \"26\": {\"O\": 1}, \"27\": {\"O\": 1}, \"28\": {\"O\": 1}, \"29\": {\"O\": 1}, \"30\": {\"O\": 1}, \"31\": {\"O\": 1}, \"32\": {\"O\": 1}, \"33\": {\"O\": 1}, \"34\": {\"O\": 1}, \"35\": {\"O\": 1}, \"36\": {\"O\": 1}, \"37\": {\"O\": 1}, \"38\": {\"O\": 1}, \"39\": {\"O\": 1}}" n_minim_iter=5 energy=-45149.73861700414 stress="0.03806072319373618 -6.805628822121341e-13 1.2255174937027076e-13 -6.805628822121341e-13 0.03667981016145546 -2.6393676655037896e-13 1.2255174937027076e-13 -2.6393676655037896e-13 0.03866146909563046" free_energy=-45149.73861700414 pbc="T T T"
In       2.80111093       4.95787726       9.48625519        0      -0.00935370      -0.03363643       0.00548714
In      -0.01894135       4.20140404       7.10694947        1      -0.00935370       0.03363643      -0.00548714
In       2.83899362       1.90478349      15.40355180        2       0.00935370      -0.03363643      -0.00548714
In       5.65904590       1.14831027       1.18965286        3       0.00935370       0.03363643       0.00548714
In       2.83899362       1.14831027       7.10694947        4       0.00935370       0.03363643      -0.00548714
In       5.65904590       1.90478349       9.48625519        5       0.00935370      -0.03363643       0.00548714
In       2.80111093       4.20140404       1.18965286        6      -0.00935370       0.03363643       0.00548714
In      -0.01894135       4.95787726      15.40355180        7      -0.00935370      -0.03363643      -0.00548714
In       2.76301227       4.57839963      13.60727566        8      -0.00036146       0.00254800      -0.01680794
In       5.58306454       4.58088167       2.98592900        9      -0.00036146      -0.00254800       0.01680794
In       2.87709229       1.52530586      11.28253133       10       0.00036146       0.00254800       0.01680794
In       0.05704001       1.52778790       5.31067333       11       0.00036146      -0.00254800      -0.01680794
In       2.87709229       1.52778790       2.98592900       12       0.00036146      -0.00254800       0.01680794
In       0.05704001       1.52530586      13.60727566       13       0.00036146       0.00254800      -0.01680794
In       2.76301227       4.58088167       5.31067333       14      -0.00036146      -0.00254800      -0.01680794
In       5.58306454       4.57839963      11.28253133       15      -0.00036146       0.00254800       0.01680794
O        4.81709845       5.36069652      13.24198245       16      -0.03522356      -0.02014491      -0.02351088
O        1.99704617       3.79858478       3.35122222       17      -0.03522356       0.02014491       0.02351088
O        0.82300610       2.30760276      11.64782455       18       0.03522356      -0.02014491       0.02351088
O        3.64305838       0.74549101       4.94538012       19       0.03522356       0.02014491      -0.02351088
O        0.82300610       0.74549101       3.35122222       20       0.03522356       0.02014491       0.02351088
O        3.64305838       2.30760276      13.24198245       21       0.03522356      -0.02014491      -0.02351088
O        4.81709845       3.79858478       4.94538012       22      -0.03522356       0.02014491      -0.02351088
O        1.99704617       5.36069652      11.64782455       23      -0.03522356      -0.02014491       0.02351088
O        3.94649162       3.25868792      10.32760032       24      -0.00171119      -0.00027757       0.01439233
O        1.12643934       5.90059338       6.26560435       25      -0.00171119       0.00027757      -0.01439233
O        1.69361294       0.20559415      14.56220668       26       0.00171119      -0.00027757      -0.01439233
O        4.51366521       2.84749962       2.03099799       27       0.00171119       0.00027757       0.01439233
O        1.69361294       2.84749962       6.26560435       28       0.00171119       0.00027757      -0.01439233
O        4.51366521       0.20559415      10.32760032       29       0.00171119      -0.00027757       0.01439233
O        3.94649162       5.90059338       2.03099799       30      -0.00171119       0.00027757       0.01439233
O        1.12643934       3.25868792      14.56220668       31      -0.00171119      -0.00027757      -0.01439233
O        3.64493625       4.02465752      15.72536731       32      -0.01059408       0.01450616       0.00874378
O        0.82488397       5.13462378       0.86783736       33      -0.01059408      -0.01450616      -0.00874378
O        1.99516830       0.97156376       9.16443969       34       0.01059408       0.01450616      -0.00874378
O        4.81522058       2.08153001       7.42876498       35       0.01059408      -0.01450616       0.00874378
O        1.99516830       2.08153001       0.86783736       36       0.01059408      -0.01450616      -0.00874378
O        4.81522058       0.97156376      15.72536731       37       0.01059408       0.01450616       0.00874378
O        3.64493625       5.13462378       7.42876498       38      -0.01059408      -0.01450616       0.00874378
O        0.82488397       4.02465752       9.16443969       39      -0.01059408       0.01450616      -0.00874378
40