40
Lattice="5.461700922342456 -2.5748682195367248e-42 0.0 1.6922725752623483e-42 5.767042395438404 0.0 0.0 0.0 13.501686720666656" Properties=species:S:1:pos:R:3:spacegroup_kinds:I:1:forces:R:3 spacegroup="P 1" unit_cell=conventional occupancy="_JSON {\"0\": {\"In\": 1}, \"1\": {\"In\": 1}, \"2\": {\"In\": 1}, \"3\": {\"In\": 1}, \"4\": {\"In\": 1}, \"5\": {\"In\": 1}, \"6\": {\"In\": 1}, \"7\": {\"In\": 1}, \"8\": {\"In\": 1}, \"9\": {\"In\": 1}, \"10\": {\"In\": 1}, \"11\": {\"In\": 1}, \"12\": {\"In\": 1}, \"13\": {\"In\": 1}, \"14\": {\"In\": 1}, \"15\": {\"In\": 1}, \"16\": {\"O\": 1}, \"17\": {\"O\": 1}, \"18\": {\"O\": 1}, \"19\": {\"O\": 1}, \"20\": {\"O\": 1}, \"21\": {\"O\": 1}, \"22\": {\"O\": 1}, \"23\": {\"O\": 1}, \"24\": {\"O\": 1}, \"25\": {\"O\": 1}, \"26\": {\"O\": 1}, \"27\": {\"O\": 1}, \"28\": {\"O\": 1}, \"29\": {\"O\": 1}, \"30\": {\"O\": 1}, \"31\": {\"O\": 1}, \"32\": {\"O\": 1}, \"33\": {\"O\": 1}, \"34\": {\"O\": 1}, \"35\": {\"O\": 1}, \"36\": {\"O\": 1}, \"37\": {\"O\": 1}, \"38\": {\"O\": 1}, \"39\": {\"O\": 1}}" n_minim_iter=23 energy=-45157.47316621952 stress="0.13325022991840607 2.946164743067818e-13 -7.5676125398186e-13 2.946164743067818e-13 0.13327365227295226 -1.5184568992505585e-13 -7.5676125398186e-13 -1.5184568992505585e-13 0.13339747027428692" free_energy=-45157.47316621952 pbc="T T T"
In       2.68083494       4.65385671       7.82383762        0       0.00742747       0.00055976      -0.00559069
In      -0.05001552       3.99670688       5.67784910        1       0.00742747      -0.00055976       0.00559069
In       2.78086598       1.77033552      12.42869246        2      -0.00742747       0.00055976       0.00559069
In       5.51171644       1.11318568       1.07299426        3      -0.00742747      -0.00055976      -0.00559069
In       2.78086598       1.11318568       5.67784910        4      -0.00742747      -0.00055976       0.00559069
In       5.51171644       1.77033552       7.82383762        5      -0.00742747       0.00055976      -0.00559069
In       2.68083494       3.99670688       1.07299426        6       0.00742747      -0.00055976      -0.00559069
In      -0.05001552       4.65385671      12.42869246        7       0.00742747       0.00055976       0.00559069
In       2.77692424       4.33139499      11.08283982        8       0.00290041       0.00322771       0.00414316
In       5.50777470       4.31916860       2.41884690        9       0.00290041      -0.00322770      -0.00414316
In       2.68477669       1.44787379       9.16969026       10      -0.00290041       0.00322771      -0.00414316
In      -0.04607378       1.43564741       4.33199646       11      -0.00290041      -0.00322771       0.00414316
In       2.68477669       1.43564741       2.41884690       12      -0.00290041      -0.00322771      -0.00414316
In      -0.04607378       1.44787379      11.08283982       13      -0.00290041       0.00322771       0.00414316
In       2.77692424       4.31916860       4.33199646       14       0.00290041      -0.00322771       0.00414316
In       5.50777470       4.33139499       9.16969026       15       0.00290041       0.00322771      -0.00414316
O        4.54896882       5.30969765      10.65832051       16       0.00526277       0.00427564      -0.00617125
O        1.81811836       3.34086594       2.84336621       17       0.00526277      -0.00427564       0.00617125
O        0.91273210       2.42617645       9.59420957       18      -0.00526277       0.00427564       0.00617126
O        3.64358257       0.45734474       3.90747715       19      -0.00526277      -0.00427564      -0.00617126
O        0.91273210       0.45734474       2.84336621       20      -0.00526277      -0.00427564       0.00617126
O        3.64358257       2.42617645      10.65832051       21      -0.00526277       0.00427564      -0.00617125
O        4.54896882       3.34086594       3.90747715       22       0.00526277      -0.00427564      -0.00617126
O        1.81811836       5.30969765       9.59420957       23       0.00526277       0.00427564       0.00617126
O        3.68451563       3.09902612       8.51803084       24      -0.00175396       0.00145691      -0.00356056
O        0.95366517       5.55153747       4.98365588       25      -0.00175396      -0.00145691       0.00356056
O        1.77718529       0.21550493      11.73449924       26       0.00175396       0.00145691       0.00356056
O        4.50803575       2.66801627       1.76718748       27       0.00175396      -0.00145691      -0.00356056
O        1.77718529       2.66801627       4.98365588       28       0.00175396      -0.00145691       0.00356056
O        4.50803575       0.21550493       8.51803084       29       0.00175396       0.00145691      -0.00356056
O        3.68451563       5.55153747       1.76718748       30      -0.00175396      -0.00145691      -0.00356056
O        0.95366517       3.09902612      11.73449924       31      -0.00175396       0.00145691       0.00356056
O        3.61196030       3.72772088      12.79705567       32      -0.00133233       0.00114828      -0.00042909
O        0.88110983       4.92284271       0.70463105       33      -0.00133233      -0.00114828       0.00042909
O        1.84974063       0.84419968       7.45547441       34       0.00133233       0.00114828       0.00042909
O        4.58059109       2.03932152       6.04621231       35       0.00133233      -0.00114828      -0.00042909
O        1.84974063       2.03932152       0.70463105       36       0.00133233      -0.00114828       0.00042909
O        4.58059109       0.84419968      12.79705567       37       0.00133233       0.00114828      -0.00042909
O        3.61196030       4.92284271       6.04621231       38      -0.00133233      -0.00114828      -0.00042909
O        0.88110983       3.72772088       7.45547441       39      -0.00133233       0.00114828       0.00042909
