40
Lattice="5.6352366479075195 6.9677731932389505e-43 0.0 -1.1352035401109265e-43 6.115315937376885 0.0 0.0 0.0 16.582748165632722" Properties=species:S:1:pos:R:3:spacegroup_kinds:I:1:forces:R:3 spacegroup="P 1" unit_cell=conventional occupancy="_JSON {\"0\": {\"In\": 1}, \"1\": {\"In\": 1}, \"2\": {\"In\": 1}, \"3\": {\"In\": 1}, \"4\": {\"In\": 1}, \"5\": {\"In\": 1}, \"6\": {\"In\": 1}, \"7\": {\"In\": 1}, \"8\": {\"In\": 1}, \"9\": {\"In\": 1}, \"10\": {\"In\": 1}, \"11\": {\"In\": 1}, \"12\": {\"In\": 1}, \"13\": {\"In\": 1}, \"14\": {\"In\": 1}, \"15\": {\"In\": 1}, \"16\": {\"O\": 1}, \"17\": {\"O\": 1}, \"18\": {\"O\": 1}, \"19\": {\"O\": 1}, \"20\": {\"O\": 1}, \"21\": {\"O\": 1}, \"22\": {\"O\": 1}, \"23\": {\"O\": 1}, \"24\": {\"O\": 1}, \"25\": {\"O\": 1}, \"26\": {\"O\": 1}, \"27\": {\"O\": 1}, \"28\": {\"O\": 1}, \"29\": {\"O\": 1}, \"30\": {\"O\": 1}, \"31\": {\"O\": 1}, \"32\": {\"O\": 1}, \"33\": {\"O\": 1}, \"34\": {\"O\": 1}, \"35\": {\"O\": 1}, \"36\": {\"O\": 1}, \"37\": {\"O\": 1}, \"38\": {\"O\": 1}, \"39\": {\"O\": 1}}" n_minim_iter=13 energy=-45149.7441174692 stress="0.03715286854671532 1.1082159985714193e-12 2.7897870754663095e-14 1.1082159985714193e-12 0.03716117686889402 -5.729884765454934e-13 2.7897870754663095e-14 -5.729884765454934e-13 0.036991090245559306" free_energy=-45149.7441174692 pbc="T T T"
In       2.79401297       4.96016284       9.48404108        0      -0.00325544      -0.00121349      -0.00084708
In      -0.02360535       4.21281107       7.09870708        1      -0.00325544       0.00121349       0.00084708
In       2.84122367       1.90250487      15.39008117        2       0.00325544      -0.00121349       0.00084708
In       5.65884200       1.15515310       1.19266700        3       0.00325544       0.00121349      -0.00084708
In       2.84122367       1.15515310       7.09870708        4       0.00325544       0.00121349       0.00084708
In       5.65884200       1.90250487       9.48404108        5       0.00325544      -0.00121349      -0.00084708
In       2.79401297       4.21281107       1.19266700        6      -0.00325544       0.00121349      -0.00084708
In      -0.02360535       4.96016284      15.39008117        7      -0.00325544      -0.00121349       0.00084708
In       2.75263357       4.57863403      13.59383940        8      -0.00104128      -0.00324903       0.00060177
In       5.57025189       4.59433988       2.98890877        9      -0.00104128       0.00324903      -0.00060177
In       2.88260308       1.52097606      11.28028285       10       0.00104128      -0.00324903      -0.00060177
In       0.06498476       1.53668191       5.30246532       11       0.00104128       0.00324903       0.00060177
In       2.88260308       1.53668191       2.98890877       12       0.00104128       0.00324903      -0.00060177
In       0.06498476       1.52097606      13.59383940       13       0.00104128      -0.00324903       0.00060177
In       2.75263357       4.59433988       5.30246532       14      -0.00104128       0.00324903       0.00060177
In       5.57025189       4.57863403      11.28028285       15      -0.00104128      -0.00324903      -0.00060177
O        4.80026303       5.35929827      13.23324560       16       0.00362229      -0.00158594      -0.00095347
O        1.98264471       3.81367564       3.34950256       17       0.00362229       0.00158594       0.00095347
O        0.83497362       2.30164030      11.64087665       18      -0.00362229      -0.00158594       0.00095347
O        3.65259194       0.75601767       4.94187152       19      -0.00362229       0.00158594      -0.00095347
O        0.83497362       0.75601767       3.34950256       20      -0.00362229       0.00158594       0.00095347
O        3.65259194       2.30164030      13.23324560       21      -0.00362229      -0.00158594      -0.00095347
O        4.80026303       3.81367564       4.94187152       22       0.00362229       0.00158594      -0.00095347
O        1.98264471       5.35929827      11.64087665       23       0.00362229      -0.00158594       0.00095347
O        3.94355876       3.26178584      10.33001227       24      -0.00720786      -0.00192659      -0.00135277
O        1.12594044       5.91118806       6.25273590       25      -0.00720786       0.00192659       0.00135277
O        1.69167789       0.20412787      14.54410998       26       0.00720786      -0.00192659       0.00135277
O        4.50929621       2.85353009       2.03863818       27       0.00720786       0.00192659      -0.00135277
O        1.69167789       2.85353009       6.25273590       28       0.00720786       0.00192659       0.00135277
O        4.50929621       0.20412787      10.33001227       29       0.00720786      -0.00192659      -0.00135277
O        3.94355876       5.91118806       2.03863818       30      -0.00720786       0.00192659      -0.00135277
O        1.12594044       3.26178584      14.54410998       31      -0.00720786      -0.00192659       0.00135277
O        3.63423159       4.03075145      15.71618303       32      -0.00081695       0.00128299       0.00139897
O        0.81661326       5.14222245       0.86656514       33      -0.00081695      -0.00128299      -0.00139897
O        2.00100506       0.97309348       9.15793922       34       0.00081695       0.00128299      -0.00139897
O        4.81862338       2.08456448       7.42480894       35       0.00081695      -0.00128299       0.00139897
O        2.00100506       2.08456448       0.86656514       36       0.00081695      -0.00128299      -0.00139897
O        4.81862338       0.97309348      15.71618303       37       0.00081695       0.00128299       0.00139897
O        3.63423159       5.14222245       7.42480894       38      -0.00081695      -0.00128299       0.00139897
O        0.81661326       4.03075145       9.15793922       39      -0.00081695       0.00128299      -0.00139897
