40
Lattice="5.636232248405413 1.6680416119044093e-44 0.0 5.336983136304253e-43 6.10195841212772 0.0 0.0 0.0 16.616113083472246" Properties=species:S:1:pos:R:3:spacegroup_kinds:I:1:forces:R:3 spacegroup="P 1" unit_cell=conventional occupancy="_JSON {\"0\": {\"In\": 1}, \"1\": {\"In\": 1}, \"2\": {\"In\": 1}, \"3\": {\"In\": 1}, \"4\": {\"In\": 1}, \"5\": {\"In\": 1}, \"6\": {\"In\": 1}, \"7\": {\"In\": 1}, \"8\": {\"In\": 1}, \"9\": {\"In\": 1}, \"10\": {\"In\": 1}, \"11\": {\"In\": 1}, \"12\": {\"In\": 1}, \"13\": {\"In\": 1}, \"14\": {\"In\": 1}, \"15\": {\"In\": 1}, \"16\": {\"O\": 1}, \"17\": {\"O\": 1}, \"18\": {\"O\": 1}, \"19\": {\"O\": 1}, \"20\": {\"O\": 1}, \"21\": {\"O\": 1}, \"22\": {\"O\": 1}, \"23\": {\"O\": 1}, \"24\": {\"O\": 1}, \"25\": {\"O\": 1}, \"26\": {\"O\": 1}, \"27\": {\"O\": 1}, \"28\": {\"O\": 1}, \"29\": {\"O\": 1}, \"30\": {\"O\": 1}, \"31\": {\"O\": 1}, \"32\": {\"O\": 1}, \"33\": {\"O\": 1}, \"34\": {\"O\": 1}, \"35\": {\"O\": 1}, \"36\": {\"O\": 1}, \"37\": {\"O\": 1}, \"38\": {\"O\": 1}, \"39\": {\"O\": 1}}" n_minim_iter=13 energy=-45150.13015502136 stress="0.021153939978049287 7.35408883934772e-14 -8.425599425826735e-13 7.35408883934772e-14 0.021159772394362897 -3.782562582269307e-13 -8.425599425826735e-13 -3.782562582269307e-13 0.021106472913224678" free_energy=-45150.13015502136 pbc="T T T"
In       2.80384951       4.94424670       9.49013615        0       0.00054180      -0.00145882      -0.00203182
In      -0.01426662       4.20869092       7.12597693        1       0.00054180       0.00145882       0.00203182
In       2.83238274       1.89326749      15.43403347        2      -0.00054180      -0.00145882       0.00203182
In       5.65049887       1.15771171       1.18207961        3      -0.00054180       0.00145882      -0.00203182
In       2.83238274       1.15771171       7.12597693        4      -0.00054180       0.00145882       0.00203182
In       5.65049887       1.89326749       9.49013615        5      -0.00054180      -0.00145882      -0.00203182
In       2.80384951       4.20869092       1.18207961        6       0.00054180       0.00145882      -0.00203182
In      -0.01426662       4.94424670      15.43403347        7       0.00054180      -0.00145882       0.00203182
In       2.76744635       4.57644240      13.61983019        8      -0.00317284      -0.00312721      -0.00099057
In       5.58556248       4.57649522       2.99628289        9      -0.00317284       0.00312721       0.00099057
In       2.86878590       1.52546320      11.30433943       10       0.00317284      -0.00312721       0.00099057
In       0.05066977       1.52551601       5.31177365       11       0.00317284       0.00312721      -0.00099057
In       2.86878590       1.52551601       2.99628289       12       0.00317284       0.00312721       0.00099057
In       0.05066977       1.52546320      13.61983019       13       0.00317284      -0.00312721      -0.00099057
In       2.76744635       4.57649522       5.31177365       14      -0.00317284       0.00312721      -0.00099057
In       5.58556248       4.57644240      11.30433943       15      -0.00317284      -0.00312721       0.00099057
O        4.81293121       5.37128518      13.26214381       16       0.00361057       0.00034786      -0.00548295
O        1.99481509       3.78165244       3.35396927       17       0.00361057      -0.00034786       0.00548295
O        0.82330104       2.32030598      11.66202581       18      -0.00361057       0.00034786       0.00548295
O        3.64141716       0.73067323       4.95408727       19      -0.00361057      -0.00034786      -0.00548295
O        0.82330104       0.73067323       3.35396927       20      -0.00361057      -0.00034786       0.00548295
O        3.64141716       2.32030598      13.26214381       21      -0.00361057       0.00034786      -0.00548295
O        4.81293121       3.78165244       4.95408727       22       0.00361057      -0.00034786      -0.00548295
O        1.99481509       5.37128518      11.66202581       23       0.00361057       0.00034786       0.00548295
O        3.94156016       3.25432993      10.33376146       24       0.00437659       0.00069284       0.00558372
O        1.12344404       5.89860769       6.28235163       25       0.00437659      -0.00069284      -0.00558372
O        1.69467209       0.20335072      14.59040817       26      -0.00437659       0.00069284      -0.00558372
O        4.51278821       2.84762849       2.02570492       27      -0.00437659      -0.00069284       0.00558372
O        1.69467209       2.84762849       6.28235163       28      -0.00437659      -0.00069284      -0.00558372
O        4.51278821       0.20335072      10.33376146       29      -0.00437659       0.00069284       0.00558372
O        3.94156016       5.89860769       2.02570492       30       0.00437659      -0.00069284       0.00558372
O        1.12344404       3.25432993      14.59040817       31       0.00437659       0.00069284      -0.00558372
O        3.64869739       4.02453038      15.75188269       32      -0.00438811      -0.00035348       0.00082083
O        0.83058126       5.12840723       0.86423040       33      -0.00438811       0.00035348      -0.00082083
O        1.98753486       0.97355118       9.17228694       34       0.00438811      -0.00035348      -0.00082083
O        4.80565098       2.07742803       7.44382614       35       0.00438811       0.00035348       0.00082083
O        1.98753486       2.07742803       0.86423040       36       0.00438811       0.00035348      -0.00082083
O        4.80565098       0.97355118      15.75188269       37       0.00438811      -0.00035348       0.00082083
O        3.64869739       5.12840723       7.44382614       38      -0.00438811       0.00035348       0.00082083
O        0.83058126       4.02453038       9.17228694       39      -0.00438811      -0.00035348      -0.00082083
