40
Lattice="6.153446826904415 -6.652084706775814e-43 0.0 6.741764330134956e-43 6.236404097913785 0.0 0.0 0.0 17.31555481202661" Properties=species:S:1:pos:R:3:spacegroup_kinds:I:1:forces:R:3 spacegroup="P 1" unit_cell=conventional occupancy="_JSON {\"0\": {\"In\": 1}, \"1\": {\"In\": 1}, \"2\": {\"In\": 1}, \"3\": {\"In\": 1}, \"4\": {\"In\": 1}, \"5\": {\"In\": 1}, \"6\": {\"In\": 1}, \"7\": {\"In\": 1}, \"8\": {\"In\": 1}, \"9\": {\"In\": 1}, \"10\": {\"In\": 1}, \"11\": {\"In\": 1}, \"12\": {\"In\": 1}, \"13\": {\"In\": 1}, \"14\": {\"In\": 1}, \"15\": {\"In\": 1}, \"16\": {\"O\": 1}, \"17\": {\"O\": 1}, \"18\": {\"O\": 1}, \"19\": {\"O\": 1}, \"20\": {\"O\": 1}, \"21\": {\"O\": 1}, \"22\": {\"O\": 1}, \"23\": {\"O\": 1}, \"24\": {\"O\": 1}, \"25\": {\"O\": 1}, \"26\": {\"O\": 1}, \"27\": {\"O\": 1}, \"28\": {\"O\": 1}, \"29\": {\"O\": 1}, \"30\": {\"O\": 1}, \"31\": {\"O\": 1}, \"32\": {\"O\": 1}, \"33\": {\"O\": 1}, \"34\": {\"O\": 1}, \"35\": {\"O\": 1}, \"36\": {\"O\": 1}, \"37\": {\"O\": 1}, \"38\": {\"O\": 1}, \"39\": {\"O\": 1}}" n_minim_iter=1 energy=-45147.87870769301 stress="0.05404476648259722 -2.404165129797707e-13 -2.2405161263090644e-13 -2.404165129797707e-13 0.05242749591022133 -9.721057146043371e-14 -2.2405161263090644e-13 -9.721057146043371e-14 0.055020483867142346" free_energy=-45147.87870769301 pbc="T T T"
In       2.68393306       5.22448452      10.25890449        0       0.11468125      -0.02124653       0.11087070
In      -0.39279036       4.13012162       7.05665032        1       0.11468125       0.02124653      -0.11087070
In       3.46951377       2.10628247      15.71442772        2      -0.11468125      -0.02124653      -0.11087070
In       6.54623718       1.01191957       1.60112709        3      -0.11468125       0.02124653       0.11087070
In       3.46951377       1.01191957       7.05665032        4      -0.11468125       0.02124653      -0.11087070
In       6.54623718       2.10628247      10.25890449        5      -0.11468125      -0.02124653       0.11087070
In       2.68393306       4.13012162       1.60112709        6       0.11468125       0.02124653       0.11087070
In      -0.39279036       5.22448452      15.71442772        7       0.11468125      -0.02124653      -0.11087070
In       2.79014803       5.03821073      14.19238242        8       0.01814326       0.03870636       0.15925054
In       5.86687144       4.31639541       3.12317239        9       0.01814326      -0.03870636      -0.15925054
In       3.36329880       1.92000869      11.78094980       10      -0.01814326       0.03870636      -0.15925054
In       0.28657538       1.19819336       5.53460501       11      -0.01814326      -0.03870636       0.15925054
In       3.36329880       1.19819336       3.12317239       12      -0.01814326      -0.03870636      -0.15925054
In       0.28657538       1.92000869      14.19238242       13      -0.01814326       0.03870636       0.15925054
In       2.79014803       4.31639541       5.53460501       14       0.01814326      -0.03870636       0.15925054
In       5.86687144       5.03821073      11.78094980       15       0.01814326       0.03870636      -0.15925054
O        4.94599656       5.72171494      13.72083968       16      -0.07420733       0.02442507       0.20593193
O        1.86927314       3.63289121       3.59471513       17      -0.07420733      -0.02442507      -0.20593193
O        1.20745027       2.60351289      12.25249254       18       0.07420733       0.02442507      -0.20593193
O        4.28417368       0.51468916       5.06306228       19       0.07420733      -0.02442507       0.20593193
O        1.20745027       0.51468916       3.59471513       20       0.07420733      -0.02442507      -0.20593193
O        4.28417368       2.60351289      13.72083968       21       0.07420733       0.02442507       0.20593193
O        4.94599656       3.63289121       5.06306228       22      -0.07420733      -0.02442507       0.20593193
O        1.86927314       5.72171494      12.25249254       23      -0.07420733       0.02442507      -0.20593193
O        4.16263016       3.84086139      10.96742454       24      -0.00594816      -0.05061869      -0.02467582
O        1.08590674       5.51374475       6.34813027       25      -0.00594816       0.05061869       0.02467582
O        1.99081667       0.72265935      15.00590768       26       0.00594816      -0.05061869       0.02467582
O        5.06754008       2.39554270       2.30964713       27       0.00594816       0.05061869      -0.02467582
O        1.99081667       2.39554270       6.34813027       28       0.00594816       0.05061869       0.02467582
O        5.06754008       0.72265935      10.96742454       29       0.00594816      -0.05061869      -0.02467582
O        4.16263016       5.51374475       2.30964713       30      -0.00594816       0.05061869      -0.02467582
O        1.08590674       3.84086139      15.00590768       31      -0.00594816      -0.05061869       0.02467582
O        3.82341983       4.26737818      16.20158038       32       0.04390174      -0.07877490      -0.06894355
O        0.74669642       5.08722796       1.11397443       33       0.04390174       0.07877490       0.06894355
O        2.33002699       1.14917613       9.77175184       34      -0.04390174      -0.07877490       0.06894355
O        5.40675041       1.96902591       7.54380297       35      -0.04390174       0.07877490      -0.06894355
O        2.33002699       1.96902591       1.11397443       36      -0.04390174       0.07877490       0.06894355
O        5.40675041       1.14917613      16.20158038       37      -0.04390174      -0.07877490      -0.06894355
O        3.82341983       5.08722796       7.54380297       38       0.04390174       0.07877490      -0.06894355
O        0.74669642       4.26737818       9.77175184       39       0.04390174      -0.07877490       0.06894355
40
Lattice="6.1513398470736105 -6.551239664636769e-43 0.0 7.039368747603092e-43 6.250435942190267 0.0 0.0 0.0 17.282600130023216" Properties=species:S:1:pos:R:3:spacegroup_kinds:I:1:forces:R:3 spacegroup="P 1" unit_cell=conventional occupancy="_JSON {\"0\": {\"In\": 1}, \"1\": {\"In\": 1}, \"2\": {\"In\": 1}, \"3\": {\"In\": 1}, \"4\": {\"In\": 1}, \"5\": {\"In\": 1}, \"6\": {\"In\": 1}, \"7\": {\"In\": 1}, \"8\": {\"In\": 1}, \"9\": {\"In\": 1}, \"10\": {\"In\": 1}, \"11\": {\"In\": 1}, \"12\": {\"In\": 1}, \"13\": {\"In\": 1}, \"14\": {\"In\": 1}, \"15\": {\"In\": 1}, \"16\": {\"O\": 1}, \"17\": {\"O\": 1}, \"18\": {\"O\": 1}, \"19\": {\"O\": 1}, \"20\": {\"O\": 1}, \"21\": {\"O\": 1}, \"22\": {\"O\": 1}, \"23\": {\"O\": 1}, \"24\": {\"O\": 1}, \"25\": {\"O\": 1}, \"26\": {\"O\": 1}, \"27\": {\"O\": 1}, \"28\": {\"O\": 1}, \"29\": {\"O\": 1}, \"30\": {\"O\": 1}, \"31\": {\"O\": 1}, \"32\": {\"O\": 1}, \"33\": {\"O\": 1}, \"34\": {\"O\": 1}, \"35\": {\"O\": 1}, \"36\": {\"O\": 1}, \"37\": {\"O\": 1}, \"38\": {\"O\": 1}, \"39\": {\"O\": 1}}" n_minim_iter=2 energy=-45147.88167826345 stress="0.05356297465697425 -1.7383044602489692e-13 -1.4422217689868085e-13 -1.7383044602489692e-13 0.05389238643322094 -1.9310656761686604e-13 -1.4422217689868085e-13 -1.9310656761686604e-13 0.052197775260607704" free_energy=-45147.88167826345 pbc="T T T"
In       2.68329035       5.23618824      10.23964660        0       0.14248869      -0.00248965       0.10928469
In      -0.39237958       4.13946567       7.04295353        1       0.14248869       0.00248965      -0.10928469
In       3.46804950       2.11097027      15.68425359        2      -0.14248869      -0.00248965      -0.10928469
In       6.54371942       1.01424770       1.59834654        3      -0.14248869       0.00248965       0.10928469
In       3.46804950       1.01424770       7.04295353        4      -0.14248869       0.00248965      -0.10928469
In       6.54371942       2.11097027      10.23964660        5      -0.14248869      -0.00248965       0.10928469
In       2.68329035       4.13946567       1.59834654        6       0.14248869       0.00248965       0.10928469
In      -0.39237958       5.23618824      15.68425359        7       0.14248869      -0.00248965      -0.10928469
In       2.78923638       5.04964015      14.16575477        8       0.01710827       0.03719426       0.15916500
In       5.86490630       4.32601376       3.11684536        9       0.01710827      -0.03719426      -0.15916500
In       3.36210347       1.92442218      11.75814542       10      -0.01710827       0.03719426      -0.15916500
In       0.28643355       1.20079579       5.52445471       11      -0.01710827      -0.03719426       0.15916500
In       3.36210347       1.20079579       3.11684536       12      -0.01710827      -0.03719426      -0.15916500
In       0.28643355       1.92442218      14.16575477       13      -0.01710827       0.03719426       0.15916500
In       2.78923638       4.32601376       5.52445471       14       0.01710827      -0.03719426       0.15916500
In       5.86490630       5.04964015      11.75814542       15       0.01710827       0.03719426      -0.15916500
O        4.94412424       5.73464773      13.69522175       16      -0.08319075       0.02236231       0.18414731
O        1.86845431       3.64100618       3.58737838       17      -0.08319075      -0.02236231      -0.18414731
O        1.20721561       2.60942976      12.22867844       18       0.08319075       0.02236231      -0.18414731
O        4.28288553       0.51578821       5.05392169       19       0.08319075      -0.02236231       0.18414731
O        1.20721561       0.51578821       3.58737838       20       0.08319075      -0.02236231      -0.18414731
O        4.28288553       2.60942976      13.69522175       21       0.08319075       0.02236231       0.18414731
O        4.94412424       3.64100618       5.05392169       22      -0.08319075      -0.02236231       0.18414731
O        1.86845431       5.73464773      12.22867844       23      -0.08319075       0.02236231      -0.18414731
O        4.16119052       3.84938103      10.94649216       24      -0.01331721      -0.06089857      -0.02247312
O        1.08552059       5.52627289       6.33610797       25      -0.01331721       0.06089857       0.02247312
O        1.99014933       0.72416306      14.97740804       26       0.01331721      -0.06089857       0.02247312
O        5.06581925       2.40105491       2.30519209       27       0.01331721       0.06089857      -0.02247312
O        1.99014933       2.40105491       6.33610797       28       0.01331721       0.06089857       0.02247312
O        5.06581925       0.72416306      10.94649216       29       0.01331721      -0.06089857      -0.02247312
O        4.16119052       5.52627289       2.30519209       30      -0.01331721       0.06089857      -0.02247312
O        1.08552059       3.84938103      14.97740804       31      -0.01331721      -0.06089857       0.02247312
O        3.82221644       4.27678947      16.17057996       32       0.05328316      -0.08240127      -0.05906121
O        0.74654651       5.09886445       1.11202017       33       0.05328316       0.08240127       0.05906121
O        2.32912341       1.15157149       9.75332024       34      -0.05328316      -0.08240127       0.05906121
O        5.40479333       1.97364648       7.52927989       35      -0.05328316       0.08240127      -0.05906121
O        2.32912341       1.97364648       1.11202017       36      -0.05328316       0.08240127       0.05906121
O        5.40479333       1.15157149      16.17057996       37      -0.05328316      -0.08240127      -0.05906121
O        3.82221644       5.09886445       7.52927989       38       0.05328316       0.08240127      -0.05906121
O        0.74654651       4.27678947       9.75332024       39       0.05328316      -0.08240127       0.05906121
40
Lattice="6.1226901270839775 -6.518945531347067e-43 0.0 6.619357803733997e-43 6.266574441416648 0.0 0.0 0.0 17.31875341051101" Properties=species:S:1:pos:R:3:spacegroup_kinds:I:1:forces:R:3 spacegroup="P 1" unit_cell=conventional occupancy="_JSON {\"0\": {\"In\": 1}, \"1\": {\"In\": 1}, \"2\": {\"In\": 1}, \"3\": {\"In\": 1}, \"4\": {\"In\": 1}, \"5\": {\"In\": 1}, \"6\": {\"In\": 1}, \"7\": {\"In\": 1}, \"8\": {\"In\": 1}, \"9\": {\"In\": 1}, \"10\": {\"In\": 1}, \"11\": {\"In\": 1}, \"12\": {\"In\": 1}, \"13\": {\"In\": 1}, \"14\": {\"In\": 1}, \"15\": {\"In\": 1}, \"16\": {\"O\": 1}, \"17\": {\"O\": 1}, \"18\": {\"O\": 1}, \"19\": {\"O\": 1}, \"20\": {\"O\": 1}, \"21\": {\"O\": 1}, \"22\": {\"O\": 1}, \"23\": {\"O\": 1}, \"24\": {\"O\": 1}, \"25\": {\"O\": 1}, \"26\": {\"O\": 1}, \"27\": {\"O\": 1}, \"28\": {\"O\": 1}, \"29\": {\"O\": 1}, \"30\": {\"O\": 1}, \"31\": {\"O\": 1}, \"32\": {\"O\": 1}, \"33\": {\"O\": 1}, \"34\": {\"O\": 1}, \"35\": {\"O\": 1}, \"36\": {\"O\": 1}, \"37\": {\"O\": 1}, \"38\": {\"O\": 1}, \"39\": {\"O\": 1}}" n_minim_iter=3 energy=-45147.888588664886 stress="0.045992573532303134 -3.7393280815087257e-14 4.398366091863401e-13 -3.7393280815087257e-14 0.053717679966727924 -4.5321938426380324e-13 4.398366091863401e-13 -4.5321938426380324e-13 0.05394359648414167" free_energy=-45147.888588664886 pbc="T T T"
In       2.67393140       5.24946555      10.26370554        0       0.09215901       0.04738232       0.06090662
In      -0.38741367       4.15039611       7.05504787        1       0.09215901      -0.04738232      -0.06090662
In       3.44875873       2.11617833      15.71442457        2      -0.09215901       0.04738232      -0.06090662
In       6.51010379       1.01710889       1.60432884        3      -0.09215901      -0.04738232       0.06090662
In       3.44875873       1.01710889       7.05504787        4      -0.09215901      -0.04738232      -0.06090662
In       6.51010379       2.11617833      10.26370554        5      -0.09215901       0.04738232       0.06090662
In       2.67393140       4.15039611       1.60432884        6       0.09215901      -0.04738232       0.06090662
In      -0.38741367       5.24946555      15.71442457        7       0.09215901       0.04738232      -0.06090662
In       2.77666447       5.06359215      14.19920957        8       0.00577259       0.02518851       0.09693083
In       5.83800953       4.33626952       3.11954384        9       0.00577258      -0.02518851      -0.09693083
In       3.34602566       1.93030492      11.77892055       10      -0.00577259       0.02518851      -0.09693083
In       0.28468059       1.20298230       5.53983286       11      -0.00577259      -0.02518851       0.09693083
In       3.34602566       1.20298230       3.11954384       12      -0.00577259      -0.02518851      -0.09693083
In       0.28468059       1.93030492      14.19920957       13      -0.00577259       0.02518851       0.09693083
In       2.77666447       4.33626952       5.53983286       14       0.00577259      -0.02518851       0.09693083
In       5.83800953       5.06359215      11.77892055       15       0.00577259       0.02518851      -0.09693083
O        4.91919500       5.75001517      13.72850179       16      -0.05098489       0.01837292       0.09885673
O        1.85784994       3.64984649       3.59025162       17      -0.05098489      -0.01837292      -0.09885673
O        1.20349513       2.61672795      12.24962833       18       0.05098489       0.01837292      -0.09885673
O        4.26484019       0.51655927       5.06912508       19       0.05098489      -0.01837292       0.09885673
O        1.20349513       0.51655927       3.59025162       20       0.05098489      -0.01837292      -0.09885673
O        4.26484019       2.61672795      13.72850179       21       0.05098489       0.01837292       0.09885673
O        4.91919500       3.64984649       5.06912508       22      -0.05098489      -0.01837292       0.09885673
O        1.85784994       5.75001517      12.24962833       23      -0.05098489       0.01837292      -0.09885673
O        4.14156244       3.85794759      10.96883023       24       0.02202034      -0.09515378       0.00017813
O        1.08021737       5.54191407       6.34992318       25       0.02202034       0.09515378      -0.00017813
O        1.98112769       0.72466037      15.00929988       26      -0.02202034      -0.09515378      -0.00017813
O        5.04247275       2.40862685       2.30945353       27      -0.02202034       0.09515378       0.00017813
O        1.98112769       2.40862685       6.34992318       28      -0.02202034       0.09515378      -0.00017813
O        5.04247275       0.72466037      10.96883023       29      -0.02202034      -0.09515378       0.00017813
O        4.14156244       5.54191407       2.30945353       30       0.02202034       0.09515378       0.00017813
O        1.08021737       3.85794759      15.00929988       31       0.02202034      -0.09515378      -0.00017813
O        3.80559794       4.28587508      16.20289368       32       0.04903868      -0.08688969      -0.02097250
O        0.74425287       5.11398658       1.11585973       33       0.04903868       0.08688969       0.02097250
O        2.31709219       1.15258786       9.77523644       34      -0.04903868      -0.08688969       0.02097250
O        5.37843725       1.98069936       7.54351697       35      -0.04903868       0.08688969      -0.02097250
O        2.31709219       1.98069936       1.11585973       36      -0.04903868       0.08688969       0.02097250
O        5.37843725       1.15258786      16.20289368       37      -0.04903868      -0.08688969      -0.02097250
O        3.80559794       5.11398658       7.54351697       38       0.04903868       0.08688969      -0.02097250
O        0.74425287       4.28587508       9.77523644       39       0.04903868      -0.08688969       0.02097250
40
Lattice="6.1423718890749015 -6.380281190840081e-43 0.0 6.460542137858324e-43 6.256068584023191 0.0 0.0 0.0 17.29224991251876" Properties=species:S:1:pos:R:3:spacegroup_kinds:I:1:forces:R:3 spacegroup="P 1" unit_cell=conventional occupancy="_JSON {\"0\": {\"In\": 1}, \"1\": {\"In\": 1}, \"2\": {\"In\": 1}, \"3\": {\"In\": 1}, \"4\": {\"In\": 1}, \"5\": {\"In\": 1}, \"6\": {\"In\": 1}, \"7\": {\"In\": 1}, \"8\": {\"In\": 1}, \"9\": {\"In\": 1}, \"10\": {\"In\": 1}, \"11\": {\"In\": 1}, \"12\": {\"In\": 1}, \"13\": {\"In\": 1}, \"14\": {\"In\": 1}, \"15\": {\"In\": 1}, \"16\": {\"O\": 1}, \"17\": {\"O\": 1}, \"18\": {\"O\": 1}, \"19\": {\"O\": 1}, \"20\": {\"O\": 1}, \"21\": {\"O\": 1}, \"22\": {\"O\": 1}, \"23\": {\"O\": 1}, \"24\": {\"O\": 1}, \"25\": {\"O\": 1}, \"26\": {\"O\": 1}, \"27\": {\"O\": 1}, \"28\": {\"O\": 1}, \"29\": {\"O\": 1}, \"30\": {\"O\": 1}, \"31\": {\"O\": 1}, \"32\": {\"O\": 1}, \"33\": {\"O\": 1}, \"34\": {\"O\": 1}, \"35\": {\"O\": 1}, \"36\": {\"O\": 1}, \"37\": {\"O\": 1}, \"38\": {\"O\": 1}, \"39\": {\"O\": 1}}" n_minim_iter=4 energy=-45147.90979697242 stress="0.04734809838138113 5.325600103399836e-13 7.728735401788036e-14 5.325600103399836e-13 0.04874219718454517 3.1969575851422413e-13 7.728735401788036e-14 3.1969575851422413e-13 0.04890754963830209" free_energy=-45147.90979697242 pbc="T T T"
In       2.68817696       5.24041764      10.25266314        0       0.02182939      -0.00474528      -0.02726817
In      -0.38300898       4.14368523       7.03958677        1       0.02182939       0.00474528       0.02726817
In       3.45419493       2.11238335      15.68571172        2      -0.02182939      -0.00474528       0.02726817
In       6.52538087       1.01565094       1.60653819        3      -0.02182939       0.00474528      -0.02726817
In       3.45419493       1.01565094       7.03958677        4      -0.02182939       0.00474528       0.02726817
In       6.52538087       2.11238335      10.25266314        5      -0.02182939      -0.00474528      -0.02726817
In       2.68817696       4.14368523       1.60653819        6       0.02182939       0.00474528      -0.02726817
In      -0.38300898       5.24041764      15.68571172        7       0.02182939      -0.00474528       0.02726817
In       2.78632107       5.05673189      14.18426467        8       0.01575966       0.00827802       0.03288261
In       5.85750702       4.32737098       3.10798524        9       0.01575966      -0.00827802      -0.03288261
In       3.35605082       1.92869760      11.75411020       10      -0.01575966       0.00827802      -0.03288261
In       0.28486487       1.19933669       5.53813972       11      -0.01575966      -0.00827802       0.03288261
In       3.35605082       1.19933669       3.10798524       12      -0.01575966      -0.00827802      -0.03288261
In       0.28486487       1.92869760      14.18426467       13      -0.01575966       0.00827802       0.03288261
In       2.78632107       4.32737098       5.53813972       14       0.01575966      -0.00827802       0.03288261
In       5.85750702       5.05673189      11.75411020       15       0.01575966       0.00827802      -0.03288261
O        4.93160332       5.74138347      13.71564355       16      -0.03573968       0.00267215      -0.11256130
O        1.86041738       3.64271940       3.57660637       17      -0.03573968      -0.00267215       0.11256130
O        1.21076857       2.61334918      12.22273132       18       0.03573968       0.00267215       0.11256130
O        4.28195451       0.51468511       5.06951859       19       0.03573968      -0.00267215      -0.11256130
O        1.21076857       0.51468511       3.57660637       20       0.03573968      -0.00267215       0.11256130
O        4.28195451       2.61334918      13.71564355       21       0.03573968       0.00267215      -0.11256130
O        4.93160332       3.64271940       5.06951859       22      -0.03573968      -0.00267215      -0.11256130
O        1.86041738       5.74138347      12.22273132       23      -0.03573968       0.00267215       0.11256130
O        4.15452125       3.84884134      10.95109610       24       0.07117999      -0.06560557      -0.01560624
O        1.08333531       5.53526153       6.34115382       25       0.07117999       0.06560557       0.01560624
O        1.98785064       0.72080705      14.98727877       26      -0.07117999      -0.06560557       0.01560624
O        5.05903658       2.40722724       2.30497114       27      -0.07117999       0.06560557      -0.01560624
O        1.98785064       2.40722724       6.34115382       28      -0.07117999       0.06560557       0.01560625
O        5.05903658       0.72080705      10.95109610       29      -0.07117999      -0.06560557      -0.01560624
O        4.15452125       5.53526153       2.30497114       30       0.07117999       0.06560557      -0.01560624
O        1.08333531       3.84884134      14.98727877       31       0.07117999      -0.06560557       0.01560624
O        3.82000680       4.27509169      16.17547213       32       0.03381016      -0.03139052       0.07088979
O        0.74882086       5.10901119       1.11677778       33       0.03381016       0.03139052      -0.07088979
O        2.32236509       1.14705740       9.76290274       34      -0.03381016      -0.03139052      -0.07088979
O        5.39355103       1.98097689       7.52934717       35      -0.03381016       0.03139052       0.07088979
O        2.32236509       1.98097689       1.11677778       36      -0.03381016       0.03139052      -0.07088979
O        5.39355103       1.14705740      16.17547213       37      -0.03381016      -0.03139052       0.07088979
O        3.82000680       5.10901119       7.52934717       38       0.03381016       0.03139052       0.07088979
O        0.74882086       4.27509169       9.76290274       39       0.03381016      -0.03139052      -0.07088979
40
Lattice="6.15700156858147 -4.670808921738527e-43 0.0 5.286297606197308e-43 6.248753573341021 0.0 0.0 0.0 17.271356535216547" Properties=species:S:1:pos:R:3:spacegroup_kinds:I:1:forces:R:3 spacegroup="P 1" unit_cell=conventional occupancy="_JSON {\"0\": {\"In\": 1}, \"1\": {\"In\": 1}, \"2\": {\"In\": 1}, \"3\": {\"In\": 1}, \"4\": {\"In\": 1}, \"5\": {\"In\": 1}, \"6\": {\"In\": 1}, \"7\": {\"In\": 1}, \"8\": {\"In\": 1}, \"9\": {\"In\": 1}, \"10\": {\"In\": 1}, \"11\": {\"In\": 1}, \"12\": {\"In\": 1}, \"13\": {\"In\": 1}, \"14\": {\"In\": 1}, \"15\": {\"In\": 1}, \"16\": {\"O\": 1}, \"17\": {\"O\": 1}, \"18\": {\"O\": 1}, \"19\": {\"O\": 1}, \"20\": {\"O\": 1}, \"21\": {\"O\": 1}, \"22\": {\"O\": 1}, \"23\": {\"O\": 1}, \"24\": {\"O\": 1}, \"25\": {\"O\": 1}, \"26\": {\"O\": 1}, \"27\": {\"O\": 1}, \"28\": {\"O\": 1}, \"29\": {\"O\": 1}, \"30\": {\"O\": 1}, \"31\": {\"O\": 1}, \"32\": {\"O\": 1}, \"33\": {\"O\": 1}, \"34\": {\"O\": 1}, \"35\": {\"O\": 1}, \"36\": {\"O\": 1}, \"37\": {\"O\": 1}, \"38\": {\"O\": 1}, \"39\": {\"O\": 1}}" n_minim_iter=5 energy=-45147.91569771079 stress="0.05052323327726848 -1.5385375817337576e-13 2.1472380656021135e-13 -1.5385375817337576e-13 0.04801310209908311 -2.6910933695950313e-13 2.1472380656021135e-13 -2.6910933695950313e-13 0.04787520402187359" free_energy=-45147.91569771079 pbc="T T T"
In       2.69504335       5.23382723      10.23906198        0       0.02479633      -0.02813602       0.01998141
In      -0.38345744       4.13930313       7.03229455        1       0.02479633       0.02813602      -0.01998141
In       3.46195822       2.10945045      15.66797282        2      -0.02479633      -0.02813602      -0.01998141
In       6.54045900       1.01492634       1.60338372        3      -0.02479633       0.02813602       0.01998141
In       3.46195822       1.01492634       7.03229455        4      -0.02479633       0.02813602      -0.01998141
In       6.54045900       2.10945045      10.23906198        5      -0.02479633      -0.02813602       0.01998141
In       2.69504335       4.13930313       1.60338372        6       0.02479633       0.02813602       0.01998141
In      -0.38345744       5.23382723      15.66797282        7       0.02479633      -0.02813602      -0.01998141
In       2.79352648       5.05102433      14.16797268        8       0.02605578       0.00346883       0.04250335
In       5.87202726       4.32210603       3.10338386        9       0.02605578      -0.00346883      -0.04250335
In       3.36347509       1.92664755      11.73906213       10      -0.02605578       0.00346883      -0.04250335
In       0.28497430       1.19772924       5.53229441       11      -0.02605578      -0.00346883       0.04250335
In       3.36347509       1.19772924       3.10338386       12      -0.02605578      -0.00346883      -0.04250335
In       0.28497430       1.92664755      14.16797268       13      -0.02605578       0.00346883       0.04250335
In       2.79352648       4.32210603       5.53229441       14       0.02605578      -0.00346883       0.04250335
In       5.87202726       5.05102433      11.73906213       15       0.02605578       0.00346883      -0.04250335
O        4.94221918       5.73468774      13.69459747       16      -0.03156990      -0.00419343      -0.02392601
O        1.86371840       3.63844262       3.57675907       17      -0.03156990       0.00419343       0.02392601
O        1.21478239       2.61031095      12.21243734       18       0.03156990      -0.00419343       0.02392601
O        4.29328317       0.51406584       5.05891920       19       0.03156990       0.00419343      -0.02392601
O        1.21478239       0.51406584       3.57675907       20       0.03156990       0.00419343       0.02392601
O        4.29328317       2.61031095      13.69459747       21       0.03156990      -0.00419343      -0.02392601
O        4.94221918       3.63844262       5.05891920       22      -0.03156990       0.00419343      -0.02392601
O        1.86371840       5.73468774      12.21243734       23      -0.03156990      -0.00419343       0.02392601
O        4.16687600       3.84240579      10.93725898       24       0.04347255      -0.03129154      -0.04503634
O        1.08837522       5.53072457       6.33409755       25       0.04347255       0.03129154       0.04503634
O        1.99012557       0.71802901      14.96977582       26      -0.04347255      -0.03129154       0.04503634
O        5.06862635       2.40634778       2.30158072       27      -0.04347255       0.03129154      -0.04503634
O        1.99012557       2.40634778       6.33409755       28      -0.04347255       0.03129154       0.04503634
O        5.06862635       0.71802901      10.93725898       29      -0.04347255      -0.03129154      -0.04503634
O        4.16687600       5.53072457       2.30158072       30       0.04347255       0.03129154      -0.04503634
O        1.08837522       3.84240579      14.96977582       31       0.04347255      -0.03129154       0.04503634
O        3.83013213       4.26934430      16.15857468       32       0.04192911      -0.01748541       0.02246554
O        0.75163135       5.10378606       1.11278185       33       0.04192911       0.01748541      -0.02246554
O        2.32686944       1.14496751       9.74846012       34      -0.04192911      -0.01748541      -0.02246554
O        5.40537022       1.97940927       7.52289641       35      -0.04192911       0.01748541       0.02246554
O        2.32686944       1.97940927       1.11278185       36      -0.04192911       0.01748541      -0.02246554
O        5.40537022       1.14496751      16.15857468       37      -0.04192911      -0.01748541       0.02246554
O        3.83013213       5.10378606       7.52289641       38       0.04192911       0.01748541       0.02246554
O        0.75163135       4.26934430       9.74846012       39       0.04192911      -0.01748541      -0.02246554
40