40
Lattice="5.256474689388076 -4.402886315320259e-42 0.0 1.3070685546512382e-42 6.00061213309726 0.0 0.0 0.0 13.06142821651238" Properties=species:S:1:pos:R:3:spacegroup_kinds:I:1:forces:R:3 spacegroup="P 1" unit_cell=conventional occupancy="_JSON {\"0\": {\"In\": 1}, \"1\": {\"In\": 1}, \"2\": {\"In\": 1}, \"3\": {\"In\": 1}, \"4\": {\"In\": 1}, \"5\": {\"In\": 1}, \"6\": {\"In\": 1}, \"7\": {\"In\": 1}, \"8\": {\"In\": 1}, \"9\": {\"In\": 1}, \"10\": {\"In\": 1}, \"11\": {\"In\": 1}, \"12\": {\"In\": 1}, \"13\": {\"In\": 1}, \"14\": {\"In\": 1}, \"15\": {\"In\": 1}, \"16\": {\"O\": 1}, \"17\": {\"O\": 1}, \"18\": {\"O\": 1}, \"19\": {\"O\": 1}, \"20\": {\"O\": 1}, \"21\": {\"O\": 1}, \"22\": {\"O\": 1}, \"23\": {\"O\": 1}, \"24\": {\"O\": 1}, \"25\": {\"O\": 1}, \"26\": {\"O\": 1}, \"27\": {\"O\": 1}, \"28\": {\"O\": 1}, \"29\": {\"O\": 1}, \"30\": {\"O\": 1}, \"31\": {\"O\": 1}, \"32\": {\"O\": 1}, \"33\": {\"O\": 1}, \"34\": {\"O\": 1}, \"35\": {\"O\": 1}, \"36\": {\"O\": 1}, \"37\": {\"O\": 1}, \"38\": {\"O\": 1}, \"39\": {\"O\": 1}}" n_minim_iter=33 energy=-45163.69216282272 stress="0.31763438900333174 -7.174438526757664e-13 9.083923363646687e-13 -7.174438526757664e-13 0.31760067409922876 -1.134558434516889e-13 9.083923363646687e-13 -1.134558434516889e-13 0.3176815828241255" free_energy=-45163.69216282272 pbc="T T T"
In       2.56939214       4.71052911       7.68026754        0       0.00005691       0.00120213       0.00009196
In      -0.05884520       4.29038909       5.38116067        1       0.00005691      -0.00120213      -0.00009196
In       2.68708255       1.71022305      11.91187478        2      -0.00005691       0.00120213      -0.00009196
In       5.31531989       1.29008302       1.14955344        3      -0.00005691      -0.00120213       0.00009196
In       2.68708255       1.29008302       5.38116067        4      -0.00005691      -0.00120213      -0.00009196
In       5.31531989       1.71022305       7.68026754        5      -0.00005691       0.00120213       0.00009196
In       2.56939214       4.29038909       1.14955344        6       0.00005691      -0.00120213       0.00009196
In      -0.05884520       4.71052911      11.91187478        7       0.00005691       0.00120213      -0.00009196
In       2.60990449       4.27618485      10.95454948        8       0.00181453       0.00288617       0.00163231
In       5.23814184       4.72473335       2.10687874        9       0.00181453      -0.00288617      -0.00163231
In       2.64657020       1.27587878       8.63759285       10      -0.00181453       0.00288617      -0.00163231
In       0.01833285       1.72442728       4.42383537       11      -0.00181453      -0.00288617       0.00163231
In       2.64657020       1.72442728       2.10687874       12      -0.00181453      -0.00288617      -0.00163231
In       0.01833285       1.27587878      10.95454948       13      -0.00181453       0.00288617       0.00163231
In       2.60990449       4.72473335       4.42383537       14       0.00181453      -0.00288617       0.00163231
In       5.23814184       4.27618485       8.63759285       15       0.00181453       0.00288617      -0.00163231
O        4.29024483       5.20754728      10.21480131       16      -0.00024060      -0.00227598       0.00294848
O        1.66200748       3.79337092       2.84662691       17      -0.00024060       0.00227598      -0.00294848
O        0.96622986       2.20724122       9.37734102       18       0.00024060      -0.00227598      -0.00294848
O        3.59446721       0.79306485       3.68408720       19       0.00024060       0.00227598       0.00294848
O        0.96622986       0.79306485       2.84662691       20       0.00024060       0.00227598      -0.00294848
O        3.59446721       2.20724122      10.21480131       21       0.00024060      -0.00227598       0.00294848
O        4.29024483       3.79337092       3.68408720       22      -0.00024060       0.00227598       0.00294848
O        1.66200748       5.20754728       9.37734102       23      -0.00024060      -0.00227598      -0.00294848
O        3.57772583       3.03175070       8.10794655       24      -0.00094962       0.00385432       0.00250676
O        0.94948849       5.96916750       4.95348166       25      -0.00094962      -0.00385432      -0.00250676
O        1.67874885       0.03144463      11.48419577       26       0.00094962       0.00385432      -0.00250676
O        4.30698620       2.96886144       1.57723245       27       0.00094962      -0.00385432       0.00250676
O        1.67874885       2.96886144       4.95348166       28       0.00094962      -0.00385432      -0.00250676
O        4.30698620       0.03144463       8.10794655       29       0.00094962       0.00385432       0.00250676
O        3.57772583       5.96916750       1.57723245       30      -0.00094962      -0.00385432       0.00250676
O        0.94948849       3.03175070      11.48419577       31      -0.00094962       0.00385432      -0.00250676
O        3.64048590       3.68151350      12.65017007       32       0.00123376      -0.00653620       0.00078648
O        1.01224856       5.31940470       0.41125814       33       0.00123376       0.00653620      -0.00078648
O        1.61598879       0.68120743       6.94197225       34      -0.00123376      -0.00653620      -0.00078648
O        4.24422613       2.31909863       6.11945597       35      -0.00123376       0.00653620       0.00078648
O        1.61598879       2.31909863       0.41125814       36      -0.00123376       0.00653620      -0.00078648
O        4.24422613       0.68120743      12.65017007       37      -0.00123376      -0.00653620       0.00078648
O        3.64048590       5.31940470       6.11945597       38       0.00123376       0.00653620       0.00078648
O        1.01224856       3.68151350       6.94197225       39       0.00123376      -0.00653620      -0.00078648
