40
Lattice="5.234989449737572 -4.4809837820475347e-42 0.0 5.421217615157091e-42 6.027466171346431 0.0 0.0 0.0 13.056603294980588" Properties=species:S:1:pos:R:3:spacegroup_kinds:I:1:forces:R:3 spacegroup="P 1" unit_cell=conventional occupancy="_JSON {\"0\": {\"In\": 1}, \"1\": {\"In\": 1}, \"2\": {\"In\": 1}, \"3\": {\"In\": 1}, \"4\": {\"In\": 1}, \"5\": {\"In\": 1}, \"6\": {\"In\": 1}, \"7\": {\"In\": 1}, \"8\": {\"In\": 1}, \"9\": {\"In\": 1}, \"10\": {\"In\": 1}, \"11\": {\"In\": 1}, \"12\": {\"In\": 1}, \"13\": {\"In\": 1}, \"14\": {\"In\": 1}, \"15\": {\"In\": 1}, \"16\": {\"O\": 1}, \"17\": {\"O\": 1}, \"18\": {\"O\": 1}, \"19\": {\"O\": 1}, \"20\": {\"O\": 1}, \"21\": {\"O\": 1}, \"22\": {\"O\": 1}, \"23\": {\"O\": 1}, \"24\": {\"O\": 1}, \"25\": {\"O\": 1}, \"26\": {\"O\": 1}, \"27\": {\"O\": 1}, \"28\": {\"O\": 1}, \"29\": {\"O\": 1}, \"30\": {\"O\": 1}, \"31\": {\"O\": 1}, \"32\": {\"O\": 1}, \"33\": {\"O\": 1}, \"34\": {\"O\": 1}, \"35\": {\"O\": 1}, \"36\": {\"O\": 1}, \"37\": {\"O\": 1}, \"38\": {\"O\": 1}, \"39\": {\"O\": 1}}" n_minim_iter=12 energy=-45167.840530936184 stress="0.30230308927900557 2.8400255007674464e-13 1.510601749964131e-12 2.8400255007674464e-13 0.30216813547054194 -7.831663703194419e-13 1.510601749964131e-12 -7.831663703194419e-13 0.3023158952448425" free_energy=-45167.840530936184 pbc="T T T"
In       2.54314926       4.72074143       7.66815252        0      -0.00208012      -0.00321251       0.00433716
In      -0.07434547       4.32045782       5.38845077        1      -0.00208012       0.00321251      -0.00433716
In       2.69184019       1.70700835      11.91675242        2       0.00208012      -0.00321251      -0.00433716
In       5.30933492       1.30672474       1.13985088        3       0.00208012       0.00321251       0.00433716
In       2.69184019       1.30672474       5.38845077        4       0.00208012       0.00321251      -0.00433716
In       5.30933492       1.70700835       7.66815252        5       0.00208012      -0.00321251       0.00433716
In       2.54314926       4.32045782       1.13985088        6      -0.00208012       0.00321251       0.00433716
In      -0.07434547       4.72074143      11.91675242        7      -0.00208012      -0.00321251      -0.00433716
In       2.61097240       4.27626066      10.94412455        8      -0.00314958       0.00244977       0.00343591
In       5.22846712       4.76493860       2.11247875        9      -0.00314958      -0.00244977      -0.00343591
In       2.62401705       1.26252757       8.64078039       10       0.00314958       0.00244977      -0.00343591
In       0.00652233       1.75120551       4.41582290       11       0.00314958      -0.00244977       0.00343591
In       2.62401705       1.75120551       2.11247875       12       0.00314958      -0.00244977      -0.00343591
In       0.00652233       1.26252757      10.94412455       13       0.00314958       0.00244977       0.00343591
In       2.61097240       4.76493860       4.41582290       14      -0.00314958      -0.00244977       0.00343591
In       5.22846712       4.27626066       8.64078039       15      -0.00314958       0.00244977      -0.00343591
O        4.29640691       5.22653314      10.20067158       16       0.00282839       0.00211536      -0.00205315
O        1.67891219       3.81466612       2.85593171       17       0.00282839      -0.00211536       0.00205315
O        0.93858254       2.21280005       9.38423336       18      -0.00282839       0.00211536       0.00205315
O        3.55607726       0.80093304       3.67236994       19      -0.00282839      -0.00211536      -0.00205315
O        0.93858254       0.80093304       2.85593171       20      -0.00282839      -0.00211536       0.00205315
O        3.55607726       2.21280005      10.20067158       21      -0.00282839       0.00211536      -0.00205315
O        4.29640691       3.81466612       3.67236994       22       0.00282839      -0.00211536      -0.00205315
O        1.67891219       5.22653314       9.38423336       23       0.00282839       0.00211536       0.00205315
O        3.52945174       3.02798196       8.10683520       24       0.00099419      -0.00470963       0.00051868
O        0.91195701       6.01321730       4.94976809       25       0.00099419       0.00470963      -0.00051868
O        1.70553771       0.01424887      11.47806974       26      -0.00099419      -0.00470963      -0.00051868
O        4.32303244       2.99948421       1.57853356       27      -0.00099419       0.00470963       0.00051868
O        1.70553771       2.99948421       4.94976809       28      -0.00099419       0.00470963      -0.00051868
O        4.32303244       0.01424887       8.10683520       29      -0.00099419      -0.00470963       0.00051868
O        3.52945174       6.01321730       1.57853356       30       0.00099419       0.00470963       0.00051868
O        0.91195701       3.02798196      11.47806974       31       0.00099419      -0.00470963      -0.00051868
O        3.60735381       3.68804678      12.65133084       32       0.00232661       0.00095134       0.00221991
O        0.98985908       5.35315248       0.40527246       33       0.00232661      -0.00095134      -0.00221991
O        1.62763564       0.67431369       6.93357411       34      -0.00232661       0.00095134      -0.00221991
O        4.24513037       2.33941939       6.12302919       35      -0.00232661      -0.00095134       0.00221991
O        1.62763564       2.33941939       0.40527246       36      -0.00232661      -0.00095134      -0.00221991
O        4.24513037       0.67431369      12.65133084       37      -0.00232661       0.00095134       0.00221991
O        3.60735381       5.35315248       6.12302919       38       0.00232661      -0.00095134       0.00221991
O        0.98985908       3.68804678       6.93357411       39       0.00232661       0.00095134      -0.00221991
