40
Lattice="5.589335155303664 -1.014896954292144e-45 0.0 1.0580118961367086e-45 5.82678178390132 0.0 0.0 0.0 16.32263212872912" Properties=species:S:1:pos:R:3:spacegroup_kinds:I:1:forces:R:3 spacegroup="P 1" unit_cell=conventional occupancy="_JSON {\"0\": {\"In\": 1}, \"1\": {\"In\": 1}, \"2\": {\"In\": 1}, \"3\": {\"In\": 1}, \"4\": {\"In\": 1}, \"5\": {\"In\": 1}, \"6\": {\"In\": 1}, \"7\": {\"In\": 1}, \"8\": {\"In\": 1}, \"9\": {\"In\": 1}, \"10\": {\"In\": 1}, \"11\": {\"In\": 1}, \"12\": {\"In\": 1}, \"13\": {\"In\": 1}, \"14\": {\"In\": 1}, \"15\": {\"In\": 1}, \"16\": {\"O\": 1}, \"17\": {\"O\": 1}, \"18\": {\"O\": 1}, \"19\": {\"O\": 1}, \"20\": {\"O\": 1}, \"21\": {\"O\": 1}, \"22\": {\"O\": 1}, \"23\": {\"O\": 1}, \"24\": {\"O\": 1}, \"25\": {\"O\": 1}, \"26\": {\"O\": 1}, \"27\": {\"O\": 1}, \"28\": {\"O\": 1}, \"29\": {\"O\": 1}, \"30\": {\"O\": 1}, \"31\": {\"O\": 1}, \"32\": {\"O\": 1}, \"33\": {\"O\": 1}, \"34\": {\"O\": 1}, \"35\": {\"O\": 1}, \"36\": {\"O\": 1}, \"37\": {\"O\": 1}, \"38\": {\"O\": 1}, \"39\": {\"O\": 1}}" n_minim_iter=1 energy=-45150.336003095355 stress="1.3625132574622847e-05 1.0970221134397152e-13 3.4791458018873813e-13 1.0970221134397152e-13 7.921934728539464e-05 -4.423555087294311e-14 3.4791458018873813e-13 -4.423555087294311e-14 -1.0197313285821226e-05" free_energy=-45150.336003095355 pbc="T T T"
In       2.76227564       4.70518620       9.32020455        0      -0.00059497       0.00542199      -0.00419282
In      -0.03239194       4.03498648       7.00242758        1      -0.00059497      -0.00542199       0.00419282
In       2.82705952       1.79179531      15.16374365        2       0.00059497       0.00542199       0.00419282
In       5.62172709       1.12159558       1.15888848        3       0.00059497      -0.00542199      -0.00419282
In       2.82705952       1.12159558       7.00242758        4       0.00059497      -0.00542199       0.00419282
In       5.62172709       1.79179531       9.32020455        5       0.00059497       0.00542199      -0.00419282
In       2.76227564       4.03498648       1.15888848        6      -0.00059497      -0.00542199      -0.00419282
In      -0.03239194       4.70518620      15.16374365        7      -0.00059497       0.00542199       0.00419282
In       2.74976414       4.41754794      13.36698861        8       0.00135027       0.00162405       0.00580625
In       5.54443171       4.32262474       2.95564352        9       0.00135027      -0.00162405      -0.00580625
In       2.83957102       1.50415704      11.11695958       10      -0.00135027       0.00162405      -0.00580625
In       0.04490344       1.40923385       5.20567255       11      -0.00135027      -0.00162405       0.00580625
In       2.83957102       1.40923385       2.95564352       12      -0.00135027      -0.00162405      -0.00580625
In       0.04490344       1.50415704      13.36698861       13      -0.00135027       0.00162405       0.00580625
In       2.74976414       4.32262474       5.20567255       14       0.00135027      -0.00162405       0.00580625
In       5.54443171       4.41754794      11.11695958       15       0.00135027       0.00162405      -0.00580625
O        4.78601323       5.18230445      13.02874209       16      -0.00659942       0.00065953      -0.00014848
O        1.99134566       3.55786822       3.29389004       17      -0.00659942      -0.00065953       0.00014848
O        0.80332192       2.26891356      11.45520610       18       0.00659942       0.00065953       0.00014848
O        3.59798950       0.64447733       4.86742603       19       0.00659942      -0.00065953      -0.00014848
O        0.80332192       0.64447733       3.29389004       20       0.00659942      -0.00065953       0.00014848
O        3.59798950       2.26891356      13.02874209       21       0.00659942       0.00065953      -0.00014848
O        4.78601323       3.55786822       4.86742603       22      -0.00659942      -0.00065953      -0.00014848
O        1.99134566       5.18230445      11.45520610       23      -0.00659942       0.00065953       0.00014848
O        3.94403783       3.13154505      10.15083936       24      -0.00239608      -0.00319567       0.00252044
O        1.14937025       5.60862762       6.17179277       25      -0.00239608       0.00319567      -0.00252044
O        1.64529732       0.21815416      14.33310883       26       0.00239608      -0.00319567      -0.00252044
O        4.43996490       2.69523673       1.98952330       27       0.00239608       0.00319567       0.00252044
O        1.64529732       2.69523673       6.17179277       28       0.00239608       0.00319567      -0.00252044
O        4.43996490       0.21815416      10.15083936       29       0.00239608      -0.00319567       0.00252044
O        3.94403783       5.60862762       1.98952330       30      -0.00239608       0.00319567       0.00252044
O        1.14937025       3.13154505      14.33310883       31      -0.00239608      -0.00319567      -0.00252044
O        3.59231970       3.89573566      15.48029424       32       0.00284868      -0.00322388      -0.00083899
O        0.79765212       4.84443701       0.84233789       33       0.00284868       0.00322388       0.00083899
O        1.99701546       0.98234477       9.00365395       34      -0.00284868      -0.00322388       0.00083899
O        4.79168304       1.93104612       7.31897817       35      -0.00284868       0.00322388      -0.00083899
O        1.99701546       1.93104612       0.84233789       36      -0.00284868       0.00322388       0.00083899
O        4.79168304       0.98234477      15.48029424       37      -0.00284868      -0.00322388      -0.00083899
O        3.59231970       4.84443701       7.31897817       38       0.00284868       0.00322388      -0.00083899
O        0.79765212       3.89573566       9.00365395       39       0.00284868      -0.00322388       0.00083899
