40
Lattice="5.658080744060056 -3.45267349776304e-42 0.0 4.5393120216021994e-42 6.365274762310581 0.0 0.0 0.0 17.712262869448775" Properties=species:S:1:pos:R:3:spacegroup_kinds:I:1:forces:R:3 spacegroup="P 1" unit_cell=conventional occupancy="_JSON {\"0\": {\"In\": 1}, \"1\": {\"In\": 1}, \"2\": {\"In\": 1}, \"3\": {\"In\": 1}, \"4\": {\"In\": 1}, \"5\": {\"In\": 1}, \"6\": {\"In\": 1}, \"7\": {\"In\": 1}, \"8\": {\"In\": 1}, \"9\": {\"In\": 1}, \"10\": {\"In\": 1}, \"11\": {\"In\": 1}, \"12\": {\"In\": 1}, \"13\": {\"In\": 1}, \"14\": {\"In\": 1}, \"15\": {\"In\": 1}, \"16\": {\"O\": 1}, \"17\": {\"O\": 1}, \"18\": {\"O\": 1}, \"19\": {\"O\": 1}, \"20\": {\"O\": 1}, \"21\": {\"O\": 1}, \"22\": {\"O\": 1}, \"23\": {\"O\": 1}, \"24\": {\"O\": 1}, \"25\": {\"O\": 1}, \"26\": {\"O\": 1}, \"27\": {\"O\": 1}, \"28\": {\"O\": 1}, \"29\": {\"O\": 1}, \"30\": {\"O\": 1}, \"31\": {\"O\": 1}, \"32\": {\"O\": 1}, \"33\": {\"O\": 1}, \"34\": {\"O\": 1}, \"35\": {\"O\": 1}, \"36\": {\"O\": 1}, \"37\": {\"O\": 1}, \"38\": {\"O\": 1}, \"39\": {\"O\": 1}}" n_minim_iter=13 energy=-45148.13827212432 stress="0.04639505622568326 1.1828650670498725e-13 3.185993932289707e-13 1.1828650670498725e-13 0.04656803405800642 3.604830240675818e-13 3.185993932289707e-13 3.604830240675818e-13 0.046343580003905475" free_energy=-45148.13827212432 pbc="T T T"
In       2.74451414       5.27391162      10.41177789        0       0.00195287       0.00341560       0.00050638
In      -0.08452623       4.27400052       7.30048498        1       0.00195287      -0.00341560      -0.00050638
In       2.91356660       2.09127424      16.15661642        2      -0.00195287       0.00341560      -0.00050638
In       5.74260697       1.09136314       1.55564645        3      -0.00195287      -0.00341560       0.00050638
In       2.91356660       1.09136314       7.30048498        4      -0.00195287      -0.00341560      -0.00050638
In       5.74260697       2.09127424      10.41177789        5      -0.00195287       0.00341560       0.00050638
In       2.74451414       4.27400052       1.55564645        6       0.00195287      -0.00341560       0.00050638
In      -0.08452623       5.27391162      16.15661642        7       0.00195287       0.00341560      -0.00050638
In       2.72558278       4.82713500      14.41989209        8       0.00104901       0.00387753       0.00438071
In       5.55462316       4.72077714       3.29237078        9       0.00104901      -0.00387753      -0.00438071
In       2.93249796       1.64449762      12.14850221       10      -0.00104901       0.00387753      -0.00438071
In       0.10345759       1.53813976       5.56376066       11      -0.00104901      -0.00387753       0.00438071
In       2.93249796       1.53813976       3.29237078       12      -0.00104901      -0.00387753      -0.00438071
In       0.10345759       1.64449762      14.41989209       13      -0.00104901       0.00387753       0.00438071
In       2.72558278       4.72077714       5.56376066       14       0.00104901      -0.00387753       0.00438071
In       5.55462316       4.82713500      12.14850221       15       0.00104901       0.00387753      -0.00438071
O        4.76652477       5.62753030      14.06705096       16      -0.00108547       0.00331545       0.00179901
O        1.93748440       3.92038185       3.64521191       17      -0.00108547      -0.00331545      -0.00179901
O        0.89155597       2.44489291      12.50134334       18       0.00108547       0.00331545      -0.00179901
O        3.72059634       0.73774447       5.21091953       19       0.00108547      -0.00331545       0.00179901
O        0.89155597       0.73774447       3.64521191       20       0.00108547      -0.00331545      -0.00179901
O        3.72059634       2.44489291      14.06705096       21       0.00108547       0.00331545       0.00179901
O        4.76652477       3.92038185       5.21091953       22      -0.00108547      -0.00331545       0.00179901
O        1.93748440       5.62753030      12.50134334       23      -0.00108547       0.00331545      -0.00179901
O        3.93255479       3.54642477      11.32122782       24      -0.00399556       0.00678837       0.00204971
O        1.10351442       6.00148737       6.39103505       25      -0.00399556      -0.00678837      -0.00204971
O        1.72552596       0.36378739      15.24716649       26       0.00399556       0.00678837      -0.00204971
O        4.55456633       2.81884999       2.46509638       27       0.00399556      -0.00678837       0.00204971
O        1.72552596       2.81884999       6.39103505       28       0.00399556      -0.00678837      -0.00204971
O        4.55456633       0.36378739      11.32122782       29       0.00399556       0.00678837       0.00204971
O        3.93255479       6.00148737       2.46509638       30      -0.00399556      -0.00678837       0.00204971
O        1.10351442       3.54642477      15.24716649       31      -0.00399556       0.00678837      -0.00204971
O        3.61228321       4.25541341      16.52338616       32       0.00255230       0.00212451       0.00000260
O        0.78324284       5.29249874       1.18887671       33       0.00255230      -0.00212451      -0.00000260
O        2.04579754       1.07277603      10.04500815       34      -0.00255230       0.00212451      -0.00000260
O        4.87483791       2.10986135       7.66725472       35      -0.00255230      -0.00212451       0.00000260
O        2.04579754       2.10986135       1.18887671       36      -0.00255230      -0.00212451      -0.00000260
O        4.87483791       1.07277603      16.52338616       37      -0.00255230       0.00212451       0.00000260
O        3.61228321       5.29249874       7.66725472       38       0.00255230      -0.00212451       0.00000260
O        0.78324284       4.25541341      10.04500815       39       0.00255230       0.00212451      -0.00000260
