40
Lattice="5.548586292501934 -6.131952343754595e-44 0.0 3.6002234545364156e-43 5.997978431294916 0.0 0.0 0.0 16.372527171858" Properties=species:S:1:pos:R:3:spacegroup_kinds:I:1:forces:R:3 spacegroup="P 1" unit_cell=conventional occupancy="_JSON {\"0\": {\"In\": 1}, \"1\": {\"In\": 1}, \"2\": {\"In\": 1}, \"3\": {\"In\": 1}, \"4\": {\"In\": 1}, \"5\": {\"In\": 1}, \"6\": {\"In\": 1}, \"7\": {\"In\": 1}, \"8\": {\"In\": 1}, \"9\": {\"In\": 1}, \"10\": {\"In\": 1}, \"11\": {\"In\": 1}, \"12\": {\"In\": 1}, \"13\": {\"In\": 1}, \"14\": {\"In\": 1}, \"15\": {\"In\": 1}, \"16\": {\"O\": 1}, \"17\": {\"O\": 1}, \"18\": {\"O\": 1}, \"19\": {\"O\": 1}, \"20\": {\"O\": 1}, \"21\": {\"O\": 1}, \"22\": {\"O\": 1}, \"23\": {\"O\": 1}, \"24\": {\"O\": 1}, \"25\": {\"O\": 1}, \"26\": {\"O\": 1}, \"27\": {\"O\": 1}, \"28\": {\"O\": 1}, \"29\": {\"O\": 1}, \"30\": {\"O\": 1}, \"31\": {\"O\": 1}, \"32\": {\"O\": 1}, \"33\": {\"O\": 1}, \"34\": {\"O\": 1}, \"35\": {\"O\": 1}, \"36\": {\"O\": 1}, \"37\": {\"O\": 1}, \"38\": {\"O\": 1}, \"39\": {\"O\": 1}}" n_minim_iter=20 energy=-45150.297820225336 stress="0.004778492702081985 -3.024124682565839e-13 -3.878625322009819e-14 -3.024124682565839e-13 0.0047735450505635366 -6.864337182464034e-13 -3.878625322009819e-14 -6.864337182464034e-13 0.004802694471324778" free_energy=-45150.297820225336 pbc="T T T"
In       2.74465766       4.85491177       9.34777117        0      -0.00051705       0.00353959       0.00059583
In      -0.02963548       4.14205587       7.02475601        1      -0.00051705      -0.00353959      -0.00059583
In       2.80392863       1.85592256      15.21101959        2       0.00051705       0.00353959      -0.00059583
In       5.57822178       1.14306666       1.16150758        3       0.00051705      -0.00353959       0.00059583
In       2.80392863       1.14306666       7.02475601        4       0.00051705      -0.00353959      -0.00059583
In       5.57822178       1.85592256       9.34777117        5       0.00051705       0.00353959       0.00059583
In       2.74465766       4.14205587       1.16150758        6      -0.00051705      -0.00353959       0.00059583
In      -0.02963548       4.85491177      15.21101959        7      -0.00051705       0.00353959      -0.00059583
In       2.71379963       4.50482165      13.41224655        8       0.00077077      -0.00823344       0.00089402
In       5.48809278       4.49214600       2.96028062        9       0.00077077       0.00823344      -0.00089402
In       2.83478666       1.50583244      11.14654420       10      -0.00077077      -0.00823344      -0.00089402
In       0.06049351       1.49315678       5.22598297       11      -0.00077077       0.00823344       0.00089402
In       2.83478666       1.49315678       2.96028062       12      -0.00077077       0.00823344      -0.00089402
In       0.06049351       1.50583244      13.41224655       13      -0.00077077      -0.00823344       0.00089402
In       2.71379963       4.49214600       5.22598297       14       0.00077077       0.00823344       0.00089402
In       5.48809278       4.50482165      11.14654420       15       0.00077077      -0.00823344      -0.00089402
O        4.72749318       5.31063863      13.07066004       16       0.00577048      -0.00400171       0.00171275
O        1.95320003       3.68632902       3.30186713       17       0.00577048       0.00400171      -0.00171275
O        0.82109312       2.31164941      11.48813071       18      -0.00577048      -0.00400171      -0.00171275
O        3.59538626       0.68733980       4.88439646       19      -0.00577048       0.00400171       0.00171275
O        0.82109312       0.68733980       3.30186713       20      -0.00577048       0.00400171      -0.00171275
O        3.59538626       2.31164941      13.07066004       21      -0.00577048      -0.00400171       0.00171275
O        4.72749318       3.68632902       4.88439646       22       0.00577048       0.00400171       0.00171275
O        1.95320003       5.31063863      11.48813071       23       0.00577048      -0.00400171      -0.00171275
O        3.87406347       3.20739357      10.17893678       24      -0.00032032       0.00380104       0.00436397
O        1.09977033       5.78957407       6.19359040       25      -0.00032032      -0.00380104      -0.00436397
O        1.67452282       0.20840436      14.37985398       26       0.00032032       0.00380104      -0.00436397
O        4.44881597       2.79058486       1.99267319       27       0.00032032      -0.00380104       0.00436397
O        1.67452282       2.79058486       6.19359040       28       0.00032032      -0.00380104      -0.00436397
O        4.44881597       0.20840436      10.17893678       29       0.00032032       0.00380104       0.00436397
O        3.87406347       5.78957407       1.99267319       30      -0.00032032      -0.00380104       0.00436397
O        1.09977033       3.20739357      14.37985398       31      -0.00032032       0.00380104      -0.00436397
O        3.58006973       3.96466334      15.52764983       32      -0.00023865       0.00724086       0.00465480
O        0.80577659       5.03230431       0.84487734       33      -0.00023865      -0.00724086      -0.00465480
O        1.96851656       0.96567412       9.03114093       34       0.00023865       0.00724086      -0.00465480
O        4.74280971       2.03331509       7.34138625       35       0.00023865      -0.00724086       0.00465480
O        1.96851656       2.03331509       0.84487734       36       0.00023865      -0.00724086      -0.00465480
O        4.74280971       0.96567412      15.52764983       37       0.00023865       0.00724086       0.00465480
O        3.58006973       5.03230431       7.34138625       38      -0.00023865      -0.00724086       0.00465480
O        0.80577659       3.96466334       9.03114093       39      -0.00023865       0.00724086      -0.00465480
