40
Lattice="5.697103223688646 -3.47648579159997e-42 0.0 3.9110059173393316e-42 6.409174596190365 0.0 0.0 0.0 17.834420266676606" Properties=species:S:1:pos:R:3:spacegroup_kinds:I:1:forces:R:3 spacegroup="P 1" unit_cell=conventional occupancy="_JSON {\"0\": {\"In\": 1}, \"1\": {\"In\": 1}, \"2\": {\"In\": 1}, \"3\": {\"In\": 1}, \"4\": {\"In\": 1}, \"5\": {\"In\": 1}, \"6\": {\"In\": 1}, \"7\": {\"In\": 1}, \"8\": {\"In\": 1}, \"9\": {\"In\": 1}, \"10\": {\"In\": 1}, \"11\": {\"In\": 1}, \"12\": {\"In\": 1}, \"13\": {\"In\": 1}, \"14\": {\"In\": 1}, \"15\": {\"In\": 1}, \"16\": {\"O\": 1}, \"17\": {\"O\": 1}, \"18\": {\"O\": 1}, \"19\": {\"O\": 1}, \"20\": {\"O\": 1}, \"21\": {\"O\": 1}, \"22\": {\"O\": 1}, \"23\": {\"O\": 1}, \"24\": {\"O\": 1}, \"25\": {\"O\": 1}, \"26\": {\"O\": 1}, \"27\": {\"O\": 1}, \"28\": {\"O\": 1}, \"29\": {\"O\": 1}, \"30\": {\"O\": 1}, \"31\": {\"O\": 1}, \"32\": {\"O\": 1}, \"33\": {\"O\": 1}, \"34\": {\"O\": 1}, \"35\": {\"O\": 1}, \"36\": {\"O\": 1}, \"37\": {\"O\": 1}, \"38\": {\"O\": 1}, \"39\": {\"O\": 1}}" n_minim_iter=1 energy=-45147.402839823626 stress="0.060891292492467976 -1.2119855652211117e-13 3.5536141689305785e-13 -1.2119855652211117e-13 0.06187513526898478 -3.563055394807723e-13 3.5536141689305785e-13 -3.563055394807723e-13 0.0689390355310991" free_energy=-45147.402839823626 pbc="T T T"
In       2.76344242       5.31028458      10.48358552        0      -0.12042471       0.06129966       0.07789385
In      -0.08510919       4.30347732       7.35083475        1      -0.12042471      -0.06129966      -0.07789385
In       2.93366080       2.10569728      16.26804488        2       0.12042471       0.06129966      -0.07789385
In       5.78221241       1.09889002       1.56637539        3       0.12042471      -0.06129966       0.07789385
In       2.93366080       1.09889002       7.35083475        4       0.12042471      -0.06129966      -0.07789385
In       5.78221241       2.10569728      10.48358552        5       0.12042471       0.06129966       0.07789385
In       2.76344242       4.30347732       1.56637539        6      -0.12042471      -0.06129966       0.07789385
In      -0.08510919       5.31028458      16.26804488        7      -0.12042471       0.06129966      -0.07789385
In       2.74438050       4.86042664      14.51934277        8      -0.11309594      -0.01032843       0.09302588
In       5.59293211       4.75333526       3.31507750        9      -0.11309594       0.01032843      -0.09302588
In       2.95272272       1.65583934      12.23228763       10       0.11309594      -0.01032843      -0.09302588
In       0.10417111       1.54874796       5.60213264       11       0.11309594       0.01032843       0.09302588
In       2.95272272       1.54874796       3.31507750       12       0.11309594       0.01032843      -0.09302588
In       0.10417111       1.65583934      14.51934277       13       0.11309594      -0.01032843       0.09302588
In       2.74438050       4.75333526       5.60213264       14      -0.11309594       0.01032843       0.09302588
In       5.59293211       4.86042664      12.23228763       15      -0.11309594      -0.01032843      -0.09302588
O        4.79939840       5.66634208      14.16406817       16       0.10382567      -0.04599008       0.11172466
O        1.95084678       3.94741982       3.67035210       17       0.10382567       0.04599008      -0.11172466
O        0.89770483       2.46175478      12.58756223       18      -0.10382567      -0.04599008      -0.11172466
O        3.74625644       0.74283252       5.24685804       19      -0.10382567       0.04599008       0.11172466
O        0.89770483       0.74283252       3.67035210       20      -0.10382567       0.04599008      -0.11172466
O        3.74625644       2.46175478      14.16406817       21      -0.10382567      -0.04599008       0.11172466
O        4.79939840       3.94741982       5.24685804       22       0.10382567       0.04599008       0.11172466
O        1.95084678       5.66634208      12.58756223       23       0.10382567      -0.04599008      -0.11172466
O        3.95967671       3.57088365      11.39930772       24       0.00928018       0.04077198       0.01394340
O        1.11112510       6.04287825       6.43511255       25       0.00928018      -0.04077198      -0.01394340
O        1.73742651       0.36629635      15.35232268       26      -0.00928018       0.04077198      -0.01394340
O        4.58597812       2.83829095       2.48209759       27      -0.00928018      -0.04077198       0.01394340
O        1.73742651       2.83829095       6.43511255       28      -0.00928018      -0.04077198      -0.01394340
O        4.58597812       0.36629635      11.39930772       29      -0.00928018       0.04077198       0.01394340
O        3.95967671       6.04287825       2.48209759       30       0.00928018      -0.04077198       0.01394340
O        1.11112510       3.57088365      15.35232268       31       0.00928018       0.04077198      -0.01394340
O        3.63719629       4.28476201      16.63734414       32       0.10860489      -0.07366773      -0.15713502
O        0.78864468       5.32899988       1.19707612       33       0.10860489       0.07366773       0.15713502
O        2.05990693       1.08017472      10.11428626       34      -0.10860489      -0.07366773       0.15713502
O        4.90845854       2.12441258       7.72013401       35      -0.10860489       0.07366773      -0.15713502
O        2.05990693       2.12441258       1.19707612       36      -0.10860489       0.07366773       0.15713502
O        4.90845854       1.08017472      16.63734414       37      -0.10860489      -0.07366773      -0.15713502
O        3.63719629       5.32899988       7.72013401       38       0.10860489       0.07366773      -0.15713502
O        0.78864468       4.28476201      10.11428626       39       0.10860489      -0.07366773       0.15713502
40
Lattice="5.715986727792201 -3.484285596566419e-42 0.0 3.923904431594698e-42 6.423468120976507 0.0 0.0 0.0 17.73594783235447" Properties=species:S:1:pos:R:3:spacegroup_kinds:I:1:forces:R:3 spacegroup="P 1" unit_cell=conventional occupancy="_JSON {\"0\": {\"In\": 1}, \"1\": {\"In\": 1}, \"2\": {\"In\": 1}, \"3\": {\"In\": 1}, \"4\": {\"In\": 1}, \"5\": {\"In\": 1}, \"6\": {\"In\": 1}, \"7\": {\"In\": 1}, \"8\": {\"In\": 1}, \"9\": {\"In\": 1}, \"10\": {\"In\": 1}, \"11\": {\"In\": 1}, \"12\": {\"In\": 1}, \"13\": {\"In\": 1}, \"14\": {\"In\": 1}, \"15\": {\"In\": 1}, \"16\": {\"O\": 1}, \"17\": {\"O\": 1}, \"18\": {\"O\": 1}, \"19\": {\"O\": 1}, \"20\": {\"O\": 1}, \"21\": {\"O\": 1}, \"22\": {\"O\": 1}, \"23\": {\"O\": 1}, \"24\": {\"O\": 1}, \"25\": {\"O\": 1}, \"26\": {\"O\": 1}, \"27\": {\"O\": 1}, \"28\": {\"O\": 1}, \"29\": {\"O\": 1}, \"30\": {\"O\": 1}, \"31\": {\"O\": 1}, \"32\": {\"O\": 1}, \"33\": {\"O\": 1}, \"34\": {\"O\": 1}, \"35\": {\"O\": 1}, \"36\": {\"O\": 1}, \"37\": {\"O\": 1}, \"38\": {\"O\": 1}, \"39\": {\"O\": 1}}" n_minim_iter=2 energy=-45147.41650067103 stress="0.06139943297781819 7.218520661173184e-13 -2.623454587840452e-13 7.218520661173184e-13 0.062071146428673424 2.1936646342756568e-13 -2.623454587840452e-13 2.1936646342756568e-13 0.060778156112445664" free_energy=-45147.41650067103 pbc="T T T"
In       2.77239813       5.32223109      10.42583134        0      -0.13470547       0.04707487       0.09332058
In      -0.08559523       4.31297109       7.31011649        1      -0.13470547      -0.04707487      -0.09332058
In       2.94358859       2.11049703      16.17809041        2       0.13470547       0.04707487      -0.09332058
In       5.80158196       1.10123703       1.55785742        3       0.13470547      -0.04707487       0.09332058
In       2.94358859       1.10123703       7.31011649        4       0.13470547      -0.04707487      -0.09332058
In       5.80158196       2.11049703      10.42583134        5       0.13470547       0.04707487       0.09332058
In       2.77239813       4.31297109       1.55785742        6      -0.13470547      -0.04707487       0.09332058
In      -0.08559523       5.32223109      16.17809041        7      -0.13470547       0.04707487      -0.09332058
In       2.75328544       4.87124873      14.43933063        8      -0.12321986       0.00346128       0.11835014
In       5.61127880       4.76395346       3.29661720        9      -0.12321986      -0.00346128      -0.11835014
In       2.96270129       1.65951467      12.16459112       10       0.12321986       0.00346128      -0.11835014
In       0.10470793       1.55221940       5.57135671       11       0.12321986      -0.00346128       0.11835014
In       2.96270129       1.55221940       3.29661720       12       0.12321986      -0.00346128      -0.11835014
In       0.10470793       1.65951467      14.43933063       13       0.12321986       0.00346128       0.11835014
In       2.75328544       4.76395346       5.57135671       14      -0.12321986      -0.00346128       0.11835014
In       5.61127880       4.87124873      12.16459112       15      -0.12321986       0.00346128      -0.11835014
O        4.81548222       5.67890116      14.08604906       16       0.08949497      -0.07206458       0.10275838
O        1.95748885       3.95630102       3.64989877       17       0.08949497       0.07206458      -0.10275838
O        0.90050451       2.46716710      12.51787269       18      -0.08949497      -0.07206458      -0.10275838
O        3.75849787       0.74456696       5.21807514       19      -0.08949497       0.07206458       0.10275838
O        0.90050451       0.74456696       3.64989877       20      -0.08949497       0.07206458      -0.10275838
O        3.75849787       2.46716710      14.08604906       21      -0.08949497      -0.07206458       0.10275838
O        4.81548222       3.95630102       5.21807514       22       0.08949497       0.07206458       0.10275838
O        1.95748885       5.67890116      12.51787269       23       0.08949497      -0.07206458      -0.10275838
O        3.97281709       3.57891629      11.33639005       24       0.01377377       0.08346797      -0.00168095
O        1.11482373       6.05628590       6.39955778       25       0.01377377      -0.08346797       0.00168095
O        1.74316963       0.36718223      15.26753170       26      -0.01377377       0.08346797       0.00168095
O        4.60116300       2.84455184       2.46841613       27      -0.01377377      -0.08346797      -0.00168095
O        1.74316963       2.84455184       6.39955778       28      -0.01377377      -0.08346797       0.00168095
O        4.60116300       0.36718223      11.33639005       29      -0.01377377       0.08346797      -0.00168095
O        3.97281709       6.05628590       2.46841613       30       0.01377377      -0.08346797      -0.00168095
O        1.11482373       3.57891629      15.26753170       31       0.01377377       0.08346797       0.00168095
O        3.64943599       4.29419312      16.54521758       32       0.14496626      -0.06816404      -0.10607152
O        0.79144263       5.34100906       1.19073025       33       0.14496626       0.06816404       0.10607152
O        2.06655073       1.08245906      10.05870417       34      -0.14496626      -0.06816404       0.10607152
O        4.92454410       2.12927500       7.67724366       35      -0.14496626       0.06816404      -0.10607152
O        2.06655073       2.12927500       1.19073025       36      -0.14496626       0.06816404       0.10607152
O        4.92454410       1.08245906      16.54521758       37      -0.14496626      -0.06816404      -0.10607152
O        3.64943599       5.34100906       7.67724366       38       0.14496626       0.06816404      -0.10607152
O        0.79144263       4.29419312      10.05870417       39       0.14496626      -0.06816404       0.10607152
40
Lattice="5.735277012231492 -3.443605075776383e-42 0.0 3.7169748619537436e-42 6.400393882471387 0.0 0.0 0.0 17.74001926113709" Properties=species:S:1:pos:R:3:spacegroup_kinds:I:1:forces:R:3 spacegroup="P 1" unit_cell=conventional occupancy="_JSON {\"0\": {\"In\": 1}, \"1\": {\"In\": 1}, \"2\": {\"In\": 1}, \"3\": {\"In\": 1}, \"4\": {\"In\": 1}, \"5\": {\"In\": 1}, \"6\": {\"In\": 1}, \"7\": {\"In\": 1}, \"8\": {\"In\": 1}, \"9\": {\"In\": 1}, \"10\": {\"In\": 1}, \"11\": {\"In\": 1}, \"12\": {\"In\": 1}, \"13\": {\"In\": 1}, \"14\": {\"In\": 1}, \"15\": {\"In\": 1}, \"16\": {\"O\": 1}, \"17\": {\"O\": 1}, \"18\": {\"O\": 1}, \"19\": {\"O\": 1}, \"20\": {\"O\": 1}, \"21\": {\"O\": 1}, \"22\": {\"O\": 1}, \"23\": {\"O\": 1}, \"24\": {\"O\": 1}, \"25\": {\"O\": 1}, \"26\": {\"O\": 1}, \"27\": {\"O\": 1}, \"28\": {\"O\": 1}, \"29\": {\"O\": 1}, \"30\": {\"O\": 1}, \"31\": {\"O\": 1}, \"32\": {\"O\": 1}, \"33\": {\"O\": 1}, \"34\": {\"O\": 1}, \"35\": {\"O\": 1}, \"36\": {\"O\": 1}, \"37\": {\"O\": 1}, \"38\": {\"O\": 1}, \"39\": {\"O\": 1}}" n_minim_iter=3 energy=-45147.42693911714 stress="0.06188022863693386 5.568972785632156e-13 1.9572872563980569e-13 5.568972785632156e-13 0.058150244611396305 -4.784690608074455e-13 1.9572872563980569e-13 -4.784690608074455e-13 0.06007733637954091" free_energy=-45147.42693911714 pbc="T T T"
In       2.77971536       5.30385040      10.42960031        0      -0.14836574       0.00989080       0.08540959
In      -0.08792315       4.29674043       7.31041895        1      -0.14836574      -0.00989080      -0.08540959
In       2.95556166       2.10365346      16.18042858        2       0.14836574       0.00989080      -0.08540959
In       5.82320016       1.09654349       1.55959068        3       0.14836574      -0.00989080       0.08540959
In       2.95556166       1.09654349       7.31041895        4       0.14836574      -0.00989080      -0.08540959
In       5.82320016       2.10365346      10.42960031        5       0.14836574       0.00989080       0.08540959
In       2.77971536       4.29674043       1.55959068        6      -0.14836574      -0.00989080       0.08540959
In      -0.08792315       5.30385040      16.18042858        7      -0.14836574       0.00989080      -0.08540959
In       2.76070716       4.85378023      14.44438048        8      -0.08523832       0.02092553       0.08954739
In       5.62834566       4.74681059       3.29563878        9      -0.08523832      -0.02092553      -0.08954739
In       2.97456985       1.65358329      12.16564841       10       0.08523832       0.02092553      -0.08954739
In       0.10693135       1.54661365       5.57437085       11       0.08523832      -0.02092553       0.08954739
In       2.97456985       1.54661365       3.29563878       12       0.08523832      -0.02092553      -0.08954739
In       0.10693135       1.65358329      14.44438048       13       0.08523832       0.02092553       0.08954739
In       2.76070716       4.74681059       5.57437085       14      -0.08523832      -0.02092553       0.08954739
In       5.62834566       4.85378023      12.16564841       15      -0.08523832       0.02092553      -0.08954739
O        4.83312758       5.65745074      14.09083980       16       0.06742105      -0.04649038       0.07643051
O        1.96548907       3.94314009       3.64917946       17       0.06742105       0.04649038      -0.07643051
O        0.90214944       2.45725379      12.51918909       18      -0.06742105      -0.04649038      -0.07643051
O        3.76978794       0.74294315       5.22083017       19      -0.06742105       0.04649038       0.07643051
O        0.90214944       0.74294315       3.64917946       20      -0.06742105       0.04649038      -0.07643051
O        3.76978794       2.45725379      14.09083980       21      -0.06742105      -0.04649038       0.07643051
O        4.83312758       3.94314009       5.22083017       22       0.06742105       0.04649038       0.07643051
O        1.96548907       5.65745074      12.51918909       23       0.06742105      -0.04649038      -0.07643051
O        3.98642802       3.56725676      11.33899271       24       0.03899021       0.07293442      -0.02374264
O        1.11878951       6.03333406       6.40102655       25       0.03899021      -0.07293442       0.02374264
O        1.74884900       0.36705982      15.27103618       26      -0.03899021       0.07293442       0.02374264
O        4.61648750       2.83313712       2.46898308       27      -0.03899021      -0.07293442      -0.02374264
O        1.74884900       2.83313712       6.40102655       28      -0.03899021      -0.07293442       0.02374264
O        4.61648750       0.36705982      11.33899271       29      -0.03899021       0.07293442      -0.02374264
O        3.98642802       6.03333406       2.46898308       30       0.03899021      -0.07293442      -0.02374264
O        1.11878951       3.56725676      15.27103618       31       0.03899021       0.07293442       0.02374264
O        3.66391174       4.27772420      16.54733995       32       0.12902695      -0.05608146      -0.07755627
O        0.79627324       5.32286663       1.19267931       33       0.12902695       0.05608146       0.07755627
O        2.07136527       1.07752725      10.06268894       34      -0.12902695      -0.05608146       0.07755627
O        4.93900378       2.12266969       7.67733032       35      -0.12902695       0.05608146      -0.07755627
O        2.07136527       2.12266969       1.19267931       36      -0.12902695       0.05608146       0.07755627
O        4.93900378       1.07752725      16.54733995       37      -0.12902695      -0.05608146      -0.07755627
O        3.66391174       5.32286663       7.67733032       38       0.12902695       0.05608146      -0.07755627
O        0.79627324       4.27772420      10.06268894       39       0.12902695      -0.05608146       0.07755627
40
Lattice="5.721322959310766 -3.475771681868393e-42 0.0 3.7674887214563147e-42 6.415783251526817 0.0 0.0 0.0 17.740630084033764" Properties=species:S:1:pos:R:3:spacegroup_kinds:I:1:forces:R:3 spacegroup="P 1" unit_cell=conventional occupancy="_JSON {\"0\": {\"In\": 1}, \"1\": {\"In\": 1}, \"2\": {\"In\": 1}, \"3\": {\"In\": 1}, \"4\": {\"In\": 1}, \"5\": {\"In\": 1}, \"6\": {\"In\": 1}, \"7\": {\"In\": 1}, \"8\": {\"In\": 1}, \"9\": {\"In\": 1}, \"10\": {\"In\": 1}, \"11\": {\"In\": 1}, \"12\": {\"In\": 1}, \"13\": {\"In\": 1}, \"14\": {\"In\": 1}, \"15\": {\"In\": 1}, \"16\": {\"O\": 1}, \"17\": {\"O\": 1}, \"18\": {\"O\": 1}, \"19\": {\"O\": 1}, \"20\": {\"O\": 1}, \"21\": {\"O\": 1}, \"22\": {\"O\": 1}, \"23\": {\"O\": 1}, \"24\": {\"O\": 1}, \"25\": {\"O\": 1}, \"26\": {\"O\": 1}, \"27\": {\"O\": 1}, \"28\": {\"O\": 1}, \"29\": {\"O\": 1}, \"30\": {\"O\": 1}, \"31\": {\"O\": 1}, \"32\": {\"O\": 1}, \"33\": {\"O\": 1}, \"34\": {\"O\": 1}, \"35\": {\"O\": 1}, \"36\": {\"O\": 1}, \"37\": {\"O\": 1}, \"38\": {\"O\": 1}, \"39\": {\"O\": 1}}" n_minim_iter=4 energy=-45147.453776605245 stress="0.05575907632398065 -3.2149950618851576e-13 -2.431716209040327e-13 -3.2149950618851576e-13 0.05635801210090707 -5.312351179255319e-13 -2.431716209040327e-13 -5.312351179255319e-13 0.057173116570919724" free_energy=-45147.453776605245 pbc="T T T"
In       2.76507959       5.31898435      10.43510017        0      -0.05342661      -0.03064761      -0.00355001
In      -0.09558189       4.30469052       7.30552992        1      -0.05342661       0.03064761       0.00355001
In       2.95624337       2.11109273      16.17584496        2       0.05342661      -0.03064761       0.00355001
In       5.81690485       1.09679890       1.56478513        3       0.05342661       0.03064761      -0.00355001
In       2.95624337       1.09679890       7.30552992        4       0.05342661       0.03064761       0.00355001
In       5.81690485       2.11109273      10.43510017        5       0.05342661      -0.03064761      -0.00355001
In       2.76507959       4.30469052       1.56478513        6      -0.05342661       0.03064761      -0.00355001
In      -0.09558189       5.31898435      16.17584496        7      -0.05342661      -0.03064761       0.00355001
In       2.74732569       4.86576783      14.45116696        8      -0.01765987       0.06556296      -0.00747945
In       5.60798716       4.75790705       3.28946313        9      -0.01765987      -0.06556296       0.00747945
In       2.97399727       1.65787620      12.15977817       10       0.01765987       0.06556296       0.00747945
In       0.11333579       1.55001542       5.58085191       11       0.01765987      -0.06556296      -0.00747945
In       2.97399727       1.55001542       3.28946313       12       0.01765987      -0.06556296       0.00747945
In       0.11333579       1.65787620      14.45116696       13       0.01765987       0.06556296      -0.00747945
In       2.74732569       4.75790705       5.58085191       14      -0.01765987      -0.06556296      -0.00747945
In       5.60798716       4.86576783      12.15977817       15      -0.01765987       0.06556296       0.00747945
O        4.82638148       5.66731636      14.09693009       16      -0.02821675      -0.04253393      -0.10301452
O        1.96572000       3.95635852       3.64370000       17      -0.02821675       0.04253393       0.10301452
O        0.89494148       2.45942473      12.51401504       18       0.02821675      -0.04253393       0.10301452
O        3.75560296       0.74846689       5.22661505       19       0.02821675       0.04253393      -0.10301452
O        0.89494148       0.74846689       3.64370000       20       0.02821675       0.04253393       0.10301452
O        3.75560296       2.45942473      14.09693009       21       0.02821675      -0.04253393      -0.10301452
O        4.82638148       3.95635852       5.22661505       22      -0.02821675       0.04253393      -0.10301452
O        1.96572000       5.66731636      12.51401504       23      -0.02821675      -0.04253393       0.10301452
O        3.97777872       3.58030475      11.33913154       24      -0.00694152       0.03734843      -0.04811502
O        1.11711724       6.04337013       6.40149854       25      -0.00694152      -0.03734843       0.04811502
O        1.74354424       0.37241312      15.27181358       26       0.00694152       0.03734843       0.04811502
O        4.60420572       2.83547851       2.46881650       27       0.00694152      -0.03734843      -0.04811502
O        1.74354424       2.83547851       6.40149854       28       0.00694152      -0.03734843       0.04811502
O        4.60420572       0.37241312      11.33913154       29       0.00694152       0.03734843      -0.04811502
O        3.97777872       6.04337013       2.46881650       30      -0.00694152      -0.03734843      -0.04811502
O        1.11711724       3.58030475      15.27181358       31      -0.00694152       0.03734843       0.04811502
O        3.66302601       4.28418812      16.54192393       32       0.03435981      -0.05835431       0.04839793
O        0.80236453       5.33948675       1.19870616       33       0.03435981       0.05835431      -0.04839793
O        2.05829695       1.07629650      10.06902120       34      -0.03435981      -0.05835431      -0.04839793
O        4.91895843       2.13159513       7.67160888       35      -0.03435981       0.05835431       0.04839793
O        2.05829695       2.13159513       1.19870616       36      -0.03435981       0.05835431      -0.04839793
O        4.91895843       1.07629650      16.54192393       37      -0.03435981      -0.05835431       0.04839793
O        3.66302601       5.33948675       7.67160888       38       0.03435981       0.05835431       0.04839793
O        0.80236453       4.28418812      10.06902120       39       0.03435981      -0.05835431      -0.04839793
40
Lattice="5.754116945817264 -3.493715259189373e-42 0.0 3.7640793145277e-42 6.410985990422335 0.0 0.0 0.0 17.65272174040788" Properties=species:S:1:pos:R:3:spacegroup_kinds:I:1:forces:R:3 spacegroup="P 1" unit_cell=conventional occupancy="_JSON {\"0\": {\"In\": 1}, \"1\": {\"In\": 1}, \"2\": {\"In\": 1}, \"3\": {\"In\": 1}, \"4\": {\"In\": 1}, \"5\": {\"In\": 1}, \"6\": {\"In\": 1}, \"7\": {\"In\": 1}, \"8\": {\"In\": 1}, \"9\": {\"In\": 1}, \"10\": {\"In\": 1}, \"11\": {\"In\": 1}, \"12\": {\"In\": 1}, \"13\": {\"In\": 1}, \"14\": {\"In\": 1}, \"15\": {\"In\": 1}, \"16\": {\"O\": 1}, \"17\": {\"O\": 1}, \"18\": {\"O\": 1}, \"19\": {\"O\": 1}, \"20\": {\"O\": 1}, \"21\": {\"O\": 1}, \"22\": {\"O\": 1}, \"23\": {\"O\": 1}, \"24\": {\"O\": 1}, \"25\": {\"O\": 1}, \"26\": {\"O\": 1}, \"27\": {\"O\": 1}, \"28\": {\"O\": 1}, \"29\": {\"O\": 1}, \"30\": {\"O\": 1}, \"31\": {\"O\": 1}, \"32\": {\"O\": 1}, \"33\": {\"O\": 1}, \"34\": {\"O\": 1}, \"35\": {\"O\": 1}, \"36\": {\"O\": 1}, \"37\": {\"O\": 1}, \"38\": {\"O\": 1}, \"39\": {\"O\": 1}}" n_minim_iter=5 energy=-45147.46491484383 stress="0.05411254043432136 3.1894728829462095e-13 5.614090537676385e-13 3.1894728829462095e-13 0.05129589277762211 5.155708067456095e-14 5.614090537676385e-13 5.155708067456095e-14 0.049363698973615" free_energy=-45147.46491484383 pbc="T T T"
In       2.77116953       5.31411409      10.38684137        0      -0.01937473      -0.06530923      -0.00876084
In      -0.10588895       4.30236490       7.26588037        1      -0.01937473       0.06530923       0.00876084
In       2.98294742       2.10862109      16.09224124        2       0.01937473      -0.06530923       0.00876084
In       5.86000589       1.09687190       1.56048050        3       0.01937473       0.06530923      -0.00876084
In       2.98294742       1.09687190       7.26588037        4       0.01937473       0.06530923       0.00876084
In       5.86000589       2.10862109      10.38684137        5       0.01937473      -0.06530923      -0.00876084
In       2.77116953       4.30236490       1.56048050        6      -0.01937473       0.06530923      -0.00876084
In      -0.10588895       5.31411409      16.09224124        7      -0.01937473      -0.06530923       0.00876084
In       2.75715693       4.86735514      14.38350033        8       0.01966787       0.07196163       0.03002317
In       5.63421540       4.74912384       3.26922141        9       0.01966787      -0.07196163      -0.03002317
In       2.99696001       1.66186215      12.09558228       10      -0.01966787       0.07196163      -0.03002317
In       0.11990154       1.54363085       5.55713946       11      -0.01966787      -0.07196163       0.03002317
In       2.99696001       1.54363085       3.26922141       12      -0.01966787      -0.07196163      -0.03002317
In       0.11990154       1.66186215      14.38350033       13      -0.01966787       0.07196163       0.03002317
In       2.75715693       4.74912384       5.55713946       14       0.01966787      -0.07196163       0.03002317
In       5.63421540       4.86735514      12.09558228       15       0.01966787       0.07196163      -0.03002317
O        4.85527403       5.65725540      14.02340565       16      -0.10659795      -0.01880018      -0.08086489
O        1.97821556       3.95922359       3.62931609       17      -0.10659795       0.01880018       0.08086489
O        0.89884292       2.45176240      12.45567696       18       0.10659795      -0.01880018       0.08086489
O        3.77590139       0.75373059       5.19704478       19       0.10659795       0.01880018      -0.08086489
O        0.89884292       0.75373059       3.62931609       20       0.10659795       0.01880018       0.08086489
O        3.77590139       2.45176240      14.02340565       21       0.10659795      -0.01880018      -0.08086489
O        4.85527403       3.95922359       5.19704478       22      -0.10659795       0.01880018      -0.08086489
O        1.97821556       5.65725540      12.45567696       23      -0.10659795      -0.01880018       0.08086489
O        4.00100353       3.58382646      11.27905553       24       0.01209792       0.04672459      -0.08935938
O        1.12394506       6.03265253       6.37366621       25       0.01209792      -0.04672459       0.08935938
O        1.75311341       0.37833346      15.20002709       26      -0.01209792       0.04672459       0.08935938
O        4.63017188       2.82715953       2.45269466       27      -0.01209792      -0.04672459      -0.08935938
O        1.75311341       2.82715953       6.37366621       28      -0.01209792      -0.04672459       0.08935938
O        4.63017188       0.37833346      11.27905553       29      -0.01209792       0.04672459      -0.08935938
O        4.00100353       6.03265253       2.45269466       30       0.01209792      -0.04672459      -0.08935938
O        1.12394506       3.58382646      15.20002709       31       0.01209792       0.04672459       0.08935938
O        3.69250794       4.27415084      16.45982787       32      -0.00616574      -0.01898297       0.08796980
O        0.81544947       5.34232814       1.19289387       33      -0.00616574       0.01898297      -0.08796980
O        2.06160901       1.06865785      10.01925475       34       0.00616574      -0.01898297      -0.08796980
O        4.93866748       2.13683515       7.63346700       35       0.00616574       0.01898297       0.08796980
O        2.06160901       2.13683515       1.19289387       36       0.00616574       0.01898297      -0.08796980
O        4.93866748       1.06865785      16.45982787       37       0.00616574      -0.01898297       0.08796980
O        3.69250794       5.34232814       7.63346700       38      -0.00616574       0.01898297       0.08796980
O        0.81544947       4.27415084      10.01925475       39      -0.00616574      -0.01898297      -0.08796980
40