40
Lattice="5.495527388044501 -4.532209866245348e-43 0.0 4.736227318751974e-43 5.7429085841889025 0.0 0.0 0.0 16.001526838600363" Properties=species:S:1:pos:R:3:spacegroup_kinds:I:1:forces:R:3 spacegroup="P 1" unit_cell=conventional occupancy="_JSON {\"0\": {\"In\": 1}, \"1\": {\"In\": 1}, \"2\": {\"In\": 1}, \"3\": {\"In\": 1}, \"4\": {\"In\": 1}, \"5\": {\"In\": 1}, \"6\": {\"In\": 1}, \"7\": {\"In\": 1}, \"8\": {\"In\": 1}, \"9\": {\"In\": 1}, \"10\": {\"In\": 1}, \"11\": {\"In\": 1}, \"12\": {\"In\": 1}, \"13\": {\"In\": 1}, \"14\": {\"In\": 1}, \"15\": {\"In\": 1}, \"16\": {\"O\": 1}, \"17\": {\"O\": 1}, \"18\": {\"O\": 1}, \"19\": {\"O\": 1}, \"20\": {\"O\": 1}, \"21\": {\"O\": 1}, \"22\": {\"O\": 1}, \"23\": {\"O\": 1}, \"24\": {\"O\": 1}, \"25\": {\"O\": 1}, \"26\": {\"O\": 1}, \"27\": {\"O\": 1}, \"28\": {\"O\": 1}, \"29\": {\"O\": 1}, \"30\": {\"O\": 1}, \"31\": {\"O\": 1}, \"32\": {\"O\": 1}, \"33\": {\"O\": 1}, \"34\": {\"O\": 1}, \"35\": {\"O\": 1}, \"36\": {\"O\": 1}, \"37\": {\"O\": 1}, \"38\": {\"O\": 1}, \"39\": {\"O\": 1}}" n_minim_iter=1 energy=-45150.36780819391 stress="-0.007151298407479205 -3.760097614181579e-13 -4.918698345557816e-14 -3.760097614181579e-13 4.874650200000547e-06 -2.9110277835438574e-13 -4.918698345557816e-14 -2.9110277835438574e-13 0.0015585068642173998" free_energy=-45150.36780819391 pbc="T T T"
In       2.69615358       4.62623660       9.12568153        0      -0.05138963       0.02928438      -0.07654959
In      -0.05161011       3.98812627       6.87584531        1      -0.05138963      -0.02928438       0.07654959
In       2.79937381       1.75478231      14.87660873        2       0.05138963       0.02928438       0.07654959
In       5.54713750       1.11667198       1.12491811        3       0.05138963      -0.02928438      -0.07654959
In       2.79937381       1.11667198       6.87584531        4       0.05138963      -0.02928438       0.07654959
In       5.54713750       1.75478231       9.12568153        5       0.05138963       0.02928438      -0.07654959
In       2.69615358       3.98812627       1.12491811        6      -0.05138963      -0.02928438      -0.07654959
In      -0.05161011       4.62623660      14.87660873        7      -0.05138963       0.02928438       0.07654959
In       2.69029624       4.38112668      13.10215221        8      -0.00979220      -0.02539156      -0.03300586
In       5.43805993       4.23323620       2.89937463        9      -0.00979220       0.02539156       0.03300586
In       2.80523115       1.50967239      10.90013805       10       0.00979220      -0.02539156       0.03300586
In       0.05746746       1.36178190       5.10138879       11       0.00979220       0.02539156      -0.03300586
In       2.80523115       1.36178190       2.89937463       12       0.00979220       0.02539156       0.03300586
In       0.05746746       1.50967239      13.10215221       13       0.00979220      -0.02539156      -0.03300586
In       2.69029624       4.23323620       5.10138879       14      -0.00979220       0.02539156      -0.03300586
In       5.43805993       4.38112668      10.90013805       15      -0.00979220      -0.02539156       0.03300586
O        4.71155019       5.13880107      12.78227943       16       0.07534316       0.08414190       0.14586841
O        1.96378650       3.47556180       3.21924741       17       0.07534316      -0.08414190      -0.14586841
O        0.78397720       2.26734678      11.22001083       18      -0.07534316       0.08414190      -0.14586841
O        3.53174089       0.60410751       4.78151601       19      -0.07534316      -0.08414190       0.14586841
O        0.78397720       0.60410751       3.21924741       20      -0.07534316      -0.08414190      -0.14586841
O        3.53174089       2.26734678      12.78227943       21      -0.07534316       0.08414190       0.14586841
O        4.71155019       3.47556180       4.78151601       22       0.07534316      -0.08414190       0.14586841
O        1.96378650       5.13880107      11.22001083       23       0.07534316       0.08414190      -0.14586841
O        3.92194616       3.10659729       9.92034682       24       0.15544413      -0.01506344      -0.08191599
O        1.17418247       5.50776558       6.08118002       25       0.15544413       0.01506344       0.08191599
O        1.57358123       0.23514300      14.08194344       26      -0.15544413      -0.01506344       0.08191599
O        4.32134492       2.63631129       1.91958340       27      -0.15544413       0.01506344      -0.08191599
O        1.57358123       2.63631129       6.08118002       28      -0.15544413       0.01506344       0.08191599
O        4.32134492       0.23514300       9.92034682       29      -0.15544413      -0.01506344      -0.08191599
O        3.92194616       5.50776558       1.91958340       30       0.15544413       0.01506344      -0.08191599
O        1.17418247       3.10659729      14.08194344       31       0.15544413      -0.01506344       0.08191599
O        3.48369960       3.83046056      15.13112038       32      -0.06298506      -0.06218295      -0.09331467
O        0.73593591       4.78390232       0.87040646       33      -0.06298506       0.06218295       0.09331467
O        2.01182779       0.95900627       8.87116988       34       0.06298506      -0.06218295       0.09331467
O        4.75959148       1.91244803       7.13035696       35       0.06298506       0.06218295      -0.09331467
O        2.01182779       1.91244803       0.87040646       36       0.06298506       0.06218295       0.09331467
O        4.75959148       0.95900627      15.13112038       37       0.06298506      -0.06218295      -0.09331467
O        3.48369960       4.78390232       7.13035696       38      -0.06298506       0.06218295      -0.09331467
O        0.73593591       3.83046056       8.87116988       39      -0.06298506      -0.06218295       0.09331467
40
Lattice="5.522537645430284 -4.425412466158013e-43 0.0 4.403875770262159e-43 5.732974486148049 0.0 0.0 0.0 15.950856577672077" Properties=species:S:1:pos:R:3:spacegroup_kinds:I:1:forces:R:3 spacegroup="P 1" unit_cell=conventional occupancy="_JSON {\"0\": {\"In\": 1}, \"1\": {\"In\": 1}, \"2\": {\"In\": 1}, \"3\": {\"In\": 1}, \"4\": {\"In\": 1}, \"5\": {\"In\": 1}, \"6\": {\"In\": 1}, \"7\": {\"In\": 1}, \"8\": {\"In\": 1}, \"9\": {\"In\": 1}, \"10\": {\"In\": 1}, \"11\": {\"In\": 1}, \"12\": {\"In\": 1}, \"13\": {\"In\": 1}, \"14\": {\"In\": 1}, \"15\": {\"In\": 1}, \"16\": {\"O\": 1}, \"17\": {\"O\": 1}, \"18\": {\"O\": 1}, \"19\": {\"O\": 1}, \"20\": {\"O\": 1}, \"21\": {\"O\": 1}, \"22\": {\"O\": 1}, \"23\": {\"O\": 1}, \"24\": {\"O\": 1}, \"25\": {\"O\": 1}, \"26\": {\"O\": 1}, \"27\": {\"O\": 1}, \"28\": {\"O\": 1}, \"29\": {\"O\": 1}, \"30\": {\"O\": 1}, \"31\": {\"O\": 1}, \"32\": {\"O\": 1}, \"33\": {\"O\": 1}, \"34\": {\"O\": 1}, \"35\": {\"O\": 1}, \"36\": {\"O\": 1}, \"37\": {\"O\": 1}, \"38\": {\"O\": 1}, \"39\": {\"O\": 1}}" n_minim_iter=2 energy=-45150.37913582187 stress="-0.0006570625577869058 1.3399185064881745e-13 1.3332859213127592e-13 1.3399185064881745e-13 -0.00029547969626114056 9.075781574055376e-14 1.3332859213127592e-13 9.075781574055376e-14 -0.0011214547229469107" free_energy=-45150.37913582187 pbc="T T T"
In       2.70931025       4.61828779       9.09664416        0      -0.08397426       0.00010776      -0.08499552
In      -0.05195857       3.98117394       6.85421241        1      -0.08397426      -0.00010776       0.08499552
In       2.81322740       1.75180055      14.82964070        2       0.08397426       0.00010776       0.08499552
In       5.57449622       1.11468669       1.12121588        3       0.08397426      -0.00010776      -0.08499552
In       2.81322740       1.11468669       6.85421241        4       0.08397426      -0.00010776       0.08499552
In       5.57449622       1.75180055       9.09664416        5       0.08397426       0.00010776      -0.08499552
In       2.70931025       3.98117394       1.12121588        6      -0.08397426      -0.00010776      -0.08499552
In      -0.05195857       4.61828779      14.82964070        7      -0.08397426       0.00010776       0.08499552
In       2.70350085       4.37350167      13.06060268        8       0.03627785      -0.03816226      -0.05161558
In       5.46476967       4.22596006       2.89025390        9       0.03627785       0.03816226       0.05161558
In       2.81903679       1.50701442      10.86568219       10      -0.03627785      -0.03816226       0.05161558
In       0.05776797       1.35947282       5.08517439       11      -0.03627785       0.03816226      -0.05161558
In       2.81903679       1.35947282       2.89025390       12      -0.03627785       0.03816226       0.05161558
In       0.05776797       1.50701442      13.06060268       13      -0.03627785      -0.03816226      -0.05161558
In       2.70350085       4.22596006       5.08517439       14       0.03627785       0.03816226      -0.05161558
In       5.46476967       4.37350167      10.86568219       15       0.03627785      -0.03816226       0.05161558
O        4.73484623       5.13006615      12.74207012       16       0.04909071       0.08367205       0.16427204
O        1.97357740       3.46939557       3.20878645       17       0.04909071      -0.08367205      -0.16427204
O        0.78769142       2.26357891      11.18421474       18      -0.04909071       0.08367205      -0.16427204
O        3.54896024       0.60290833       4.76664183       19      -0.04909071      -0.08367205       0.16427204
O        0.78769142       0.60290833       3.20878645       20      -0.04909071      -0.08367205      -0.16427204
O        3.54896024       2.26357891      12.74207012       21      -0.04909071       0.08367205       0.16427204
O        4.73484623       3.46939557       4.76664183       22       0.04909071      -0.08367205       0.16427204
O        1.97357740       5.13006615      11.18421474       23       0.04909071       0.08367205      -0.16427204
O        3.94150909       3.10119589       9.88878326       24       0.16158462       0.00064878      -0.08569850
O        1.18024027       5.49826584       6.06207332       25       0.16158462      -0.00064878       0.08569850
O        1.58102855       0.23470864      14.03750161       26      -0.16158462       0.00064878       0.08569850
O        4.34229737       2.63177860       1.91335497       27      -0.16158462      -0.00064878      -0.08569850
O        1.58102855       2.63177860       6.06207332       28      -0.16158462      -0.00064878       0.08569850
O        4.34229737       0.23470864       9.88878326       29      -0.16158462       0.00064878      -0.08569850
O        3.94150909       5.49826584       1.91335497       30       0.16158462      -0.00064878      -0.08569850
O        1.18024027       3.10119589      14.03750161       31       0.16158462       0.00064878       0.08569850
O        3.50070563       3.82372066      15.08303558       32      -0.03782221      -0.03986110      -0.12515900
O        0.73943681       4.77574106       0.86782100       33      -0.03782221       0.03986110       0.12515900
O        2.02183201       0.95723342       8.84324929       34       0.03782221      -0.03986110       0.12515900
O        4.78310084       1.90925382       7.10760729       35       0.03782221       0.03986110      -0.12515900
O        2.02183201       1.90925382       0.86782100       36       0.03782221       0.03986110       0.12515900
O        4.78310084       0.95723342      15.08303558       37       0.03782221      -0.03986110      -0.12515900
O        3.50070563       4.77574106       7.10760729       38      -0.03782221       0.03986110      -0.12515900
O        0.73943681       3.82372066       8.84324929       39      -0.03782221      -0.03986110       0.12515900
40
Lattice="5.530570537266794 -4.4335826848596335e-43 0.0 4.415883873573501e-43 5.71238465904965 0.0 0.0 0.0 15.985098775624166" Properties=species:S:1:pos:R:3:spacegroup_kinds:I:1:forces:R:3 spacegroup="P 1" unit_cell=conventional occupancy="_JSON {\"0\": {\"In\": 1}, \"1\": {\"In\": 1}, \"2\": {\"In\": 1}, \"3\": {\"In\": 1}, \"4\": {\"In\": 1}, \"5\": {\"In\": 1}, \"6\": {\"In\": 1}, \"7\": {\"In\": 1}, \"8\": {\"In\": 1}, \"9\": {\"In\": 1}, \"10\": {\"In\": 1}, \"11\": {\"In\": 1}, \"12\": {\"In\": 1}, \"13\": {\"In\": 1}, \"14\": {\"In\": 1}, \"15\": {\"In\": 1}, \"16\": {\"O\": 1}, \"17\": {\"O\": 1}, \"18\": {\"O\": 1}, \"19\": {\"O\": 1}, \"20\": {\"O\": 1}, \"21\": {\"O\": 1}, \"22\": {\"O\": 1}, \"23\": {\"O\": 1}, \"24\": {\"O\": 1}, \"25\": {\"O\": 1}, \"26\": {\"O\": 1}, \"27\": {\"O\": 1}, \"28\": {\"O\": 1}, \"29\": {\"O\": 1}, \"30\": {\"O\": 1}, \"31\": {\"O\": 1}, \"32\": {\"O\": 1}, \"33\": {\"O\": 1}, \"34\": {\"O\": 1}, \"35\": {\"O\": 1}, \"36\": {\"O\": 1}, \"37\": {\"O\": 1}, \"38\": {\"O\": 1}, \"39\": {\"O\": 1}}" n_minim_iter=3 energy=-45150.38574939259 stress="0.00105827446465399 2.45084244810663e-13 -3.743827225423463e-14 2.45084244810663e-13 -0.004398604782856584 3.943257651930907e-13 -3.743827225423463e-14 3.943257651930907e-13 0.0030971690607327286" free_energy=-45150.38574939259 pbc="T T T"
In       2.71194641       4.60172161       9.11485591        0      -0.05989594      -0.02233000      -0.09594295
In      -0.05333886       3.96685537       6.87024287        1      -0.05989594       0.02233000       0.09594295
In       2.81862413       1.74552929      14.86279226        2       0.05989594      -0.02233000       0.09594295
In       5.58390940       1.11066304       1.12230652        3       0.05989594       0.02233000      -0.09594295
In       2.81862413       1.11066304       6.87024287        4       0.05989594       0.02233000       0.09594295
In       5.58390940       1.74552929       9.11485591        5       0.05989594      -0.02233000      -0.09594295
In       2.71194641       3.96685537       1.12230652        6      -0.05989594       0.02233000      -0.09594295
In      -0.05333886       4.60172161      14.86279226        7      -0.05989594      -0.02233000       0.09594295
In       2.70797627       4.35721079      13.08784955        8       0.02511741      -0.00976058      -0.05195063
In       5.47326154       4.21136620       2.89724922        9       0.02511741       0.00976058       0.05195063
In       2.82259426       1.50101846      10.88979861       10      -0.02511741      -0.00976058       0.05195063
In       0.05730899       1.35517387       5.09530017       11      -0.02511741       0.00976058      -0.05195063
In       2.82259426       1.35517387       2.89724922       12      -0.02511741       0.00976058       0.05195063
In       0.05730899       1.50101846      13.08784955       13      -0.02511741      -0.00976058      -0.05195063
In       2.70797627       4.21136620       5.09530017       14       0.02511741       0.00976058      -0.05195063
In       5.47326154       4.35721079      10.88979861       15       0.02511741      -0.00976058       0.05195063
O        4.74252533       5.11293930      12.77196663       16       0.06258918       0.05603162       0.10086052
O        1.97724006       3.45563769       3.21313215       17       0.06258918      -0.05603162      -0.10086052
O        0.78804521       2.25674697      11.20568153       18      -0.06258918       0.05603162      -0.10086052
O        3.55333048       0.59944536       4.77941724       19      -0.06258918      -0.05603162       0.10086052
O        0.78804521       0.59944536       3.21313215       20      -0.06258918      -0.05603162      -0.10086052
O        3.55333048       2.25674697      12.77196663       21      -0.06258918       0.05603162       0.10086052
O        4.74252533       3.45563769       4.77941724       22       0.06258918      -0.05603162       0.10086052
O        1.97724006       5.11293930      11.20568153       23       0.06258918       0.05603162      -0.10086052
O        3.94978932       3.09005806       9.90868159       24       0.14066009      -0.01813528      -0.09824929
O        1.18450405       5.47851893       6.07641719       25       0.14066009       0.01813528       0.09824929
O        1.58078122       0.23386573      14.06896657       26      -0.14066009      -0.01813528       0.09824929
O        4.34606649       2.62232660       1.91613220       27      -0.14066009       0.01813528      -0.09824929
O        1.58078122       2.62232660       6.07641719       28      -0.14066009       0.01813528       0.09824929
O        4.34606649       0.23386573       9.90868159       29      -0.14066009      -0.01813528      -0.09824929
O        3.94978932       5.47851893       1.91613220       30       0.14066009       0.01813528      -0.09824929
O        1.18450405       3.09005806      14.06896657       31       0.14066009      -0.01813528       0.09824929
O        3.50518428       3.80935559      15.11348892       32      -0.04360651       0.00216128      -0.08642666
O        0.73989901       4.75922140       0.87160985       33      -0.04360651      -0.00216128       0.08642666
O        2.02538626       0.95316326       8.86415924       34       0.04360651       0.00216128       0.08642666
O        4.79067152       1.90302907       7.12093953       35       0.04360651      -0.00216128      -0.08642666
O        2.02538626       1.90302907       0.87160985       36       0.04360651      -0.00216128       0.08642666
O        4.79067152       0.95316326      15.11348892       37       0.04360651       0.00216128      -0.08642666
O        3.50518428       4.75922140       7.12093953       38      -0.04360651      -0.00216128      -0.08642666
O        0.73989901       3.80935559       8.86415924       39      -0.04360651       0.00216128       0.08642666
40
Lattice="5.543835375030211 -4.450862920304815e-43 0.0 4.431401418503362e-43 5.7377132531925055 0.0 0.0 0.0 15.876455063388725" Properties=species:S:1:pos:R:3:spacegroup_kinds:I:1:forces:R:3 spacegroup="P 1" unit_cell=conventional occupancy="_JSON {\"0\": {\"In\": 1}, \"1\": {\"In\": 1}, \"2\": {\"In\": 1}, \"3\": {\"In\": 1}, \"4\": {\"In\": 1}, \"5\": {\"In\": 1}, \"6\": {\"In\": 1}, \"7\": {\"In\": 1}, \"8\": {\"In\": 1}, \"9\": {\"In\": 1}, \"10\": {\"In\": 1}, \"11\": {\"In\": 1}, \"12\": {\"In\": 1}, \"13\": {\"In\": 1}, \"14\": {\"In\": 1}, \"15\": {\"In\": 1}, \"16\": {\"O\": 1}, \"17\": {\"O\": 1}, \"18\": {\"O\": 1}, \"19\": {\"O\": 1}, \"20\": {\"O\": 1}, \"21\": {\"O\": 1}, \"22\": {\"O\": 1}, \"23\": {\"O\": 1}, \"24\": {\"O\": 1}, \"25\": {\"O\": 1}, \"26\": {\"O\": 1}, \"27\": {\"O\": 1}, \"28\": {\"O\": 1}, \"29\": {\"O\": 1}, \"30\": {\"O\": 1}, \"31\": {\"O\": 1}, \"32\": {\"O\": 1}, \"33\": {\"O\": 1}, \"34\": {\"O\": 1}, \"35\": {\"O\": 1}, \"36\": {\"O\": 1}, \"37\": {\"O\": 1}, \"38\": {\"O\": 1}, \"39\": {\"O\": 1}}" n_minim_iter=4 energy=-45150.42271056731 stress="0.010313843691069103 -2.926172589401813e-13 -2.50301717265689e-13 -2.926172589401813e-13 0.011239473072970801 -2.83832875829832e-13 -2.50301717265689e-13 -2.83832875829832e-13 0.008787034746608231" free_energy=-45150.42271056731 pbc="T T T"
In       2.70905395       4.62197562       9.04306663        0       0.08467791      -0.12609953      -0.06436001
In      -0.06286374       3.98459426       6.83338843        1       0.08467791       0.12609953       0.06436001
In       2.83478143       1.75311899      14.77161596        2      -0.08467791      -0.12609953       0.06436001
In       5.60669912       1.11573764       1.10483910        3      -0.08467791       0.12609953      -0.06436001
In       2.83478143       1.11573764       6.83338843        4      -0.08467791       0.12609953       0.06436001
In       5.60669912       1.75311899       9.04306663        5      -0.08467791      -0.12609953      -0.06436001
In       2.70905395       3.98459426       1.10483910        6       0.08467791       0.12609953      -0.06436001
In      -0.06286374       4.62197562      14.77161596        7       0.08467791      -0.12609953       0.06436001
In       2.71838142       4.37254578      12.99306055        8      -0.04566573       0.05561726      -0.05239997
In       5.49029911       4.23402410       2.88339452        9      -0.04566573      -0.05561726       0.05239997
In       2.82545396       1.50368915      10.82162205       10       0.04566573       0.05561726       0.05239997
In       0.05353627       1.36516747       5.05483302       11       0.04566573      -0.05561726      -0.05239997
In       2.82545396       1.36516747       2.88339452       12       0.04566573      -0.05561726       0.05239997
In       0.05353627       1.50368915      12.99306055       13       0.04566573       0.05561726      -0.05239997
In       2.71838142       4.23402410       5.05483302       14      -0.04566573      -0.05561726      -0.05239997
In       5.49029911       4.37254578      10.82162205       15      -0.04566573       0.05561726       0.05239997
O        4.75995290       5.14491467      12.70308550       16      -0.05108919       0.08446926      -0.01561030
O        1.98803521       3.46165521       3.17336956       17      -0.05108919      -0.08446926       0.01561030
O        0.78388248       2.27605804      11.11159709       18       0.05108919       0.08446926       0.01561030
O        3.55580016       0.59279858       4.76485797       19       0.05108919      -0.08446926      -0.01561030
O        0.78388248       0.59279858       3.17336956       20       0.05108919      -0.08446926       0.01561030
O        3.55580016       2.27605804      12.70308550       21       0.05108919       0.08446926      -0.01561030
O        4.75995290       3.46165521       4.76485797       22      -0.05108919      -0.08446926      -0.01561030
O        1.98803521       5.14491467      11.11159709       23      -0.05108919       0.08446926       0.01561030
O        3.97792455       3.10352499       9.83137597       24      -0.18241738       0.03232696      -0.12769734
O        1.20600686       5.50304489       6.04507910       25      -0.18241738      -0.03232696       0.12769734
O        1.56591083       0.23466836      13.98330663       26       0.18241738       0.03232696       0.12769734
O        4.33782851       2.63418826       1.89314843       27       0.18241738      -0.03232696      -0.12769734
O        1.56591083       2.63418826       6.04507910       28       0.18241738      -0.03232696       0.12769734
O        4.33782851       0.23466836       9.83137597       29       0.18241738       0.03232696      -0.12769734
O        3.97792455       5.50304489       1.89314843       30      -0.18241738      -0.03232696      -0.12769734
O        1.20600686       3.10352499      13.98330663       31      -0.18241738       0.03232696       0.12769734
O        3.50896696       3.82208884      14.99706621       32       0.06863481       0.00698051      -0.05619999
O        0.73704927       4.78448104       0.87938885       33       0.06863481      -0.00698051       0.05619999
O        2.03486842       0.95323222       8.81761638       34      -0.06863481       0.00698051       0.05619999
O        4.80678611       1.91562441       7.05883868       35      -0.06863481      -0.00698051      -0.05619999
O        2.03486842       1.91562441       0.87938885       36      -0.06863481      -0.00698051       0.05619999
O        4.80678611       0.95323222      14.99706621       37      -0.06863481       0.00698051      -0.05619999
O        3.50896696       4.78448104       7.05883868       38       0.06863481      -0.00698051      -0.05619999
O        0.73704927       3.82208884       8.81761638       39       0.06863481       0.00698051       0.05619999
40
Lattice="5.538192525937909 -4.13550955874433e-43 0.0 4.5854007318608966e-43 5.728120189431611 0.0 0.0 0.0 15.919247431560057" Properties=species:S:1:pos:R:3:spacegroup_kinds:I:1:forces:R:3 spacegroup="P 1" unit_cell=conventional occupancy="_JSON {\"0\": {\"In\": 1}, \"1\": {\"In\": 1}, \"2\": {\"In\": 1}, \"3\": {\"In\": 1}, \"4\": {\"In\": 1}, \"5\": {\"In\": 1}, \"6\": {\"In\": 1}, \"7\": {\"In\": 1}, \"8\": {\"In\": 1}, \"9\": {\"In\": 1}, \"10\": {\"In\": 1}, \"11\": {\"In\": 1}, \"12\": {\"In\": 1}, \"13\": {\"In\": 1}, \"14\": {\"In\": 1}, \"15\": {\"In\": 1}, \"16\": {\"O\": 1}, \"17\": {\"O\": 1}, \"18\": {\"O\": 1}, \"19\": {\"O\": 1}, \"20\": {\"O\": 1}, \"21\": {\"O\": 1}, \"22\": {\"O\": 1}, \"23\": {\"O\": 1}, \"24\": {\"O\": 1}, \"25\": {\"O\": 1}, \"26\": {\"O\": 1}, \"27\": {\"O\": 1}, \"28\": {\"O\": 1}, \"29\": {\"O\": 1}, \"30\": {\"O\": 1}, \"31\": {\"O\": 1}, \"32\": {\"O\": 1}, \"33\": {\"O\": 1}, \"34\": {\"O\": 1}, \"35\": {\"O\": 1}, \"36\": {\"O\": 1}, \"37\": {\"O\": 1}, \"38\": {\"O\": 1}, \"39\": {\"O\": 1}}" n_minim_iter=5 energy=-45150.4372786567 stress="0.006782142137651305 -2.0595089307366275e-13 -3.4113383906488655e-13 -2.0595089307366275e-13 0.00572245593003324 -1.324494503309284e-13 -3.4113383906488655e-13 -1.324494503309284e-13 0.009285992654441147" free_energy=-45150.4372786567 pbc="T T T"
In       2.71060264       4.61056819       9.06721181        0       0.01336887      -0.01306342      -0.07150253
In      -0.05849362       3.98161210       6.85203562        1       0.01336887       0.01306342       0.07150253
In       2.82758989       1.74650809      14.81165934        2      -0.01336887      -0.01306342       0.07150253
In       5.59668615       1.11755200       1.10758809        3      -0.01336887       0.01306342      -0.07150253
In       2.82758989       1.11755200       6.85203562        4      -0.01336887       0.01306342       0.07150253
In       5.59668615       1.74650809       9.06721181        5      -0.01336887      -0.01306342      -0.07150253
In       2.71060264       3.98161210       1.10758809        6       0.01336887       0.01306342      -0.07150253
In      -0.05849362       4.61056819      14.81165934        7       0.01336887      -0.01306342       0.07150253
In       2.71343244       4.36773124      13.02761769        8      -0.03581050       0.02607657      -0.01518368
In       5.48252870       4.22444905       2.89162974        9      -0.03581050      -0.02607657       0.01518368
In       2.82476009       1.50367114      10.85125346       10       0.03581050       0.02607657       0.01518368
In       0.05566383       1.36038895       5.06799397       11       0.03581050      -0.02607657      -0.01518368
In       2.82476009       1.36038895       2.89162974       12       0.03581050      -0.02607657       0.01518368
In       0.05566383       1.50367114      13.02761769       13       0.03581050       0.02607657      -0.01518368
In       2.71343244       4.22444905       5.06799397       14      -0.03581050      -0.02607657      -0.01518368
In       5.48252870       4.36773124      10.85125346       15      -0.03581050       0.02607657       0.01518368
O        4.75275927       5.13697310      12.73336710       16       0.00565095       0.06474116       0.02401632
O        1.98366301       3.45520719       3.18588033       17       0.00565095      -0.06474116      -0.02401632
O        0.78543326       2.27291300      11.14550405       18      -0.00565095       0.06474116      -0.02401632
O        3.55452952       0.59114709       4.77374338       19      -0.00565095      -0.06474116       0.02401632
O        0.78543326       0.59114709       3.18588033       20      -0.00565095      -0.06474116      -0.02401632
O        3.55452952       2.27291300      12.73336710       21      -0.00565095       0.06474116       0.02401632
O        4.75275927       3.45520719       4.77374338       22       0.00565095      -0.06474116       0.02401632
O        1.98366301       5.13697310      11.14550405       23       0.00565095       0.06474116      -0.02401632
O        3.96524273       3.09913036       9.85584643       24      -0.01892063      -0.00504876      -0.09257578
O        1.19614646       5.49304992       6.06340100       25      -0.01892063       0.00504876       0.09257578
O        1.57294980       0.23507027      14.02302471       26       0.01892063      -0.00504876       0.09257578
O        4.34204606       2.62898983       1.89622272       27       0.01892063       0.00504876      -0.09257578
O        1.57294980       2.62898983       6.06340100       28       0.01892063       0.00504876       0.09257578
O        4.34204606       0.23507027       9.85584643       29       0.01892063      -0.00504876      -0.09257578
O        3.96524273       5.49304992       1.89622272       30      -0.01892063       0.00504876      -0.09257578
O        1.19614646       3.09913036      14.02302471       31      -0.01892063      -0.00504876       0.09257578
O        3.50807596       3.81684533      15.03855193       32      -0.00138167      -0.02043302      -0.05663274
O        0.73897970       4.77533495       0.88069550       33      -0.00138167       0.02043302       0.05663274
O        2.03011656       0.95278524       8.84031922       34       0.00138167      -0.02043302       0.05663274
O        4.79921282       1.91127486       7.07892821       35       0.00138167       0.02043302      -0.05663274
O        2.03011656       1.91127486       0.88069550       36       0.00138167       0.02043302       0.05663274
O        4.79921282       0.95278524      15.03855193       37       0.00138167      -0.02043302      -0.05663274
O        3.50807596       4.77533495       7.07892821       38      -0.00138167       0.02043302      -0.05663274
O        0.73897970       3.81684533       8.84031922       39      -0.00138167      -0.02043302       0.05663274
40