40
Lattice="5.256474689388076 -4.40288631532026e-42 0.0 5.026184773170529e-42 6.00061213309726 0.0 0.0 0.0 13.06142821651238" Properties=species:S:1:pos:R:3:spacegroup_kinds:I:1:forces:R:3 spacegroup="P 1" unit_cell=conventional occupancy="_JSON {\"0\": {\"In\": 1}, \"1\": {\"In\": 1}, \"2\": {\"In\": 1}, \"3\": {\"In\": 1}, \"4\": {\"In\": 1}, \"5\": {\"In\": 1}, \"6\": {\"In\": 1}, \"7\": {\"In\": 1}, \"8\": {\"In\": 1}, \"9\": {\"In\": 1}, \"10\": {\"In\": 1}, \"11\": {\"In\": 1}, \"12\": {\"In\": 1}, \"13\": {\"In\": 1}, \"14\": {\"In\": 1}, \"15\": {\"In\": 1}, \"16\": {\"O\": 1}, \"17\": {\"O\": 1}, \"18\": {\"O\": 1}, \"19\": {\"O\": 1}, \"20\": {\"O\": 1}, \"21\": {\"O\": 1}, \"22\": {\"O\": 1}, \"23\": {\"O\": 1}, \"24\": {\"O\": 1}, \"25\": {\"O\": 1}, \"26\": {\"O\": 1}, \"27\": {\"O\": 1}, \"28\": {\"O\": 1}, \"29\": {\"O\": 1}, \"30\": {\"O\": 1}, \"31\": {\"O\": 1}, \"32\": {\"O\": 1}, \"33\": {\"O\": 1}, \"34\": {\"O\": 1}, \"35\": {\"O\": 1}, \"36\": {\"O\": 1}, \"37\": {\"O\": 1}, \"38\": {\"O\": 1}, \"39\": {\"O\": 1}}" n_minim_iter=1 energy=-45167.62659234211 stress="0.27375931471639475 8.427487274112272e-15 1.7525910105638655e-13 8.427487274112272e-15 0.24116240980457185 3.184097159424796e-13 1.7525910105638655e-13 3.184097159424796e-13 0.2898649589108257" free_energy=-45167.62659234211 pbc="T T T"
In       2.56939214       4.71052911       7.68026754        0      -0.27757410      -0.09103667      -0.37796570
In      -0.05884520       4.29038909       5.38116067        1      -0.27757410       0.09103667       0.37796570
In       2.68708255       1.71022305      11.91187478        2       0.27757410      -0.09103667       0.37796570
In       5.31531989       1.29008302       1.14955344        3       0.27757410       0.09103667      -0.37796570
In       2.68708255       1.29008302       5.38116067        4       0.27757410       0.09103667       0.37796570
In       5.31531989       1.71022305       7.68026754        5       0.27757410      -0.09103667      -0.37796570
In       2.56939214       4.29038909       1.14955344        6      -0.27757410       0.09103667      -0.37796570
In      -0.05884520       4.71052911      11.91187478        7      -0.27757410      -0.09103667       0.37796570
In       2.60990449       4.27618485      10.95454948        8       0.17022855       0.09111721      -0.37479409
In       5.23814184       4.72473335       2.10687874        9       0.17022855      -0.09111721       0.37479409
In       2.64657020       1.27587878       8.63759285       10      -0.17022855       0.09111721       0.37479409
In       0.01833285       1.72442728       4.42383537       11      -0.17022855      -0.09111721      -0.37479409
In       2.64657020       1.72442728       2.10687874       12      -0.17022855      -0.09111721       0.37479409
In       0.01833285       1.27587878      10.95454948       13      -0.17022855       0.09111721      -0.37479409
In       2.60990449       4.72473335       4.42383537       14       0.17022855      -0.09111721      -0.37479409
In       5.23814184       4.27618485       8.63759285       15       0.17022855       0.09111721       0.37479409
O        4.29024483       5.20754728      10.21480131       16       0.28626774       0.26586399      -0.42968642
O        1.66200748       3.79337092       2.84662691       17       0.28626774      -0.26586399       0.42968642
O        0.96622986       2.20724122       9.37734102       18      -0.28626774       0.26586399       0.42968642
O        3.59446721       0.79306485       3.68408720       19      -0.28626774      -0.26586399      -0.42968642
O        0.96622986       0.79306485       2.84662691       20      -0.28626774      -0.26586399       0.42968642
O        3.59446721       2.20724122      10.21480131       21      -0.28626774       0.26586399      -0.42968642
O        4.29024483       3.79337092       3.68408720       22       0.28626774      -0.26586399      -0.42968642
O        1.66200748       5.20754728       9.37734102       23       0.28626774       0.26586399       0.42968642
O        3.57772583       3.03175070       8.10794655       24      -0.29333575      -0.28687502       0.09491057
O        0.94948849       5.96916750       4.95348166       25      -0.29333575       0.28687502      -0.09491057
O        1.67874885       0.03144463      11.48419577       26       0.29333575      -0.28687502      -0.09491057
O        4.30698620       2.96886144       1.57723245       27       0.29333575       0.28687502       0.09491057
O        1.67874885       2.96886144       4.95348166       28       0.29333575       0.28687502      -0.09491057
O        4.30698620       0.03144463       8.10794655       29       0.29333575      -0.28687502       0.09491057
O        3.57772583       5.96916750       1.57723245       30      -0.29333575       0.28687502       0.09491057
O        0.94948849       3.03175070      11.48419577       31      -0.29333575      -0.28687502      -0.09491057
O        3.64048590       3.68151350      12.65017007       32      -0.30363747      -0.18524141       0.25070902
O        1.01224856       5.31940470       0.41125814       33      -0.30363747       0.18524141      -0.25070902
O        1.61598879       0.68120743       6.94197225       34       0.30363747      -0.18524141      -0.25070902
O        4.24422613       2.31909863       6.11945597       35       0.30363747       0.18524141       0.25070902
O        1.61598879       2.31909863       0.41125814       36       0.30363747       0.18524141      -0.25070902
O        4.24422613       0.68120743      12.65017007       37       0.30363747      -0.18524141       0.25070902
O        3.64048590       5.31940470       6.11945597       38      -0.30363747       0.18524141       0.25070902
O        1.01224856       3.68151350       6.94197225       39      -0.30363747      -0.18524141      -0.25070902
40
Lattice="5.252339608658623 -4.446101512657002e-42 0.0 4.989830045277666e-42 6.023937707695243 0.0 0.0 0.0 13.02109567198189" Properties=species:S:1:pos:R:3:spacegroup_kinds:I:1:forces:R:3 spacegroup="P 1" unit_cell=conventional occupancy="_JSON {\"0\": {\"In\": 1}, \"1\": {\"In\": 1}, \"2\": {\"In\": 1}, \"3\": {\"In\": 1}, \"4\": {\"In\": 1}, \"5\": {\"In\": 1}, \"6\": {\"In\": 1}, \"7\": {\"In\": 1}, \"8\": {\"In\": 1}, \"9\": {\"In\": 1}, \"10\": {\"In\": 1}, \"11\": {\"In\": 1}, \"12\": {\"In\": 1}, \"13\": {\"In\": 1}, \"14\": {\"In\": 1}, \"15\": {\"In\": 1}, \"16\": {\"O\": 1}, \"17\": {\"O\": 1}, \"18\": {\"O\": 1}, \"19\": {\"O\": 1}, \"20\": {\"O\": 1}, \"21\": {\"O\": 1}, \"22\": {\"O\": 1}, \"23\": {\"O\": 1}, \"24\": {\"O\": 1}, \"25\": {\"O\": 1}, \"26\": {\"O\": 1}, \"27\": {\"O\": 1}, \"28\": {\"O\": 1}, \"29\": {\"O\": 1}, \"30\": {\"O\": 1}, \"31\": {\"O\": 1}, \"32\": {\"O\": 1}, \"33\": {\"O\": 1}, \"34\": {\"O\": 1}, \"35\": {\"O\": 1}, \"36\": {\"O\": 1}, \"37\": {\"O\": 1}, \"38\": {\"O\": 1}, \"39\": {\"O\": 1}}" n_minim_iter=2 energy=-45167.66542578207 stress="0.27644014836557607 -8.538198816038334e-14 -9.762247438124125e-13 -8.538198816038334e-14 0.27235336524398895 3.1864982422016297e-13 -9.762247438124125e-13 3.1864982422016297e-13 0.2709045622964074" free_energy=-45167.66542578207 pbc="T T T"
In       2.56727452       4.72880812       7.65642062        0      -0.25630035      -0.05018129      -0.29856542
In      -0.05889529       4.30709844       5.36467506        1      -0.25630035       0.05018129       0.29856542
In       2.68506509       1.71683927      11.87522289        2       0.25630035      -0.05018129       0.29856542
In       5.31123490       1.29512959       1.14587278        3       0.25630035       0.05018129      -0.29856542
In       2.68506509       1.29512959       5.36467506        4       0.25630035       0.05018129       0.29856542
In       5.31123490       1.71683927       7.65642062        5       0.25630035      -0.05018129      -0.29856542
In       2.56727452       4.30709844       1.14587278        6      -0.25630035       0.05018129      -0.29856542
In      -0.05889529       4.72880812      11.87522289        7      -0.25630035      -0.05018129       0.29856542
In       2.60791048       4.29283902      10.92059295        8       0.16465200       0.00862326      -0.31849895
In       5.23408029       4.74306754       2.10050272        9       0.16465200      -0.00862326       0.31849895
In       2.64442913       1.28087016       8.61105056       10      -0.16465200       0.00862326       0.31849895
In       0.01825932       1.73109869       4.41004512       11      -0.16465200      -0.00862326      -0.31849895
In       2.64442913       1.73109869       2.10050272       12      -0.16465200      -0.00862326       0.31849895
In       0.01825932       1.28087016      10.92059295       13      -0.16465200       0.00862326      -0.31849895
In       2.60791048       4.74306754       4.41004512       14       0.16465200      -0.00862326      -0.31849895
In       5.23408029       4.29283902       8.61105056       15       0.16465200       0.00862326       0.31849895
O        4.28696924       5.22788280      10.18311004       16       0.29876119       0.21100723      -0.34644703
O        1.66079944       3.80802376       2.83798563       17       0.29876119      -0.21100723       0.34644703
O        0.96537036       2.21591395       9.34853346       18      -0.29876119       0.21100723       0.34644703
O        3.59154017       0.79605491       3.67256221       19      -0.29876119      -0.21100723      -0.34644703
O        0.96537036       0.79605491       2.83798563       20      -0.29876119      -0.21100723       0.34644703
O        3.59154017       2.21591395      10.18311004       21      -0.29876119       0.21100723      -0.34644703
O        4.28696924       3.80802376       3.67256221       22       0.29876119      -0.21100723      -0.34644703
O        1.66079944       5.22788280       9.34853346       23       0.29876119       0.21100723       0.34644703
O        3.57480951       3.04343564       8.08294281       24      -0.32854715      -0.17135706       0.13559015
O        0.94863971       5.99247092       4.93815287       25      -0.32854715       0.17135706      -0.13559015
O        1.67753010       0.03146679      11.44870070       26       0.32854715      -0.17135706      -0.13559015
O        4.30369990       2.98050207       1.57239497       27       0.32854715       0.17135706       0.13559015
O        1.67753010       2.98050207       4.93815287       28       0.32854715       0.17135706      -0.13559015
O        4.30369990       0.03146679       8.08294281       29       0.32854715      -0.17135706       0.13559015
O        3.57480951       5.99247092       1.57239497       30      -0.32854715       0.17135706       0.13559015
O        0.94863971       3.04343564      11.44870070       31      -0.32854715      -0.17135706      -0.13559015
O        3.63751663       3.69575966      12.61119431       32      -0.30475089      -0.09723307       0.20514288
O        1.01134683       5.34014691       0.40990136       33      -0.30475089       0.09723307      -0.20514288
O        1.61482298       0.68379080       6.92044920       34       0.30475089      -0.09723307      -0.20514288
O        4.24099278       2.32817805       6.10064647       35       0.30475089       0.09723307       0.20514288
O        1.61482298       2.32817805       0.40990136       36       0.30475089       0.09723307      -0.20514288
O        4.24099278       0.68379080      12.61119431       37       0.30475089      -0.09723307       0.20514288
O        3.63751663       5.34014691       6.10064647       38      -0.30475089       0.09723307       0.20514288
O        1.01134683       3.69575966       6.92044920       39      -0.30475089      -0.09723307      -0.20514288
40
Lattice="5.237669900186641 -4.4376699757800765e-42 0.0 4.9934517335940454e-42 6.030762899664526 0.0 0.0 0.0 13.042787631553306" Properties=species:S:1:pos:R:3:spacegroup_kinds:I:1:forces:R:3 spacegroup="P 1" unit_cell=conventional occupancy="_JSON {\"0\": {\"In\": 1}, \"1\": {\"In\": 1}, \"2\": {\"In\": 1}, \"3\": {\"In\": 1}, \"4\": {\"In\": 1}, \"5\": {\"In\": 1}, \"6\": {\"In\": 1}, \"7\": {\"In\": 1}, \"8\": {\"In\": 1}, \"9\": {\"In\": 1}, \"10\": {\"In\": 1}, \"11\": {\"In\": 1}, \"12\": {\"In\": 1}, \"13\": {\"In\": 1}, \"14\": {\"In\": 1}, \"15\": {\"In\": 1}, \"16\": {\"O\": 1}, \"17\": {\"O\": 1}, \"18\": {\"O\": 1}, \"19\": {\"O\": 1}, \"20\": {\"O\": 1}, \"21\": {\"O\": 1}, \"22\": {\"O\": 1}, \"23\": {\"O\": 1}, \"24\": {\"O\": 1}, \"25\": {\"O\": 1}, \"26\": {\"O\": 1}, \"27\": {\"O\": 1}, \"28\": {\"O\": 1}, \"29\": {\"O\": 1}, \"30\": {\"O\": 1}, \"31\": {\"O\": 1}, \"32\": {\"O\": 1}, \"33\": {\"O\": 1}, \"34\": {\"O\": 1}, \"35\": {\"O\": 1}, \"36\": {\"O\": 1}, \"37\": {\"O\": 1}, \"38\": {\"O\": 1}, \"39\": {\"O\": 1}}" n_minim_iter=3 energy=-45167.67569565906 stress="0.26751496009715686 -2.0710720044406294e-14 1.2342481711037261e-12 -2.0710720044406294e-14 0.27798444066089684 4.622763439529335e-13 1.2342481711037261e-12 4.622763439529335e-13 0.27976722697199086" free_energy=-45167.67569565906 pbc="T T T"
In       2.55956962       4.73405859       7.66855100        0      -0.25820031      -0.03152212      -0.30896450
In      -0.05926533       4.31208576       5.37423663        1      -0.25820031       0.03152212       0.30896450
In       2.67810028       1.71867714      11.89563044        2       0.25820031      -0.03152212       0.30896450
In       5.29693523       1.29670431       1.14715719        3       0.25820031       0.03152212      -0.30896450
In       2.67810028       1.29670431       5.37423663        4       0.25820031       0.03152212       0.30896450
In       5.29693523       1.71867714       7.66855100        5       0.25820031      -0.03152212      -0.30896450
In       2.55956962       4.31208576       1.14715719        6      -0.25820031       0.03152212      -0.30896450
In      -0.05926533       4.73405859      11.89563044        7      -0.25820031      -0.03152212       0.30896450
In       2.60096974       4.29772393      10.93812044        8       0.18177012      -0.02486572      -0.32879994
In       5.21980469       4.74842042       2.10466719        9       0.18177012       0.02486572       0.32879994
In       2.63670016       1.28234248       8.62606100       10      -0.18177012      -0.02486572       0.32879994
In       0.01786521       1.73303897       4.41672663       11      -0.18177012       0.02486572      -0.32879994
In       2.63670016       1.73303897       2.10466719       12      -0.18177012       0.02486572       0.32879994
In       0.01786521       1.28234248      10.93812044       13      -0.18177012      -0.02486572      -0.32879994
In       2.60096974       4.74842042       4.41672663       14       0.18177012       0.02486572      -0.32879994
In       5.21980469       4.29772393       8.62606100       15       0.18177012      -0.02486572       0.32879994
O        4.27561761       5.23425327      10.19934982       16       0.29280980       0.20449796      -0.34201758
O        1.65678266       3.81189108       2.84343781       17       0.29280980      -0.20449796       0.34201758
O        0.96205229       2.21887182       9.36483163       18      -0.29280980       0.20449796       0.34201758
O        3.58088724       0.79650963       3.67795601       19      -0.29280980      -0.20449796      -0.34201758
O        0.96205229       0.79650963       2.84343781       20      -0.29280980      -0.20449796       0.34201758
O        3.58088724       2.21887182      10.19934982       21      -0.29280980       0.20449796      -0.34201758
O        4.27561761       3.81189108       3.67795601       22       0.29280980      -0.20449796      -0.34201758
O        1.65678266       5.23425327       9.36483163       23       0.29280980       0.20449796       0.34201758
O        3.56414206       3.04651824       8.09668921       24      -0.35747098      -0.16243287       0.11514883
O        0.94530711       5.99962611       4.94609842       25      -0.35747098       0.16243287      -0.11514883
O        1.67352784       0.03113679      11.46749224       26       0.35747098      -0.16243287      -0.11514883
O        4.29236279       2.98424466       1.57529539       27       0.35747098       0.16243287       0.11514883
O        1.67352784       2.98424466       4.94609842       28       0.35747098       0.16243287      -0.11514883
O        4.29236279       0.03113679       8.09668921       29       0.35747098      -0.16243287       0.11514883
O        3.56414206       5.99962611       1.57529539       30      -0.35747098       0.16243287       0.11514883
O        0.94530711       3.04651824      11.46749224       31      -0.35747098      -0.16243287      -0.11514883
O        3.62672242       3.69973873      12.63263220       32      -0.25778162      -0.10773252       0.20646444
O        1.00788747       5.34640562       0.41015543       33      -0.25778162       0.10773252      -0.20646444
O        1.61094748       0.68435728       6.93154925       34       0.25778162      -0.10773252      -0.20646444
O        4.22978243       2.33102417       6.11123838       35       0.25778162       0.10773252       0.20646444
O        1.61094748       2.33102417       0.41015543       36       0.25778162       0.10773252      -0.20646444
O        4.22978243       0.68435728      12.63263220       37       0.25778162      -0.10773252       0.20646444
O        3.62672242       5.34640562       6.11123838       38      -0.25778162       0.10773252       0.20646444
O        1.00788747       3.69973873       6.93154925       39      -0.25778162      -0.10773252      -0.20646444
40
Lattice="5.238940082696239 -4.443699644272714e-42 0.0 4.9834222252078447e-42 6.023754127947195 0.0 0.0 0.0 13.054797297762816" Properties=species:S:1:pos:R:3:spacegroup_kinds:I:1:forces:R:3 spacegroup="P 1" unit_cell=conventional occupancy="_JSON {\"0\": {\"In\": 1}, \"1\": {\"In\": 1}, \"2\": {\"In\": 1}, \"3\": {\"In\": 1}, \"4\": {\"In\": 1}, \"5\": {\"In\": 1}, \"6\": {\"In\": 1}, \"7\": {\"In\": 1}, \"8\": {\"In\": 1}, \"9\": {\"In\": 1}, \"10\": {\"In\": 1}, \"11\": {\"In\": 1}, \"12\": {\"In\": 1}, \"13\": {\"In\": 1}, \"14\": {\"In\": 1}, \"15\": {\"In\": 1}, \"16\": {\"O\": 1}, \"17\": {\"O\": 1}, \"18\": {\"O\": 1}, \"19\": {\"O\": 1}, \"20\": {\"O\": 1}, \"21\": {\"O\": 1}, \"22\": {\"O\": 1}, \"23\": {\"O\": 1}, \"24\": {\"O\": 1}, \"25\": {\"O\": 1}, \"26\": {\"O\": 1}, \"27\": {\"O\": 1}, \"28\": {\"O\": 1}, \"29\": {\"O\": 1}, \"30\": {\"O\": 1}, \"31\": {\"O\": 1}, \"32\": {\"O\": 1}, \"33\": {\"O\": 1}, \"34\": {\"O\": 1}, \"35\": {\"O\": 1}, \"36\": {\"O\": 1}, \"37\": {\"O\": 1}, \"38\": {\"O\": 1}, \"39\": {\"O\": 1}}" n_minim_iter=4 energy=-45167.775482470555 stress="0.291951031822261 -3.6355721341452816e-14 1.0764611915870704e-13 -3.6355721341452816e-14 0.29361853688590905 2.3980187688487473e-13 1.0764611915870704e-13 2.3980187688487473e-13 0.29238164574044234" free_energy=-45167.775482470555 pbc="T T T"
In       2.55259953       4.72721579       7.66667001        0      -0.26111689      -0.04316383       0.30875307
In      -0.06687051       4.30841541       5.38812728        1      -0.26111689       0.04316383      -0.30875307
In       2.68634055       1.71533872      11.91552593        2       0.26111689      -0.04316384      -0.30875307
In       5.30581059       1.29653834       1.13927136        3       0.26111689       0.04316383       0.30875307
In       2.68634055       1.29653834       5.38812728        4       0.26111689       0.04316384      -0.30875307
In       5.30581059       1.71533872       7.66667001        5       0.26111689      -0.04316383       0.30875307
In       2.55259953       4.30841541       1.13927136        6      -0.26111689       0.04316383       0.30875307
In      -0.06687051       4.72721579      11.91552593        7      -0.26111689      -0.04316383      -0.30875307
In       2.60661640       4.29270081      10.93866524        8       0.17941196      -0.18138517       0.12819092
In       5.22608644       4.74293039       2.11613206        9       0.17941196       0.18138517      -0.12819092
In       2.63232369       1.28082374       8.64353071       10      -0.17941196      -0.18138517      -0.12819092
In       0.01285364       1.73105332       4.41126659       11      -0.17941196       0.18138517       0.12819092
In       2.63232369       1.73105332       2.11613206       12      -0.17941196       0.18138517      -0.12819092
In       0.01285364       1.28082374      10.93866524       13      -0.17941196      -0.18138517       0.12819092
In       2.60661640       4.74293039       4.41126659       14       0.17941196       0.18138517       0.12819092
In       5.22608644       4.29270081       8.64353071       15       0.17941196      -0.18138517      -0.12819092
O        4.28542372       5.23443552      10.19851364       16       0.15985010       0.03769386       0.20114545
O        1.66595368       3.80119568       2.85628366       17       0.15985010      -0.03769386      -0.20114545
O        0.95351636       2.22255845       9.38368231       18      -0.15985010       0.03769386      -0.20114545
O        3.57298640       0.78931861       3.67111499       19      -0.15985010      -0.03769386       0.20114545
O        0.95351636       0.78931861       2.85628366       20      -0.15985010      -0.03769386      -0.20114545
O        3.57298640       2.22255845      10.19851364       21      -0.15985010       0.03769386       0.20114545
O        4.28542372       3.80119568       3.67111499       22       0.15985010      -0.03769386       0.20114545
O        1.66595368       5.23443552       9.38368231       23       0.15985010       0.03769386      -0.20114545
O        3.55505244       3.03790945       8.10796746       24      -0.29790272       0.02769333      -0.02526338
O        0.93558240       5.99772174       4.94682984       25      -0.29790272      -0.02769333       0.02526338
O        1.68388764       0.02603239      11.47422848       26       0.29790272       0.02769333       0.02526338
O        4.30335768       2.98584467       1.58056881       27       0.29790272      -0.02769333      -0.02526338
O        1.68388764       2.98584467       4.94682984       28       0.29790272      -0.02769333       0.02526338
O        4.30335768       0.02603239       8.10796746       29       0.29790272       0.02769333      -0.02526338
O        3.55505244       5.99772174       1.58056881       30      -0.29790272      -0.02769333      -0.02526338
O        0.93558240       3.03790945      11.47422848       31      -0.29790272       0.02769333       0.02526338
O        3.61901724       3.69241893      12.65035478       32       0.03223468      -0.04935866      -0.21323599
O        0.99954720       5.34321226       0.40444252       33       0.03223468       0.04935866       0.21323599
O        1.61992284       0.68054187       6.93184117       34      -0.03223468      -0.04935866       0.21323599
O        4.23939289       2.33133519       6.12295613       35      -0.03223468       0.04935866      -0.21323599
O        1.61992284       2.33133519       0.40444252       36      -0.03223468       0.04935866       0.21323599
O        4.23939289       0.68054187      12.65035478       37      -0.03223468      -0.04935866      -0.21323599
O        3.61901724       5.34321226       6.12295613       38       0.03223468       0.04935866      -0.21323599
O        0.99954720       3.69241893       6.93184117       39       0.03223468      -0.04935866       0.21323599
40
Lattice="5.23852908169305 -4.43382561516126e-42 0.0 4.990409126404958e-42 6.024187750548958 0.0 0.0 0.0 13.054881780866562" Properties=species:S:1:pos:R:3:spacegroup_kinds:I:1:forces:R:3 spacegroup="P 1" unit_cell=conventional occupancy="_JSON {\"0\": {\"In\": 1}, \"1\": {\"In\": 1}, \"2\": {\"In\": 1}, \"3\": {\"In\": 1}, \"4\": {\"In\": 1}, \"5\": {\"In\": 1}, \"6\": {\"In\": 1}, \"7\": {\"In\": 1}, \"8\": {\"In\": 1}, \"9\": {\"In\": 1}, \"10\": {\"In\": 1}, \"11\": {\"In\": 1}, \"12\": {\"In\": 1}, \"13\": {\"In\": 1}, \"14\": {\"In\": 1}, \"15\": {\"In\": 1}, \"16\": {\"O\": 1}, \"17\": {\"O\": 1}, \"18\": {\"O\": 1}, \"19\": {\"O\": 1}, \"20\": {\"O\": 1}, \"21\": {\"O\": 1}, \"22\": {\"O\": 1}, \"23\": {\"O\": 1}, \"24\": {\"O\": 1}, \"25\": {\"O\": 1}, \"26\": {\"O\": 1}, \"27\": {\"O\": 1}, \"28\": {\"O\": 1}, \"29\": {\"O\": 1}, \"30\": {\"O\": 1}, \"31\": {\"O\": 1}, \"32\": {\"O\": 1}, \"33\": {\"O\": 1}, \"34\": {\"O\": 1}, \"35\": {\"O\": 1}, \"36\": {\"O\": 1}, \"37\": {\"O\": 1}, \"38\": {\"O\": 1}, \"39\": {\"O\": 1}}" n_minim_iter=5 energy=-45167.82244018676 stress="0.2982452514814911 6.097528826937834e-13 -3.8374207342485547e-16 6.097528826937834e-13 0.29817625390022945 2.4782084660320617e-13 -3.8374207342485547e-16 2.4782084660320617e-13 0.2986801408604502" free_energy=-45167.82244018676 pbc="T T T"
In       2.54202773       4.72572509       7.67067460        0       0.13679216      -0.00419506       0.00151251
In      -0.07723681       4.31055653       5.38420718        1       0.13679216       0.00419506      -0.00151251
In       2.69650135       1.71363122      11.91164808        2      -0.13679216      -0.00419506      -0.00151252
In       5.31576590       1.29846266       1.14323371        3      -0.13679216       0.00419506       0.00151252
In       2.69650135       1.29846266       5.38420718        4      -0.13679216       0.00419506      -0.00151252
In       5.31576590       1.71363122       7.67067460        5      -0.13679216      -0.00419506       0.00151251
In       2.54202773       4.31055653       1.14323371        6       0.13679216       0.00419506       0.00151252
In      -0.07723681       4.72572509      11.91164808        7       0.13679216      -0.00419506      -0.00151252
In       2.61341358       4.28829262      10.93767865        8      -0.04489928      -0.03994655       0.10066488
In       5.23267812       4.74798900       2.11720313        9      -0.04489928       0.03994655      -0.10066488
In       2.62511550       1.27619875       8.64464402       10       0.04489928      -0.03994655      -0.10066488
In       0.00585096       1.73589513       4.41023776       11       0.04489928       0.03994655       0.10066488
In       2.62511550       1.73589513       2.11720313       12       0.04489928       0.03994655      -0.10066488
In       0.00585096       1.27619875      10.93767865       13       0.04489928      -0.03994655       0.10066488
In       2.61341358       4.74798900       4.41023776       14      -0.04489928       0.03994655       0.10066488
In       5.23267812       4.28829262       8.64464402       15      -0.04489928      -0.03994655      -0.10066488
O        4.29333546       5.23876749      10.19907643       16       0.04376053      -0.05812904      -0.00120027
O        1.67407091       3.79751414       2.85580535       17       0.04376053       0.05812904       0.00120027
O        0.94519363       2.22667361       9.38324624       18      -0.04376053      -0.05812904       0.00120027
O        3.56445817       0.78542026       3.67163554       19      -0.04376053       0.05812904      -0.00120027
O        0.94519363       0.78542026       2.85580535       20      -0.04376053       0.05812904       0.00120027
O        3.56445817       2.22667361      10.19907643       21      -0.04376053      -0.05812904      -0.00120027
O        4.29333546       3.79751414       3.67163554       22       0.04376053       0.05812904      -0.00120027
O        1.67407091       5.23876749       9.38324624       23       0.04376053      -0.05812904       0.00120027
O        3.54243179       3.03641296       8.10912241       24      -0.11349017       0.02553922      -0.06885768
O        0.92316725       5.99986866       4.94575938       25      -0.11349017      -0.02553922       0.06885768
O        1.69609729       0.02431909      11.47320027       26       0.11349017       0.02553922       0.06885768
O        4.31536183       2.98777479       1.58168151       27       0.11349017      -0.02553922      -0.06885768
O        1.69609729       2.98777479       4.94575938       28       0.11349017      -0.02553922       0.06885768
O        4.31536183       0.02431909       8.10912241       29       0.11349017       0.02553922      -0.06885768
O        3.54243179       5.99986866       1.58168151       30      -0.11349017      -0.02553922      -0.06885768
O        0.92316725       3.03641296      11.47320027       31      -0.11349017       0.02553922       0.06885768
O        3.61553198       3.68992091      12.64766763       32      -0.08646708      -0.03752613       0.09735361
O        0.99626744       5.34636072       0.40721415       33      -0.08646708       0.03752613      -0.09735361
O        1.62299710       0.67782703       6.93465504       34       0.08646708      -0.03752613      -0.09735361
O        4.24226165       2.33426685       6.12022674       35       0.08646708       0.03752613       0.09735361
O        1.62299710       2.33426685       0.40721415       36       0.08646708       0.03752613      -0.09735361
O        4.24226165       0.67782703      12.64766763       37       0.08646708      -0.03752613       0.09735361
O        3.61553198       5.34636072       6.12022674       38      -0.08646708       0.03752613       0.09735361
O        0.99626744       3.68992091       6.93465504       39      -0.08646708      -0.03752613      -0.09735361
40