40
Lattice="5.653230088164244 1.696822436056273e-43 0.0 -1.870369847308933e-43 6.231430509238836 0.0 0.0 0.0 16.976462686669798" Properties=species:S:1:pos:R:3:spacegroup_kinds:I:1:forces:R:3 spacegroup="P 1" unit_cell=conventional occupancy="_JSON {\"0\": {\"In\": 1}, \"1\": {\"In\": 1}, \"2\": {\"In\": 1}, \"3\": {\"In\": 1}, \"4\": {\"In\": 1}, \"5\": {\"In\": 1}, \"6\": {\"In\": 1}, \"7\": {\"In\": 1}, \"8\": {\"In\": 1}, \"9\": {\"In\": 1}, \"10\": {\"In\": 1}, \"11\": {\"In\": 1}, \"12\": {\"In\": 1}, \"13\": {\"In\": 1}, \"14\": {\"In\": 1}, \"15\": {\"In\": 1}, \"16\": {\"O\": 1}, \"17\": {\"O\": 1}, \"18\": {\"O\": 1}, \"19\": {\"O\": 1}, \"20\": {\"O\": 1}, \"21\": {\"O\": 1}, \"22\": {\"O\": 1}, \"23\": {\"O\": 1}, \"24\": {\"O\": 1}, \"25\": {\"O\": 1}, \"26\": {\"O\": 1}, \"27\": {\"O\": 1}, \"28\": {\"O\": 1}, \"29\": {\"O\": 1}, \"30\": {\"O\": 1}, \"31\": {\"O\": 1}, \"32\": {\"O\": 1}, \"33\": {\"O\": 1}, \"34\": {\"O\": 1}, \"35\": {\"O\": 1}, \"36\": {\"O\": 1}, \"37\": {\"O\": 1}, \"38\": {\"O\": 1}, \"39\": {\"O\": 1}}" n_minim_iter=1 energy=-45148.747401352986 stress="0.051174755903130656 -2.0936614804335255e-13 -3.9168977119738523e-13 -2.0936614804335255e-13 0.04573036492949299 -1.7758796271266297e-14 -3.9168977119738523e-13 -1.7758796271266297e-14 0.047298726435133304" free_energy=-45148.747401352986 pbc="T T T"
In       2.76790991       5.13651499       9.78560076        0      -0.00185890       0.16161166       0.15809795
In      -0.05870514       4.21063078       7.19086193        1      -0.00185890      -0.16161166      -0.15809795
In       2.88532018       2.02079973      15.67909327        2       0.00185890       0.16161166      -0.15809795
In       5.71193522       1.09491552       1.29736941        3       0.00185890      -0.16161166       0.15809795
In       2.88532018       1.09491552       7.19086193        4       0.00185890      -0.16161166      -0.15809795
In       5.71193522       2.02079973       9.78560076        5       0.00185890       0.16161166       0.15809795
In       2.76790991       4.21063078       1.29736941        6      -0.00185890      -0.16161166       0.15809795
In      -0.05870514       5.13651499      15.67909327        7      -0.00185890       0.16161166      -0.15809795
In       2.71611349       4.75457590      13.84939668        8      -0.06217444      -0.00090729      -0.01651871
In       5.54272853       4.59256986       3.12706600        9      -0.06217444       0.00090729       0.01651871
In       2.93711660       1.63886065      11.61529735       10       0.06217444      -0.00090729       0.01651871
In       0.11050156       1.47685461       5.36116534       11       0.06217444       0.00090729      -0.01651871
In       2.93711660       1.47685461       3.12706600       12       0.06217444       0.00090729       0.01651871
In       0.11050156       1.63886065      13.84939668       13       0.06217444      -0.00090729      -0.01651871
In       2.71611349       4.59256986       5.36116534       14      -0.06217444       0.00090729      -0.01651871
In       5.54272853       4.75457590      11.61529735       15      -0.06217444      -0.00090729       0.01651871
O        4.74088981       5.56108031      13.55301199       16       0.20992922      -0.05046652       0.03818166
O        1.91427477       3.78606545       3.42345070       17       0.20992922       0.05046652      -0.03818166
O        0.91234027       2.44536506      11.91168204       18      -0.20992922      -0.05046652      -0.03818166
O        3.73895532       0.67035019       5.06478064       19      -0.20992922       0.05046652       0.03818166
O        0.91234027       0.67035019       3.42345070       20      -0.20992922       0.05046652      -0.03818166
O        3.73895532       2.44536506      13.55301199       21      -0.20992922      -0.05046652       0.03818166
O        4.74088981       3.78606545       5.06478064       22       0.20992922       0.05046652       0.03818166
O        1.91427477       5.56108031      11.91168204       23       0.20992922      -0.05046652      -0.03818166
O        3.91822918       3.47764054      10.77252746       24       0.09782776       0.07475087       0.08811379
O        1.09161414       5.86950522       6.20393523       25       0.09782776      -0.07475087      -0.08811379
O        1.73500091       0.36192528      14.69216657       26      -0.09782776       0.07475087      -0.08811379
O        4.56161595       2.75378997       2.28429612       27      -0.09782776      -0.07475087       0.08811379
O        1.73500091       2.75378997       6.20393523       28      -0.09782776      -0.07475087      -0.08811379
O        4.56161595       0.36192528      10.77252746       29      -0.09782776       0.07475087       0.08811379
O        3.91822918       5.86950522       2.28429612       30       0.09782776      -0.07475087       0.08811379
O        1.09161414       3.47764054      14.69216657       31       0.09782776       0.07475087      -0.08811379
O        3.54915117       4.20753744      16.06362611       32       0.03909057      -0.03150320      -0.06892056
O        0.72253613       5.13960832       0.91283658       33       0.03909057       0.03150320       0.06892056
O        2.10407891       1.09182219       9.40106792       34      -0.03909057      -0.03150320       0.06892056
O        4.93069396       2.02389307       7.57539476       35      -0.03909057       0.03150320      -0.06892056
O        2.10407891       2.02389307       0.91283658       36      -0.03909057       0.03150320       0.06892056
O        4.93069396       1.09182219      16.06362611       37      -0.03909057      -0.03150320      -0.06892056
O        3.54915117       5.13960832       7.57539476       38       0.03909057       0.03150320      -0.06892056
O        0.72253613       4.20753744       9.40106792       39       0.03909057      -0.03150320       0.06892056
40
Lattice="5.633438127073072 1.6262803319115683e-43 0.0 -1.906491817941554e-43 6.247895724308446 0.0 0.0 0.0 16.991210482036053" Properties=species:S:1:pos:R:3:spacegroup_kinds:I:1:forces:R:3 spacegroup="P 1" unit_cell=conventional occupancy="_JSON {\"0\": {\"In\": 1}, \"1\": {\"In\": 1}, \"2\": {\"In\": 1}, \"3\": {\"In\": 1}, \"4\": {\"In\": 1}, \"5\": {\"In\": 1}, \"6\": {\"In\": 1}, \"7\": {\"In\": 1}, \"8\": {\"In\": 1}, \"9\": {\"In\": 1}, \"10\": {\"In\": 1}, \"11\": {\"In\": 1}, \"12\": {\"In\": 1}, \"13\": {\"In\": 1}, \"14\": {\"In\": 1}, \"15\": {\"In\": 1}, \"16\": {\"O\": 1}, \"17\": {\"O\": 1}, \"18\": {\"O\": 1}, \"19\": {\"O\": 1}, \"20\": {\"O\": 1}, \"21\": {\"O\": 1}, \"22\": {\"O\": 1}, \"23\": {\"O\": 1}, \"24\": {\"O\": 1}, \"25\": {\"O\": 1}, \"26\": {\"O\": 1}, \"27\": {\"O\": 1}, \"28\": {\"O\": 1}, \"29\": {\"O\": 1}, \"30\": {\"O\": 1}, \"31\": {\"O\": 1}, \"32\": {\"O\": 1}, \"33\": {\"O\": 1}, \"34\": {\"O\": 1}, \"35\": {\"O\": 1}, \"36\": {\"O\": 1}, \"37\": {\"O\": 1}, \"38\": {\"O\": 1}, \"39\": {\"O\": 1}}" n_minim_iter=2 energy=-45148.75399786748 stress="0.04676780344796355 -4.3493169104836104e-13 5.237741252310983e-13 -4.3493169104836104e-13 0.04764344050744808 -2.9830158937562725e-13 5.237741252310983e-13 -2.9830158937562725e-13 0.046930050969220725" free_energy=-45148.75399786748 pbc="T T T"
In       2.75821596       5.15039298       9.79440039        0       0.01539173       0.18581623       0.15597569
In      -0.05850311       4.22145060       7.19681009        1       0.01539173      -0.18581623      -0.15597569
In       2.87522217       2.02644512      15.69241534        2      -0.01539173       0.18581623      -0.15597569
In       5.69194123       1.09750274       1.29879515        3      -0.01539173      -0.18581623       0.15597569
In       2.87522217       1.09750274       7.19681009        4      -0.01539173      -0.18581623      -0.15597569
In       5.69194123       2.02644512       9.79440039        5      -0.01539173       0.18581623       0.15597569
In       2.75821596       4.22145060       1.29879515        6       0.01539173      -0.18581623       0.15597569
In      -0.05850311       5.15039298      15.69241534        7       0.01539173       0.18581623      -0.15597569
In       2.70648742       4.76713713      13.86139673        8      -0.07652599       0.00577694      -0.01718973
In       5.52320649       4.60470646       3.12981376        9      -0.07652599      -0.00577694       0.01718973
In       2.92695070       1.64318927      11.62541900       10       0.07652599       0.00577694       0.01718973
In       0.11023164       1.48075860       5.36579149       11       0.07652599      -0.00577694      -0.01718973
In       2.92695070       1.48075860       3.12981376       12       0.07652599      -0.00577694       0.01718973
In       0.11023164       1.64318927      13.86139673       13       0.07652599       0.00577694      -0.01718973
In       2.70648742       4.60470646       5.36579149       14      -0.07652599      -0.00577694      -0.01718973
In       5.52320649       4.76713713      11.62541900       15      -0.07652599       0.00577694       0.01718973
O        4.72468683       5.57567876      13.56485789       16       0.19782396      -0.05392101       0.00611310
O        1.90796777       3.79616482       3.42635259       17       0.19782396       0.05392101      -0.00611310
O        0.90875130       2.45173090      11.92195783       18      -0.19782396      -0.05392101      -0.00611310
O        3.72547036       0.67221696       5.06925265       19      -0.19782396       0.05392101       0.00611310
O        0.90875130       0.67221696       3.42635259       20      -0.19782396       0.05392101      -0.00611310
O        3.72547036       2.45173090      13.56485789       21      -0.19782396      -0.05392101       0.00611310
O        4.72468683       3.79616482       5.06925265       22       0.19782396       0.05392101       0.00611310
O        1.90796777       5.57567876      11.92195783       23       0.19782396      -0.05392101      -0.00611310
O        3.90469547       3.48697093      10.78205224       24       0.05870504       0.05669280       0.10862664
O        1.08797641       5.88487266       6.20915824       25       0.05870504      -0.05669280      -0.10862664
O        1.72874265       0.36302307      14.70476348       26      -0.05870504       0.05669280      -0.10862664
O        4.54546172       2.76092480       2.28644700       27      -0.05870504      -0.05669280       0.10862664
O        1.72874265       2.76092480       6.20915824       28      -0.05870504      -0.05669280      -0.10862664
O        4.54546172       0.36302307      10.78205224       29      -0.05870504       0.05669280       0.10862664
O        3.90469547       5.88487266       2.28644700       30       0.05870504      -0.05669280       0.10862664
O        1.08797641       3.48697093      14.70476348       31       0.05870504       0.05669280      -0.10862664
O        3.53679912       4.21859533      16.07745069       32       0.03803972      -0.03799552      -0.06948144
O        0.72008006       5.15324825       0.91375979       33       0.03803972       0.03799552       0.06948144
O        2.09663900       1.09464747       9.40936503       34      -0.03803972      -0.03799552       0.06948144
O        4.91335807       2.02930039       7.58184545       35      -0.03803972       0.03799552      -0.06948144
O        2.09663900       2.02930039       0.91375979       36      -0.03803972       0.03799552       0.06948144
O        4.91335807       1.09464747      16.07745069       37      -0.03803972      -0.03799552      -0.06948144
O        3.53679912       5.15324825       7.58184545       38       0.03803972       0.03799552      -0.06948144
O        0.72008006       4.21859533       9.40936503       39       0.03803972      -0.03799552       0.06948144
40
Lattice="5.6193163320527 1.5875756614221906e-43 0.0 -1.908730861149241e-43 6.227532681710878 0.0 0.0 0.0 17.089608946240524" Properties=species:S:1:pos:R:3:spacegroup_kinds:I:1:forces:R:3 spacegroup="P 1" unit_cell=conventional occupancy="_JSON {\"0\": {\"In\": 1}, \"1\": {\"In\": 1}, \"2\": {\"In\": 1}, \"3\": {\"In\": 1}, \"4\": {\"In\": 1}, \"5\": {\"In\": 1}, \"6\": {\"In\": 1}, \"7\": {\"In\": 1}, \"8\": {\"In\": 1}, \"9\": {\"In\": 1}, \"10\": {\"In\": 1}, \"11\": {\"In\": 1}, \"12\": {\"In\": 1}, \"13\": {\"In\": 1}, \"14\": {\"In\": 1}, \"15\": {\"In\": 1}, \"16\": {\"O\": 1}, \"17\": {\"O\": 1}, \"18\": {\"O\": 1}, \"19\": {\"O\": 1}, \"20\": {\"O\": 1}, \"21\": {\"O\": 1}, \"22\": {\"O\": 1}, \"23\": {\"O\": 1}, \"24\": {\"O\": 1}, \"25\": {\"O\": 1}, \"26\": {\"O\": 1}, \"27\": {\"O\": 1}, \"28\": {\"O\": 1}, \"29\": {\"O\": 1}, \"30\": {\"O\": 1}, \"31\": {\"O\": 1}, \"32\": {\"O\": 1}, \"33\": {\"O\": 1}, \"34\": {\"O\": 1}, \"35\": {\"O\": 1}, \"36\": {\"O\": 1}, \"37\": {\"O\": 1}, \"38\": {\"O\": 1}, \"39\": {\"O\": 1}}" n_minim_iter=3 energy=-45148.77409906328 stress="0.041845942600534966 5.337425981027829e-13 1.4985410324274933e-13 5.337425981027829e-13 0.040826866516340744 -1.9866930480997128e-13 1.4985410324274933e-13 -1.9866930480997128e-13 0.04830326684849393" free_energy=-45148.77409906328 pbc="T T T"
In       2.75178031       5.14035610       9.85692985        0       0.01856354       0.13375517       0.13295515
In      -0.05787786       4.20094292       7.23267909        1       0.01856354      -0.13375517      -0.13295515
In       2.86753602       2.02658976      15.77748357        2      -0.01856354       0.13375517      -0.13295515
In       5.67719419       1.08717658       1.31212538        3      -0.01856354      -0.13375517       0.13295515
In       2.86753602       1.08717658       7.23267909        4      -0.01856354      -0.13375517      -0.13295515
In       5.67719419       2.02658976       9.85692985        5      -0.01856354       0.13375517       0.13295515
In       2.75178031       4.20094292       1.31212538        6       0.01856354      -0.13375517       0.13295515
In      -0.05787786       5.14035610      15.77748357        7       0.01856354       0.13375517      -0.13295515
In       2.69697458       4.75178086      13.94103431        8       0.01173432       0.02185694      -0.11580905
In       5.50663275       4.58951817       3.14857463        9       0.01173432      -0.02185694       0.11580905
In       2.92234175       1.63801452      11.69337911       10      -0.01173432       0.02185694       0.11580905
In       0.11268358       1.47575182       5.39622984       11      -0.01173432      -0.02185694      -0.11580905
In       2.92234175       1.47575182       3.14857463       12      -0.01173432      -0.02185694       0.11580905
In       0.11268358       1.63801452      13.94103431       13      -0.01173432       0.02185694      -0.11580905
In       2.69697458       4.58951817       5.39622984       14       0.01173432      -0.02185694      -0.11580905
In       5.50663275       4.75178086      11.69337911       15       0.01173432       0.02185694       0.11580905
O        4.72013609       5.55553056      13.64379972       16       0.08843699      -0.01616320      -0.03490355
O        1.91047793       3.78576846       3.44580923       17       0.08843699       0.01616320       0.03490355
O        0.89918024       2.44176422      11.99061370       18      -0.08843699      -0.01616320       0.03490355
O        3.70883841       0.67200212       5.09899525       19      -0.08843699       0.01616320      -0.03490355
O        0.89918024       0.67200212       3.44580923       20      -0.08843699       0.01616320       0.03490355
O        3.70883841       2.44176422      13.64379972       21      -0.08843699      -0.01616320      -0.03490355
O        4.72013609       3.78576846       5.09899525       22       0.08843699       0.01616320      -0.03490355
O        1.91047793       5.55553056      11.99061370       23       0.08843699      -0.01616320       0.03490355
O        3.89724500       3.47779036      10.84842924       24       0.03067749       0.02656374       0.07446530
O        1.08758683       5.86350867       6.24117971       25       0.03067748      -0.02656374      -0.07446530
O        1.72207134       0.36402402      14.78598418       26      -0.03067749       0.02656374      -0.07446530
O        4.53172950       2.74974233       2.30362476       27      -0.03067749      -0.02656374       0.07446530
O        1.72207134       2.74974233       6.24117971       28      -0.03067748      -0.02656374      -0.07446530
O        4.53172950       0.36402402      10.84842924       29      -0.03067748       0.02656374       0.07446530
O        3.89724500       5.86350867       2.30362476       30       0.03067749      -0.02656374       0.07446530
O        1.08758683       3.47779036      14.78598418       31       0.03067749       0.02656374      -0.07446530
O        3.52932929       4.20347366      16.16797732       32       0.03909574       0.01656235      -0.07375527
O        0.71967112       5.13782536       0.92163162       33       0.03909574      -0.01656235       0.07375527
O        2.08998705       1.08970732       9.46643610       34      -0.03909574       0.01656235       0.07375527
O        4.89964521       2.02405902       7.62317285       35      -0.03909574      -0.01656235      -0.07375527
O        2.08998705       2.02405902       0.92163162       36      -0.03909574      -0.01656235       0.07375527
O        4.89964521       1.08970732      16.16797732       37      -0.03909574       0.01656235      -0.07375527
O        3.52932929       5.13782536       7.62317285       38       0.03909574      -0.01656235      -0.07375527
O        0.71967112       4.20347366       9.46643610       39       0.03909574       0.01656235       0.07375527
40
Lattice="5.625290595504841 1.5888813588228252e-43 0.0 -1.8931263590855473e-43 6.2490690527971315 0.0 0.0 0.0 17.012625231122545" Properties=species:S:1:pos:R:3:spacegroup_kinds:I:1:forces:R:3 spacegroup="P 1" unit_cell=conventional occupancy="_JSON {\"0\": {\"In\": 1}, \"1\": {\"In\": 1}, \"2\": {\"In\": 1}, \"3\": {\"In\": 1}, \"4\": {\"In\": 1}, \"5\": {\"In\": 1}, \"6\": {\"In\": 1}, \"7\": {\"In\": 1}, \"8\": {\"In\": 1}, \"9\": {\"In\": 1}, \"10\": {\"In\": 1}, \"11\": {\"In\": 1}, \"12\": {\"In\": 1}, \"13\": {\"In\": 1}, \"14\": {\"In\": 1}, \"15\": {\"In\": 1}, \"16\": {\"O\": 1}, \"17\": {\"O\": 1}, \"18\": {\"O\": 1}, \"19\": {\"O\": 1}, \"20\": {\"O\": 1}, \"21\": {\"O\": 1}, \"22\": {\"O\": 1}, \"23\": {\"O\": 1}, \"24\": {\"O\": 1}, \"25\": {\"O\": 1}, \"26\": {\"O\": 1}, \"27\": {\"O\": 1}, \"28\": {\"O\": 1}, \"29\": {\"O\": 1}, \"30\": {\"O\": 1}, \"31\": {\"O\": 1}, \"32\": {\"O\": 1}, \"33\": {\"O\": 1}, \"34\": {\"O\": 1}, \"35\": {\"O\": 1}, \"36\": {\"O\": 1}, \"37\": {\"O\": 1}, \"38\": {\"O\": 1}, \"39\": {\"O\": 1}}" n_minim_iter=4 energy=-45148.80251876165 stress="0.03863668916031395 2.991969456275621e-13 -4.018217955635658e-13 2.991969456275621e-13 0.03985795735782402 -3.1644522361294405e-14 -4.018217955635658e-13 -3.1644522361294405e-14 0.03936559140416712" free_energy=-45148.80251876165 pbc="T T T"
In       2.75544309       5.16802774       9.82106858        0       0.02423227       0.02744679       0.06057097
In      -0.05720220       4.20557584       7.19155665        1       0.02423227      -0.02744679      -0.06057097
In       2.86984750       2.04349321      15.69786927        2      -0.02423227       0.02744679      -0.06057097
In       5.68249280       1.08104131       1.31475596        3      -0.02423227      -0.02744679       0.06057097
In       2.86984750       1.08104131       7.19155665        4      -0.02423227      -0.02744679      -0.06057097
In       5.68249280       2.04349321       9.82106858        5      -0.02423227       0.02744679       0.06057097
In       2.75544309       4.20557584       1.31475596        6       0.02423227      -0.02744679       0.06057097
In      -0.05720220       5.16802774      15.69786927        7       0.02423227       0.02744679      -0.06057097
In       2.69614787       4.76856000      13.87683958        8       0.12806911       0.06987192      -0.08954767
In       5.50879317       4.60504358       3.13578565        9       0.12806911      -0.06987192       0.08954767
In       2.92914273       1.64402547      11.64209826       10      -0.12806911       0.06987192       0.08954767
In       0.11649743       1.48050905       5.37052697       11      -0.12806911      -0.06987192      -0.08954767
In       2.92914273       1.48050905       3.13578565       12      -0.12806911      -0.06987192       0.08954767
In       0.11649743       1.64402547      13.87683958       13      -0.12806911       0.06987192      -0.08954767
In       2.69614787       4.60504358       5.37052697       14       0.12806911      -0.06987192      -0.08954767
In       5.50879317       4.76856000      11.64209826       15       0.12806911       0.06987192       0.08954767
O        4.73557152       5.57194901      13.58271289       16      -0.07285050      -0.03088248      -0.06870176
O        1.92292622       3.80165457       3.42991234       17      -0.07285050       0.03088248       0.06870176
O        0.88971908       2.44741448      11.93622496       18       0.07285050      -0.03088248       0.06870176
O        3.70236438       0.67712004       5.07640027       19       0.07285050       0.03088248      -0.06870176
O        0.88971908       0.67712004       3.42991234       20       0.07285050       0.03088248       0.06870176
O        3.70236438       2.44741448      13.58271289       21       0.07285050      -0.03088248      -0.06870176
O        4.73557152       3.80165457       5.07640027       22      -0.07285050       0.03088248      -0.06870176
O        1.92292622       5.57194901      11.93622496       23      -0.07285050      -0.03088248       0.06870176
O        3.90474427       3.49294880      10.80527377       24      -0.04003288       0.02870025       0.02847767
O        1.09209897       5.88065478       6.20735146       25      -0.04003288      -0.02870025      -0.02847767
O        1.72054632       0.36841427      14.71366408       26       0.04003288       0.02870025      -0.02847767
O        4.53319162       2.75612025       2.29896115       27       0.04003288      -0.02870025       0.02847767
O        1.72054632       2.75612025       6.20735146       28       0.04003288      -0.02870025      -0.02847767
O        4.53319162       0.36841427      10.80527377       29       0.04003288       0.02870025       0.02847767
O        3.90474427       5.88065478       2.29896115       30      -0.04003288      -0.02870025       0.02847767
O        1.09209897       3.49294880      14.71366408       31      -0.04003288       0.02870025      -0.02847767
O        3.53517423       4.21619584      16.09128491       32       0.06378023       0.04665523      -0.05547773
O        0.72252893       5.15740774       0.92134032       33       0.06378023      -0.04665523       0.05547773
O        2.09011637       1.09166131       9.42765293       34      -0.06378023       0.04665523       0.05547773
O        4.90276167       2.03287322       7.58497230       35      -0.06378023      -0.04665523      -0.05547773
O        2.09011637       2.03287322       0.92134032       36      -0.06378023      -0.04665523       0.05547773
O        4.90276167       1.09166131      16.09128491       37      -0.06378023       0.04665523      -0.05547773
O        3.53517423       5.15740774       7.58497230       38       0.06378023      -0.04665523      -0.05547773
O        0.72252893       4.21619584       9.42765293       39       0.06378023       0.04665523       0.05547773
40
Lattice="5.637407859934553 -2.1462739606478836e-43 0.0 -4.742168933535269e-43 6.234228749394982 0.0 0.0 0.0 17.016468378420953" Properties=species:S:1:pos:R:3:spacegroup_kinds:I:1:forces:R:3 spacegroup="P 1" unit_cell=conventional occupancy="_JSON {\"0\": {\"In\": 1}, \"1\": {\"In\": 1}, \"2\": {\"In\": 1}, \"3\": {\"In\": 1}, \"4\": {\"In\": 1}, \"5\": {\"In\": 1}, \"6\": {\"In\": 1}, \"7\": {\"In\": 1}, \"8\": {\"In\": 1}, \"9\": {\"In\": 1}, \"10\": {\"In\": 1}, \"11\": {\"In\": 1}, \"12\": {\"In\": 1}, \"13\": {\"In\": 1}, \"14\": {\"In\": 1}, \"15\": {\"In\": 1}, \"16\": {\"O\": 1}, \"17\": {\"O\": 1}, \"18\": {\"O\": 1}, \"19\": {\"O\": 1}, \"20\": {\"O\": 1}, \"21\": {\"O\": 1}, \"22\": {\"O\": 1}, \"23\": {\"O\": 1}, \"24\": {\"O\": 1}, \"25\": {\"O\": 1}, \"26\": {\"O\": 1}, \"27\": {\"O\": 1}, \"28\": {\"O\": 1}, \"29\": {\"O\": 1}, \"30\": {\"O\": 1}, \"31\": {\"O\": 1}, \"32\": {\"O\": 1}, \"33\": {\"O\": 1}, \"34\": {\"O\": 1}, \"35\": {\"O\": 1}, \"36\": {\"O\": 1}, \"37\": {\"O\": 1}, \"38\": {\"O\": 1}, \"39\": {\"O\": 1}}" n_minim_iter=5 energy=-45148.82594502222 stress="0.03961212018171725 -4.228762194239823e-15 -2.5450311177153146e-13 -4.228762194239823e-15 0.03520925883713963 -6.031300158040271e-14 -2.5450311177153146e-13 -6.031300158040271e-14 0.03604132996986955" free_energy=-45148.82594502222 pbc="T T T"
In       2.76338642       5.16395601       9.83334302        0       0.02096560      -0.02778408       0.02116579
In      -0.05531751       4.18738711       7.18312536        1       0.02096560       0.02778408      -0.02116579
In       2.87402144       2.04684164      15.69135955        2      -0.02096560      -0.02778408      -0.02116579
In       5.69272537       1.07027273       1.32510883        3      -0.02096560       0.02778408       0.02116579
In       2.87402144       1.07027273       7.18312536        4      -0.02096560       0.02778408      -0.02116579
In       5.69272537       2.04684164       9.83334302        5      -0.02096560      -0.02778408       0.02116579
In       2.76338642       4.18738711       1.32510883        6       0.02096560       0.02778408       0.02116579
In      -0.05531751       5.16395601      15.69135955        7       0.02096560      -0.02778408      -0.02116579
In       2.70884170       4.76244341      13.87262769        8       0.06848896       0.03674837      -0.03079791
In       5.52754563       4.58889972       3.14384069        9       0.06848896      -0.03674837       0.03079791
In       2.92856616       1.64532903      11.65207488       10      -0.06848896       0.03674837       0.03079791
In       0.10986223       1.47178534       5.36439350       11      -0.06848896      -0.03674837      -0.03079791
In       2.92856616       1.47178534       3.14384069       12      -0.06848896      -0.03674837       0.03079791
In       0.10986223       1.64532903      13.87262769       13      -0.06848896       0.03674837      -0.03079791
In       2.70884170       4.58889972       5.36439350       14       0.06848896      -0.03674837      -0.03079791
In       5.52754563       4.76244341      11.65207488       15       0.06848896       0.03674837       0.03079791
O        4.74763079       5.55465982      13.58146495       16      -0.07317508       0.03600593      -0.02993269
O        1.92892686       3.79668330       3.43500343       17      -0.07317508      -0.03600593       0.02993269
O        0.88977707       2.43754545      11.94323762       18       0.07317508       0.03600593       0.02993269
O        3.70848100       0.67956893       5.07323076       19       0.07317508      -0.03600593      -0.02993269
O        0.88977707       0.67956893       3.43500343       20       0.07317508      -0.03600593       0.02993269
O        3.70848100       2.43754545      13.58146495       21       0.07317508       0.03600593      -0.02993269
O        4.74763079       3.79668330       5.07323076       22      -0.07317508      -0.03600593      -0.02993269
O        1.92892686       5.55465982      11.94323762       23      -0.07317508       0.03600593       0.02993269
O        3.91300083       3.48903851      10.81330235       24       0.03552890       0.03467158       0.03542784
O        1.09429690       5.86230461       6.20316603       25       0.03552890      -0.03467158      -0.03542784
O        1.72440703       0.37192414      14.71140022       26      -0.03552890       0.03467158      -0.03542784
O        4.54311096       2.74519024       2.30506816       27      -0.03552890      -0.03467158       0.03542784
O        1.72440703       2.74519024       6.20316603       28      -0.03552890      -0.03467158      -0.03542784
O        4.54311096       0.37192414      10.81330235       29      -0.03552890       0.03467158       0.03542784
O        3.91300083       5.86230461       2.30506816       30       0.03552890      -0.03467158       0.03542784
O        1.09429690       3.48903851      14.71140022       31       0.03552890       0.03467158      -0.03542784
O        3.54876394       4.20842753      16.08836077       32       0.05280273       0.07553585      -0.08747846
O        0.73006001       5.14291559       0.92810761       33       0.05280273      -0.07553585       0.08747846
O        2.08864392       1.09131316       9.43634180       34      -0.05280273       0.07553585       0.08747846
O        4.90734785       2.02580122       7.58012658       35      -0.05280273      -0.07553585      -0.08747846
O        2.08864392       2.02580122       0.92810761       36      -0.05280273      -0.07553585       0.08747846
O        4.90734785       1.09131316      16.08836077       37      -0.05280273       0.07553585      -0.08747846
O        3.54876394       5.14291559       7.58012658       38       0.05280273      -0.07553585      -0.08747846
O        0.73006001       4.20842753       9.43634180       39       0.05280273       0.07553585       0.08747846
40