40
Lattice="5.571887744949138 -1.9492014215792724e-42 0.0 2.631528937407287e-42 5.831921683705198 0.0 0.0 0.0 14.723381548882823" Properties=species:S:1:pos:R:3:spacegroup_kinds:I:1:forces:R:3 spacegroup="P 1" unit_cell=conventional occupancy="_JSON {\"0\": {\"In\": 1}, \"1\": {\"In\": 1}, \"2\": {\"In\": 1}, \"3\": {\"In\": 1}, \"4\": {\"In\": 1}, \"5\": {\"In\": 1}, \"6\": {\"In\": 1}, \"7\": {\"In\": 1}, \"8\": {\"In\": 1}, \"9\": {\"In\": 1}, \"10\": {\"In\": 1}, \"11\": {\"In\": 1}, \"12\": {\"In\": 1}, \"13\": {\"In\": 1}, \"14\": {\"In\": 1}, \"15\": {\"In\": 1}, \"16\": {\"O\": 1}, \"17\": {\"O\": 1}, \"18\": {\"O\": 1}, \"19\": {\"O\": 1}, \"20\": {\"O\": 1}, \"21\": {\"O\": 1}, \"22\": {\"O\": 1}, \"23\": {\"O\": 1}, \"24\": {\"O\": 1}, \"25\": {\"O\": 1}, \"26\": {\"O\": 1}, \"27\": {\"O\": 1}, \"28\": {\"O\": 1}, \"29\": {\"O\": 1}, \"30\": {\"O\": 1}, \"31\": {\"O\": 1}, \"32\": {\"O\": 1}, \"33\": {\"O\": 1}, \"34\": {\"O\": 1}, \"35\": {\"O\": 1}, \"36\": {\"O\": 1}, \"37\": {\"O\": 1}, \"38\": {\"O\": 1}, \"39\": {\"O\": 1}}" n_minim_iter=48 energy=-45151.761947443585 stress="0.07543320314355156 1.0693760054152644e-12 -1.8244363132723618e-13 1.0693760054152644e-12 0.07528106276050979 6.09424568291148e-13 -1.8244363132723618e-13 6.09424568291148e-13 0.07515217084846113" free_energy=-45151.761947443585 pbc="T T T"
In       2.81599877       4.66266189       8.40733387        0      -0.00137043       0.00077750       0.00180450
In       0.03005490       4.08522064       6.31604767        1      -0.00137043      -0.00077750      -0.00180450
In       2.75588897       1.74670105      13.67773845        2       0.00137043       0.00077750      -0.00180450
In       5.54183285       1.16925979       1.04564310        3       0.00137043      -0.00077750       0.00180450
In       2.75588897       1.16925979       6.31604767        4       0.00137043      -0.00077750      -0.00180450
In       5.54183285       1.74670105       8.40733387        5       0.00137043       0.00077750       0.00180450
In       2.81599877       4.08522064       1.04564310        6      -0.00137043      -0.00077750       0.00180450
In       0.03005490       4.66266189      13.67773845        7      -0.00137043       0.00077750      -0.00180450
In       2.83705591       4.28863572      11.93310215        8       0.00243165      -0.00169195       0.00345717
In       5.62299978       4.45924681       2.79027940        9       0.00243165       0.00169195      -0.00345717
In       2.73483184       1.37267488      10.15197017       10      -0.00243165      -0.00169195      -0.00345717
In      -0.05111204       1.54328597       4.57141138       11      -0.00243165       0.00169195       0.00345717
In       2.73483184       1.54328597       2.79027940       12      -0.00243165       0.00169195      -0.00345717
In      -0.05111204       1.37267488      11.93310215       13      -0.00243165      -0.00169195       0.00345717
In       2.83705591       4.45924681       4.57141138       14       0.00243165       0.00169195       0.00345717
In       5.62299978       4.28863572      10.15197017       15       0.00243165      -0.00169195      -0.00345717
O        4.73246990       5.21908504      11.76210975       16       0.00119321       0.00328500      -0.00566546
O        1.94652603       3.52879749       2.96127180       17       0.00119321      -0.00328500       0.00566546
O        0.83941784       2.30312420      10.32296257       18      -0.00119321       0.00328500       0.00566546
O        3.62536172       0.61283665       4.40041898       19      -0.00119321      -0.00328500      -0.00566546
O        0.83941784       0.61283665       2.96127180       20      -0.00119321      -0.00328500       0.00566546
O        3.62536172       2.30312420      11.76210975       21      -0.00119321       0.00328500      -0.00566546
O        4.73246990       3.52879749       4.40041898       22       0.00119321      -0.00328500      -0.00566546
O        1.94652603       5.21908504      10.32296257       23       0.00119321       0.00328500       0.00566546
O        3.78389759       3.00756067       9.30036937       24       0.00337709      -0.00220424      -0.00128456
O        0.99795372       5.74032185       5.42301218       25       0.00337709       0.00220424       0.00128456
O        1.78799015       0.09159983      12.78470295       26      -0.00337709      -0.00220424       0.00128456
O        4.57393403       2.82436101       1.93867860       27      -0.00337709       0.00220424      -0.00128456
O        1.78799015       2.82436101       5.42301218       28      -0.00337709       0.00220424       0.00128456
O        4.57393403       0.09159983       9.30036937       29      -0.00337709      -0.00220424      -0.00128456
O        3.78389759       5.74032185       1.93867860       30       0.00337709       0.00220424      -0.00128456
O        0.99795372       3.00756067      12.78470295       31       0.00337709      -0.00220424       0.00128456
O        3.66210214       3.76139519      13.87190052       32      -0.00495521      -0.00423006      -0.00499838
O        0.87615826       4.98648734       0.85148103       33      -0.00495521       0.00423006       0.00499838
O        1.90978561       0.84543435       8.21317180       34       0.00495521      -0.00423006       0.00499838
O        4.69572948       2.07052650       6.51020974       35       0.00495521       0.00423006      -0.00499838
O        1.90978561       2.07052650       0.85148103       36       0.00495521       0.00423006       0.00499838
O        4.69572948       0.84543435      13.87190052       37       0.00495521      -0.00423006      -0.00499838
O        3.66210214       4.98648734       6.51020974       38      -0.00495521       0.00423006      -0.00499838
O        0.87615826       3.76139519       8.21317180       39      -0.00495521      -0.00423006       0.00499838
