320
Lattice="17.822777881143228 1.396899361776688e-09 -1.1382994703327434e-15 -5.940925961698087 16.803476131985033 -2.4195028836249587e-09 -5.940925959722579 -8.401738064595605 14.55223720379751" Properties=species:S:1:pos:R:3:spacegroup_kinds:I:1:forces:R:3 spacegroup="P 1" unit_cell=conventional occupancy="_JSON {\"0\": {\"In\": 1}, \"1\": {\"In\": 1}, \"2\": {\"In\": 1}, \"3\": {\"In\": 1}, \"4\": {\"In\": 1}, \"5\": {\"In\": 1}, \"6\": {\"In\": 1}, \"7\": {\"In\": 1}, \"8\": {\"In\": 1}, \"9\": {\"In\": 1}, \"10\": {\"In\": 1}, \"11\": {\"In\": 1}, \"12\": {\"In\": 1}, \"13\": {\"In\": 1}, \"14\": {\"In\": 1}, \"15\": {\"In\": 1}, \"16\": {\"O\": 1}, \"17\": {\"O\": 1}, \"18\": {\"O\": 1}, \"19\": {\"O\": 1}, \"20\": {\"O\": 1}, \"21\": {\"O\": 1}, \"22\": {\"O\": 1}, \"23\": {\"O\": 1}, \"24\": {\"O\": 1}, \"25\": {\"O\": 1}, \"26\": {\"O\": 1}, \"27\": {\"O\": 1}, \"28\": {\"O\": 1}, \"29\": {\"O\": 1}, \"30\": {\"O\": 1}, \"31\": {\"O\": 1}, \"32\": {\"O\": 1}, \"33\": {\"O\": 1}, \"34\": {\"O\": 1}, \"35\": {\"O\": 1}, \"36\": {\"O\": 1}, \"37\": {\"O\": 1}, \"38\": {\"O\": 1}, \"39\": {\"O\": 1}}" n_minim_iter=5 energy=-361215.2778531326 stress="1.1108149748047842e-05 -6.654059619891566e-06 -7.367827875818111e-06 -6.654059619891566e-06 1.645199059387043e-05 3.8082635053730457e-06 -7.367827875818111e-06 3.8082635053730457e-06 6.719671121950862e-06" free_energy=-45151.90977927077 pbc="T T T"
In      -4.25543745       3.00904868       5.70235271        0       0.00351072      -0.00246248       0.00424865
In       4.65595149       3.00904868       5.70235271        0       0.00407959      -0.00221879       0.00499684
In      -7.22590043      11.41078675       5.70235271        0       0.00343709      -0.00241882       0.00422912
In       1.68548851      11.41078675       5.70235271        0       0.00342623      -0.00253991       0.00423252
In      -7.22590043      -1.19182035      12.97847131        0       0.00351461      -0.00243935       0.00418392
In       1.68548851      -1.19182035      12.97847131        0       0.00343809      -0.00244395       0.00422805
In     -10.19636341       7.20991771      12.97847131        0       0.00343381      -0.00251357       0.00417765
In      -1.28497447       7.20991771      12.97847131        0       0.00345381      -0.00243136       0.00422088
In       7.22590043       1.19182036       1.57376589        1      -0.00336363       0.00244537      -0.00426216
In      16.13728937       1.19182036       1.57376589        1      -0.00352020       0.00291367      -0.00455561
In       4.25543745       9.59355843       1.57376589        1      -0.00349449       0.00230592      -0.00419795
In      13.16682639       9.59355843       1.57376589        1      -0.00343366       0.00240247      -0.00420670
In       4.25543745      -3.00904867       8.84988449        1      -0.00344979       0.00242097      -0.00421393
In      13.16682639      -3.00904867       8.84988449        1      -0.00347192       0.00241057      -0.00419325
In       1.28497447       5.39268939       8.84988449        1      -0.00334998       0.00261624      -0.00417776
In      10.19636341       5.39268939       8.84988449        1      -0.00344198       0.00244194      -0.00421730
In       1.28497447      -0.90861416       5.21182519        2      -0.00334940       0.00203461      -0.00447380
In      10.19636341      -0.90861416       5.21182519        2      -0.00343087       0.00243451      -0.00421577
In      -1.68548851       7.49312391       5.21182519        2      -0.00317203       0.00190111      -0.00386806
In       7.22590043       7.49312391       5.21182519        2      -0.00349527       0.00243313      -0.00420149
In      -1.68548851      -5.10948319      12.48794379        2      -0.00336223       0.00240402      -0.00434124
In       7.22590043      -5.10948319      12.48794379        2      -0.00347398       0.00243756      -0.00424974
In      -4.65595149       3.29225487      12.48794379        2      -0.00342807       0.00243079      -0.00421771
In       4.25543745       3.29225487      12.48794379        2      -0.00345980       0.00243420      -0.00420293
In      -1.48523149      -2.10043451       3.63805930        3      -0.00004351       0.00002622      -0.00001904
In       7.42615745      -2.10043451       3.63805930        3       0.00002113      -0.00002244      -0.00000648
In      -4.45569447       6.30130356       3.63805930        3       0.00037293      -0.00016534       0.00004295
In       4.45569447       6.30130356       3.63805930        3      -0.00073327       0.00022363       0.00006153
In      -4.45569447      -6.30130354      10.91417790        3       0.00001794       0.00000531       0.00002202
In       4.45569447      -6.30130354      10.91417790        3       0.00000016      -0.00000772      -0.00000806
In      -7.42615745       2.10043452      10.91417790        3      -0.00000436       0.00000705      -0.00003260
In       1.48523149       2.10043452      10.91417790        3       0.00000388       0.00006188      -0.00000056
In      -1.28497447       4.05926594       3.39279554        4      -0.00312398       0.00106998      -0.00446337
In       7.62641447       4.05926594       3.39279554        4       0.00349279      -0.00249841      -0.00422136
In      -4.25543745      12.46100401       3.39279554        4       0.00342407      -0.00248712      -0.00420464
In       4.65595149      12.46100401       3.39279554        4       0.00349582      -0.00240208      -0.00421585
In      -4.25543745      -0.14160309      10.66891414        4       0.00343970      -0.00241024      -0.00418317
In       4.65595149      -0.14160309      10.66891414        4       0.00345627      -0.00244587      -0.00418248
In      -7.22590043       8.26013497      10.66891414        4       0.00345918      -0.00242281      -0.00421351
In       1.68548851       8.26013497      10.66891414        4       0.00343562      -0.00247144      -0.00441194
In       4.65595149      -2.86744558       5.45708895        5       0.00356178       0.00466435       0.00008943
In      13.56734043      -2.86744558       5.45708895        5       0.00346752       0.00487662       0.00002542
In       1.68548851       5.53429249       5.45708895        5       0.00944149       0.02030799       0.01461301
In      10.59687745       5.53429249       5.45708895        5       0.00349840       0.00486511      -0.00000816
In       1.68548851      -7.06831461      12.73320755        5       0.00341585       0.00487369      -0.00000172
In      10.59687745      -7.06831461      12.73320755        5       0.00338789       0.00482456      -0.00007014
In      -1.28497447       1.33342345      12.73320755        5       0.00342184       0.00489003      -0.00001547
In       7.62641447       1.33342345      12.73320755        5       0.00341796       0.00489796       0.00000403
In      -1.28497447       1.33342346       5.45708895        6       0.00243090       0.00460015       0.00047231
In       7.62641447       1.33342346       5.45708895        6       0.00351157       0.00489447       0.00001570
In      -4.25543745       9.73516153       5.45708895        6       0.00350418       0.00482820       0.00000321
In       4.65595149       9.73516153       5.45708895        6       0.00336250       0.00480151       0.00003016
In      -4.25543745      -2.86744557      12.73320755        6       0.00346425       0.00493231       0.00022016
In       4.65595149      -2.86744557      12.73320755        6       0.00347395       0.00487652       0.00001379
In      -7.22590043       5.53429249      12.73320755        6       0.00342563       0.00484024      -0.00001625
In       1.68548851       5.53429249      12.73320755        6       0.00343064       0.00486005      -0.00004459
In      -1.68548851       7.06831461       1.81902965        7      -0.00361433      -0.00434219      -0.00015382
In       7.22590043       7.06831461       1.81902965        7      -0.00349504      -0.00488446      -0.00001462
In      -4.65595149      15.47005268       1.81902965        7      -0.00358402      -0.00589066      -0.00053624
In       4.25543745      15.47005268       1.81902965        7      -0.00343487      -0.00487910      -0.00000070
In      -4.65595149       2.86744558       9.09514825        7      -0.00343606      -0.00485965      -0.00000800
In       4.25543745       2.86744558       9.09514825        7      -0.00337278      -0.00481157       0.00012958
In      -7.62641447      11.26918364       9.09514825        7      -0.00344430      -0.00487017      -0.00003760
In       1.28497447      11.26918364       9.09514825        7      -0.00345751      -0.00491713      -0.00002062
In       4.25543745       0.14160310       3.88332306        8      -0.00340538       0.00219352       0.00402858
In      13.16682639       0.14160310       3.88332306        8      -0.00352217       0.00233940       0.00423724
In       1.28497447       8.54334117       3.88332306        8      -0.00337227       0.00284704       0.00433048
In      10.19636341       8.54334117       3.88332306        8      -0.00346503       0.00243388       0.00422735
In       1.28497447      -4.05926593      11.15944166        8      -0.00342343       0.00244987       0.00420083
In      10.19636341      -4.05926593      11.15944166        8      -0.00345242       0.00243018       0.00416361
In      -1.68548851       4.34247213      11.15944166        8      -0.00344708       0.00245871       0.00420541
In       7.22590043       4.34247213      11.15944166        8      -0.00344457       0.00242712       0.00420134
In       7.42615745       4.20086903      -0.00000000        9      -0.00002117       0.00000953      -0.00000885
In      16.33754639       4.20086903      -0.00000000        9       0.00046059       0.00030361       0.00061606
In       4.45569447      12.60260710      -0.00000000        9       0.00004364       0.00000983      -0.00002152
In      13.36708341      12.60260710      -0.00000000        9      -0.00000079       0.00000399      -0.00001025
In       4.45569447      -0.00000000       7.27611860        9       0.00007414       0.00005843       0.00006577
In      13.36708341      -0.00000000       7.27611860        9      -0.00000366       0.00001503      -0.00001162
In       1.48523149       8.40173806       7.27611860        9      -0.00021908       0.00002890       0.00001639
In      10.39662043       8.40173807       7.27611860        9       0.00000021      -0.00000122       0.00000413
In       4.25543745       6.44290665       0.24526376       10      -0.00354811       0.00256345       0.00417104
In      13.16682639       6.44290665       0.24526376       10      -0.00348944       0.00239635       0.00427095
In       1.28497447      14.84464472       0.24526376       10      -0.00342008       0.00243251       0.00424197
In      10.19636341      14.84464472       0.24526376       10      -0.00346454       0.00242070       0.00418995
In       1.28497447       2.24203762       7.52138236       10      -0.00354938       0.00288460       0.00564034
In      10.19636341       2.24203762       7.52138236       10      -0.00343293       0.00243619       0.00422479
In      -1.68548851      10.64377568       7.52138236       10      -0.00339160       0.00233594       0.00417306
In       7.22590043      10.64377568       7.52138236       10      -0.00350063       0.00243206       0.00421508
In      -1.28497447      -2.24203761       7.03085484       11       0.00332806      -0.00253950      -0.00413469
In       7.62641447      -2.24203761       7.03085484       11       0.00345497      -0.00245865      -0.00423194
In      -4.25543745       6.15970046       7.03085484       11       0.00344430      -0.00242536      -0.00419081
In       4.65595149       6.15970046       7.03085484       11       0.00339301      -0.00220818      -0.00404922
In      -4.25543745      -6.44290664      14.30697344       11       0.00365775      -0.00286578      -0.00477208
In       4.65595149      -6.44290664      14.30697344       11       0.00344482      -0.00243007      -0.00422062
In      -7.22590043       1.95883142      14.30697344       11       0.00343000      -0.00243161      -0.00421953
In       1.68548851       1.95883142      14.30697344       11       0.00345157      -0.00243084      -0.00422008
In       4.25543745       2.86744558       1.81902965       12      -0.00306839      -0.00493051      -0.00057045
In      13.16682639       2.86744558       1.81902965       12      -0.00334554      -0.00485382       0.00001771
In       1.28497447      11.26918365       1.81902965       12      -0.00344390      -0.00484268       0.00002756
In      10.19636341      11.26918365       1.81902965       12      -0.00344892      -0.00487046      -0.00000912
In       1.28497447      -1.33342345       9.09514825       12      -0.00345007      -0.00496584       0.00011363
In      10.19636341      -1.33342345       9.09514825       12      -0.00345141      -0.00487434       0.00001451
In      -1.68548851       7.06831461       9.09514825       12      -0.00343327      -0.00486507      -0.00005781
In       7.22590043       7.06831461       9.09514825       12      -0.00346733      -0.00489064      -0.00002628
In       1.68548851       5.10948320       2.06429341       13       0.00369597       0.00297679       0.00097056
In      10.59687745       5.10948320       2.06429341       13       0.00348819      -0.00243658       0.00421229
In      -1.28497447      13.51122127       2.06429341       13       0.00352921      -0.00247622       0.00417553
In       7.62641447      13.51122127       2.06429341       13       0.00344520      -0.00244630       0.00417979
In      -1.28497447       0.90861417       9.34041201       13       0.00348850      -0.00253576       0.00424789
In       7.62641447       0.90861417       9.34041201       13       0.00343820      -0.00243124       0.00422716
In      -4.25543745       9.31035223       9.34041201       13       0.00346062      -0.00245341       0.00420927
In       4.65595149       9.31035223       9.34041201       13       0.00342314      -0.00243857       0.00422650
In       1.48523149       8.40173807      -0.00000000       14      -0.00010361      -0.00033146       0.00033258
In      10.39662043       8.40173807      -0.00000000       14       0.00002383      -0.00001109      -0.00000691
In      -1.48523149      16.80347613      -0.00000000       14      -0.00001962       0.00010823       0.00002596
In       7.42615745      16.80347613      -0.00000000       14       0.00004483      -0.00000196       0.00003193
In      -1.48523149       4.20086903       7.27611860       14       0.00019424       0.00018160      -0.00043831
In       7.42615745       4.20086903       7.27611860       14      -0.00006106       0.00004844       0.00001296
In      -4.45569447      12.60260710       7.27611860       14       0.00000633      -0.00003232       0.00001122
In       4.45569447      12.60260710       7.27611860       14       0.00002982      -0.00000011       0.00001505
In       1.48523149       2.10043452       3.63805930       15      -0.00729524       0.02475043       0.00348444
In      10.39662043       2.10043452       3.63805930       15       0.00001640      -0.00000463       0.00000024
In      -1.48523149      10.50217259       3.63805930       15      -0.00002595      -0.00011119      -0.00013038
In       7.42615745      10.50217259       3.63805930       15      -0.00003483      -0.00000410       0.00000680
In      -1.48523149      -2.10043451      10.91417790       15      -0.00000316      -0.00002202       0.00002852
In       7.42615745      -2.10043451      10.91417790       15       0.00000879      -0.00002004      -0.00001193
In      -4.45569447       6.30130355      10.91417790       15       0.00001235      -0.00000640      -0.00001135
In       4.45569447       6.30130355      10.91417790       15      -0.00000281      -0.00001655      -0.00002246
O        0.87151664       4.21004164       3.95969823       16       0.00589826      -0.08025717      -0.01490174
O        9.78623891       4.20061355       3.95969823       16      -0.00059928       0.00179528      -0.00184236
O       -2.09561301      12.60235162       3.95969823       16      -0.00055670       0.00169490      -0.00182298
O        6.81577593      12.60235162       3.95969823       16      -0.00066369       0.00172825      -0.00184582
O       -2.09561301      -0.00025548      11.23581683       16      -0.00062397       0.00175496      -0.00177488
O        6.81577593      -0.00025548      11.23581683       16      -0.00058382       0.00179817      -0.00182897
O       -5.06607599       8.40148258      11.23581683       16      -0.00058965       0.00179633      -0.00186388
O        3.84531295       8.40148258      11.23581683       16      -0.00059404       0.00175850      -0.00187005
O       -2.09561301       3.42932701       5.29649074       17      -0.00078770      -0.00287899      -0.00068922
O        6.81577593       3.42932701       5.29649074       17      -0.00060742      -0.00263158      -0.00065571
O       -5.06607599      11.83106508       5.29649074       17      -0.00059015      -0.00235740      -0.00063576
O        3.84531295      11.83106508       5.29649074       17      -0.00054687      -0.00239025      -0.00057087
O       -5.06607599      -0.77154202      12.57260934       17      -0.00056022      -0.00259692      -0.00073370
O        3.84531295      -0.77154202      12.57260934       17      -0.00059683      -0.00250518      -0.00063207
O       -8.03653897       7.63019604      12.57260934       17      -0.00065839      -0.00241551      -0.00055193
O        0.87484997       7.63019604      12.57260934       17      -0.00058365      -0.00244378      -0.00058337
O       -0.43604102       2.25583240       0.05292442       18      -0.00062307      -0.00203670      -0.00017267
O        8.47534792       2.25583240       0.05292442       18      -0.00097201      -0.00228664      -0.00090890
O       -3.40650400      10.65757047       0.05292442       18      -0.00086641      -0.00221883      -0.00094171
O        5.50488494      10.65757047       0.05292442       18      -0.00079927      -0.00225503      -0.00099269
O       -3.40650400      -1.94503663       7.32904302       18      -0.00083039      -0.00220909      -0.00097877
O        5.50488494      -1.94503663       7.32904302       18      -0.00089835      -0.00227062      -0.00105900
O       -6.37696698       6.45670143       7.32904302       18      -0.00090812      -0.00231179      -0.00089992
O        2.53442196       6.45670143       7.32904302       18      -0.00095946      -0.00290950      -0.00139801
O       -0.87484998      -0.77179752       1.98007037       19       0.00034443      -0.00064568      -0.00244697
O        8.03653896      -0.77179752       1.98007037       19       0.00056174      -0.00070625      -0.00243626
O       -3.84531296       7.62994055       1.98007037       19       0.00083013      -0.00073271      -0.00237957
O        5.06607598       7.62994055       1.98007037       19       0.00061301      -0.00066268      -0.00243139
O       -3.84531296      -4.97266655       9.25618897       19       0.00059262      -0.00070487      -0.00247381
O        5.06607598      -4.97266655       9.25618897       19       0.00057455      -0.00068156      -0.00249052
O       -6.81577594       3.42907151       9.25618897       19       0.00059484      -0.00069374      -0.00247553
O        2.09561300       3.42907151       9.25618897       19       0.00068586      -0.00053827      -0.00249491
O        3.93173817       5.00322248       1.92714595       20      -0.00228370      -0.00030802      -0.00138941
O       12.84312711       5.00322248       1.92714595       20      -0.00215118      -0.00000824      -0.00158783
O        0.96127519      13.40496055       1.92714595       20      -0.00217268       0.00033199      -0.00152415
O        9.87266413      13.40496055       1.92714595       20      -0.00210888       0.00021102      -0.00145691
O        0.96127519       0.80235345       9.20326455       20      -0.00215752       0.00008574      -0.00163490
O        9.87266413       0.80235345       9.20326455       20      -0.00215341       0.00014739      -0.00152381
O       -2.00918779       9.20409151       9.20326455       20      -0.00214682       0.00006133      -0.00157311
O        6.90220115       9.20409151       9.20326455       20      -0.00213400       0.00019202      -0.00145940
O        2.00918778       2.93308841       1.65843144       21      -0.00160000       0.00537948       0.00929406
O       10.92057672       2.93308841       1.65843144       21       0.00214115       0.00138387      -0.00063911
O       -0.96127520      11.33482648       1.65843144       21       0.00211676       0.00138284      -0.00059777
O        7.95011374      11.33482648       1.65843144       21       0.00214624       0.00138399      -0.00063773
O       -0.96127520      -1.26778062       8.93455004       21       0.00210647       0.00132278      -0.00057184
O        7.95011374      -1.26778062       8.93455004       21       0.00215885       0.00139650      -0.00063310
O       -3.93173818       7.13395744       8.93455004       21       0.00215929       0.00135160      -0.00059020
O        4.97965076       7.13395744       8.93455004       21       0.00207824       0.00129725      -0.00064388
O        2.00918778       6.27100311       0.26871451       22       0.00216988      -0.00180386      -0.00075417
O       10.92057672       6.27100311       0.26871451       22       0.00208689      -0.00123485      -0.00091338
O       -0.96127520      14.67274118       0.26871451       22       0.00215558      -0.00119163      -0.00085677
O        7.95011374      14.67274118       0.26871451       22       0.00219640      -0.00116652      -0.00088417
O       -0.96127520       2.07013408       7.54483311       22       0.00240816      -0.00096168      -0.00139910
O        7.95011374       2.07013408       7.54483311       22       0.00208812      -0.00117693      -0.00093928
O       -3.93173818      10.47187214       7.54483311       22       0.00206430      -0.00118278      -0.00077387
O        4.97965076      10.47187214       7.54483311       22       0.00221087      -0.00120817      -0.00087290
O       -2.27216619       5.96046283       3.69098372       23       0.00008229       0.00248826      -0.00121073
O        6.63922275       5.96046283       3.69098372       23       0.00188812       0.00165959      -0.00097239
O       -5.24262917      14.36220090       3.69098372       23       0.00177119       0.00138013      -0.00089961
O        3.66875977      14.36220090       3.69098372       23       0.00189097       0.00151911      -0.00095110
O       -5.24262917       1.75959380      10.96710232       23       0.00191445       0.00160649      -0.00098473
O        3.66875977       1.75959380      10.96710232       23       0.00181276       0.00162549      -0.00094408
O       -8.21309215      10.16133186      10.96710232       23       0.00185383       0.00156667      -0.00094639
O        0.69829679      10.16133186      10.96710232       23       0.00187097       0.00158663      -0.00091154
O        3.40650400       1.94503664       7.22319418       24       0.00068611       0.00262655       0.00081180
O       12.31789294       1.94503664       7.22319418       24       0.00087201       0.00224183       0.00091615
O        0.43604102      10.34677471       7.22319418       24       0.00084961       0.00236475       0.00096681
O        9.34742996      10.34677471       7.22319418       24       0.00084729       0.00230957       0.00094936
O        0.43604102      -2.25583239      14.49931278       24       0.00087192       0.00222198       0.00089863
O        9.34742996      -2.25583239      14.49931278       24       0.00016328       0.00258979       0.00070329
O       -2.53442196       6.14590567      14.49931278       24       0.00086174       0.00230893       0.00094848
O        6.37696698       6.14590567      14.49931278       24       0.00086961       0.00241540       0.00100087
O        5.24262917      -1.75959380       3.58513488       25      -0.00180374      -0.00163080       0.00093238
O       14.15401811      -1.75959380       3.58513488       25      -0.00187710      -0.00158051       0.00097131
O        2.27216619       6.64214427       3.58513488       25       0.00836212       0.00991675      -0.00106221
O       11.18355513       6.64214427       3.58513488       25      -0.00187226      -0.00160256       0.00094601
O        2.27216619      -5.96046283      10.86125348       25      -0.00188147      -0.00158012       0.00093935
O       11.18355513      -5.96046283      10.86125348       25      -0.00184672      -0.00160595       0.00088082
O       -0.69829679       2.44127523      10.86125348       25      -0.00176580      -0.00162507       0.00095665
O        8.21309215       2.44127523      10.86125348       25      -0.00188939      -0.00158692       0.00096417
O        6.37696698       3.27418461       1.71091335       26       0.00092661      -0.00209836       0.00158712
O       15.28835592       3.27418461       1.71091335       26       0.00122836      -0.00213500       0.00188320
O        3.40650400      11.67592268       1.71091335       26       0.00088858      -0.00191052       0.00143167
O       12.31789294      11.67592268       1.71091335       26       0.00084469      -0.00193369       0.00152677
O        3.40650400      -0.92668442       8.98703195       26       0.00086269      -0.00208528       0.00164136
O       12.31789294      -0.92668442       8.98703195       26       0.00087160      -0.00196328       0.00152069
O        0.43604102       7.47505364       8.98703195       26       0.00083259      -0.00202845       0.00159562
O        9.34742996       7.47505364       8.98703195       26       0.00086836      -0.00197343       0.00152799
O        3.66875977       2.31668877       3.90677381       27      -0.00248965       0.00067941      -0.00070813
O       12.58014871       2.31668877       3.90677381       27       0.00187727      -0.00162258      -0.00090399
O        0.69829679      10.71842684       3.90677381       27       0.00181936      -0.00184227      -0.00090842
O        9.60968573      10.71842684       3.90677381       27       0.00188255      -0.00165804      -0.00089620
O        0.69829679      -1.88418026      11.18289241       27       0.00189298      -0.00160379      -0.00090864
O        9.60968573      -1.88418026      11.18289241       27       0.00187239      -0.00162283      -0.00093820
O       -2.27216619       6.51755780      11.18289241       27       0.00184546      -0.00159118      -0.00091214
O        6.63922275       6.51755780      11.18289241       27       0.00191053      -0.00157437      -0.00085604
O        0.69829679       4.32545550       6.95447967       28       0.00182206      -0.00169435       0.00238091
O        9.60968573       4.32545550       6.95447967       28       0.00185071       0.00003947       0.00183065
O       -2.27216619      12.72719357       6.95447967       28       0.00185093       0.00004021       0.00183720
O        6.63922275      12.72719357       6.95447967       28       0.00184259      -0.00002975       0.00184566
O       -2.27216619       0.12458647      14.23059827       28       0.00192183       0.00000386       0.00183985
O        6.63922275       0.12458647      14.23059827       28       0.00177774       0.00007009       0.00177030
O       -5.24262917       8.52632453      14.23059827       28       0.00183844       0.00010135       0.00187551
O        3.66875977       8.52632453      14.23059827       28       0.00192130      -0.00007796       0.00180479
O        2.27216619      -0.12458646       0.32163893       29      -0.00194070       0.00008492      -0.00216972
O       11.18355513      -0.12458646       0.32163893       29      -0.00185960      -0.00002396      -0.00183791
O       -0.69829679       8.27715161       0.32163893       29      -0.00208530       0.00000650      -0.00172586
O        8.21309215       8.27715161       0.32163893       29      -0.00188043      -0.00001886      -0.00185038
O       -0.69829679      -4.32545549       7.59775753       29      -0.00186002       0.00001447      -0.00188942
O        8.21309215      -4.32545549       7.59775753       29      -0.00188013       0.00001917      -0.00185375
O       -3.66875977       4.07628257       7.59775753       29      -0.00194164       0.00000662      -0.00180324
O        5.24262917       4.07628257       7.59775753       29      -0.00208119       0.00016426      -0.00188367
O       -3.40650400       0.92668443       5.56520525       30      -0.00082531       0.00219228      -0.00171515
O        5.50488494       0.92668443       5.56520525       30      -0.00055270       0.00178549      -0.00159771
O       -6.37696698       9.32842250       5.56520525       30      -0.00095649       0.00204623      -0.00152081
O        2.53442196       9.32842250       5.56520525       30      -0.00056847       0.00225787      -0.00157614
O       -6.37696698      -3.27418460      12.84132385       30      -0.00083836       0.00202458      -0.00157684
O        2.53442196      -3.27418460      12.84132385       30      -0.00085076       0.00198842      -0.00152740
O       -9.34742996       5.12755346      12.84132385       30      -0.00085085       0.00196624      -0.00154023
O       -0.43604102       5.12755346      12.84132385       30      -0.00087340       0.00198353      -0.00152317
O        5.06607598       0.77154203       1.97962785       31       0.00072977       0.00245553       0.00058959
O       13.97746492       0.77154203       1.97962785       31       0.00049307       0.00248862       0.00065649