320
Lattice="17.822777881143228 1.396899361776688e-09 -1.1382994703327434e-15 -5.940925961698087 16.803476131985033 -2.4195028836249587e-09 -5.940925959722579 -8.401738064595605 14.55223720379751" Properties=species:S:1:pos:R:3:spacegroup_kinds:I:1:forces:R:3 spacegroup="P 1" unit_cell=conventional occupancy="_JSON {\"0\": {\"In\": 1}, \"1\": {\"In\": 1}, \"2\": {\"In\": 1}, \"3\": {\"In\": 1}, \"4\": {\"In\": 1}, \"5\": {\"In\": 1}, \"6\": {\"In\": 1}, \"7\": {\"In\": 1}, \"8\": {\"In\": 1}, \"9\": {\"In\": 1}, \"10\": {\"In\": 1}, \"11\": {\"In\": 1}, \"12\": {\"In\": 1}, \"13\": {\"In\": 1}, \"14\": {\"In\": 1}, \"15\": {\"In\": 1}, \"16\": {\"O\": 1}, \"17\": {\"O\": 1}, \"18\": {\"O\": 1}, \"19\": {\"O\": 1}, \"20\": {\"O\": 1}, \"21\": {\"O\": 1}, \"22\": {\"O\": 1}, \"23\": {\"O\": 1}, \"24\": {\"O\": 1}, \"25\": {\"O\": 1}, \"26\": {\"O\": 1}, \"27\": {\"O\": 1}, \"28\": {\"O\": 1}, \"29\": {\"O\": 1}, \"30\": {\"O\": 1}, \"31\": {\"O\": 1}, \"32\": {\"O\": 1}, \"33\": {\"O\": 1}, \"34\": {\"O\": 1}, \"35\": {\"O\": 1}, \"36\": {\"O\": 1}, \"37\": {\"O\": 1}, \"38\": {\"O\": 1}, \"39\": {\"O\": 1}}" n_minim_iter=5 energy=-361215.277702278 stress="6.221684497147071e-06 -6.5757361644012225e-06 2.627514632706012e-06 -6.5757361644012225e-06 2.0596184297347966e-05 -1.5449578391548026e-06 2.627514632706012e-06 -1.5449578391548026e-06 6.951710204617295e-06" free_energy=-45151.90977927077 pbc="T T T"
In      -4.25210412       2.99962059       5.70235271        0      -0.02737601       0.10648526       0.01092852
In       4.65595149       3.00904868       5.70235271        0       0.00343042      -0.00243943       0.00421708
In      -7.22590043      11.41078675       5.70235271        0       0.00350316      -0.00260179       0.00424625
In       1.68548851      11.41078675       5.70235271        0       0.00342073      -0.00247430       0.00421821
In      -7.22590043      -1.19182035      12.97847131        0       0.00346630      -0.00240845       0.00418473
In       1.68548851      -1.19182035      12.97847131        0       0.00346214      -0.00244942       0.00423949
In     -10.19636341       7.20991771      12.97847131        0       0.00346737      -0.00245188       0.00419313
In      -1.28497447       7.20991771      12.97847131        0       0.00338932      -0.00238763       0.00417206
In       7.22590043       1.19182036       1.57376589        1      -0.00342289       0.00253232      -0.00423820
In      16.13728937       1.19182036       1.57376589        1      -0.00258334       0.00187823      -0.00546364
In       4.25543745       9.59355843       1.57376589        1      -0.00344653       0.00243704      -0.00422111
In      13.16682639       9.59355843       1.57376589        1      -0.00348999       0.00226633      -0.00405703
In       4.25543745      -3.00904867       8.84988449        1      -0.00344653       0.00243704      -0.00422111
In      13.16682639      -3.00904867       8.84988449        1      -0.00359705       0.00206146      -0.00387268
In       1.28497447       5.39268939       8.84988449        1      -0.00356023       0.00259290      -0.00419723
In      10.19636341       5.39268939       8.84988449        1      -0.00251113       0.00166986      -0.00536681
In       1.28497447      -0.90861416       5.21182519        2      -0.00293230       0.00225108      -0.00426688
In      10.19636341      -0.90861416       5.21182519        2      -0.00453869       0.00110067      -0.00421668
In      -1.68548851       7.49312391       5.21182519        2      -0.00453540       0.00118006      -0.00422821
In       7.22590043       7.49312391       5.21182519        2      -0.00322288       0.00229001      -0.00422153
In      -1.68548851      -5.10948319      12.48794379        2      -0.00344624       0.00243646      -0.00422089
In       7.22590043      -5.10948319      12.48794379        2      -0.00351250       0.00251292      -0.00421063
In      -4.65595149       3.29225487      12.48794379        2      -0.00346545       0.00261469      -0.00427536
In       4.25543745       3.29225487      12.48794379        2      -0.00344624       0.00243720      -0.00422058
In      -1.48523149      -2.10043451       3.63805930        3       0.00030050      -0.00011991      -0.00031983
In       7.42615745      -2.10043451       3.63805930        3      -0.00013787      -0.00009807      -0.00002194
In      -4.45569447       6.30130356       3.63805930        3      -0.00123420      -0.00449357       0.00496752
In       4.45569447       6.30130356       3.63805930        3       0.00001155       0.00000633      -0.00001255
In      -4.45569447      -6.30130354      10.91417790        3      -0.00000694      -0.00008689       0.00005668
In       4.45569447      -6.30130354      10.91417790        3      -0.00001126      -0.00000863       0.00002087
In      -7.42615745       2.10043452      10.91417790        3       0.00001597       0.00010231      -0.00001391
In       1.48523149       2.10043452      10.91417790        3       0.00010022      -0.00000722       0.00010777
In      -1.28497447       4.05926594       3.39279554        4       0.00305944      -0.00140424      -0.00448982
In       7.62641447       4.05926594       3.39279554        4       0.00357075      -0.00227174      -0.00422168
In      -4.25543745      12.46100401       3.39279554        4       0.00355570      -0.00262196      -0.00426957
In       4.65595149      12.46100401       3.39279554        4       0.00329689      -0.00260811      -0.00424645
In      -4.25543745      -0.14160309      10.66891414        4       0.00369212      -0.00253647      -0.00299536
In       4.65595149      -0.14160309      10.66891414        4       0.00343083      -0.00244015      -0.00421644
In      -7.22590043       8.26013497      10.66891414        4       0.00352912      -0.00247112      -0.00434770
In       1.68548851       8.26013497      10.66891414        4       0.00345661      -0.00242121      -0.00420204
In       4.65595149      -2.86744558       5.45708895        5       0.00349574       0.00482022      -0.00000191
In      13.56734043      -2.86744558       5.45708895        5       0.00306199       0.00327285      -0.00010004
In       1.68548851       5.53429249       5.45708895        5       0.00356089       0.00502677       0.00001174
In      10.59687745       5.53429249       5.45708895        5       0.01002387       0.00185870      -0.00023818
In       1.68548851      -7.06831461      12.73320755        5       0.00346315       0.00485624      -0.00000787
In      10.59687745      -7.06831461      12.73320755        5       0.00350137       0.00483772      -0.00013514
In      -1.28497447       1.33342345      12.73320755        5       0.00350419       0.00486947       0.00011983
In       7.62641447       1.33342345      12.73320755        5       0.00342709       0.00486992       0.00000453
In      -1.28497447       1.33342346       5.45708895        6       0.01200115       0.00345071      -0.00058877
In       7.62641447       1.33342346       5.45708895        6       0.00320398       0.00489920      -0.00001125
In      -4.25543745       9.73516153       5.45708895        6       0.00336736       0.00457799      -0.00004352
In       4.65595149       9.73516153       5.45708895        6       0.00344604       0.00487398       0.00000003
In      -4.25543745      -2.86744557      12.73320755        6       0.00344259       0.00488239       0.00004625
In       4.65595149      -2.86744557      12.73320755        6       0.00352308       0.00483870       0.00011119
In      -7.22590043       5.53429249      12.73320755        6       0.00352483       0.00485242      -0.00008445
In       1.68548851       5.53429249      12.73320755        6       0.00342897       0.00485991      -0.00009233
In      -1.68548851       7.06831461       1.81902965        7      -0.00372439      -0.00495468       0.00030759
In       7.22590043       7.06831461       1.81902965        7      -0.00343913      -0.00487909       0.00002593
In      -4.65595149      15.47005268       1.81902965        7      -0.00339379      -0.00492021      -0.00015392
In       4.25543745      15.47005268       1.81902965        7      -0.00349736      -0.00486485      -0.00004092
In      -4.65595149       2.86744558       9.09514825        7      -0.00327259      -0.00215600       0.00029282
In       4.25543745       2.86744558       9.09514825        7      -0.00344072      -0.00484261       0.00005240
In      -7.62641447      11.26918364       9.09514825        7      -0.00341018      -0.00491588       0.00000025
In       1.28497447      11.26918364       9.09514825        7      -0.00344662      -0.00487418       0.00000013
In       4.25543745       0.14160310       3.88332306        8      -0.00338277       0.00246927       0.00419370
In      13.16682639       0.14160310       3.88332306        8      -0.00685897      -0.00321533      -0.00239483
In       1.28497447       8.54334117       3.88332306        8      -0.00361746       0.00232737       0.00424610
In      10.19636341       8.54334117       3.88332306        8      -0.00324630       0.00223666       0.00424823
In       1.28497447      -4.05926593      11.15944166        8      -0.00344659       0.00243714       0.00422105
In      10.19636341      -4.05926593      11.15944166        8      -0.00344113       0.00243112       0.00422913
In      -1.68548851       4.34247213      11.15944166        8      -0.00355820       0.00250880       0.00406992
In       7.22590043       4.34247213      11.15944166        8      -0.00340750       0.00238831       0.00418200
In       7.42615745       4.20086903      -0.00000000        9       0.00005019      -0.00004560       0.00008326
In      16.33754639       4.20086903      -0.00000000        9       0.00002965       0.00004159      -0.00008246
In       4.45569447      12.60260710      -0.00000000        9      -0.00002636      -0.00002205      -0.00006742
In      13.36708341      12.60260710      -0.00000000        9       0.00000066      -0.00000627       0.00000269
In       4.45569447      -0.00000000       7.27611860        9       0.00000823       0.00000565       0.00000913
In      13.36708341      -0.00000000       7.27611860        9      -0.00227122      -0.00812084       0.00622602
In       1.48523149       8.40173806       7.27611860        9      -0.00009143      -0.00009345       0.00002689
In      10.39662043       8.40173807       7.27611860        9      -0.00001830       0.00008655       0.00000484
In       4.25543745       6.44290665       0.24526376       10      -0.00343919       0.00244175       0.00421361
In      13.16682639       6.44290665       0.24526376       10      -0.00354736       0.00242806       0.00458074
In       1.28497447      14.84464472       0.24526376       10      -0.00344992       0.00241509       0.00417627
In      10.19636341      14.84464472       0.24526376       10      -0.00336500       0.00241758       0.00408376
In       1.28497447       2.24203762       7.52138236       10      -0.00264408       0.00263652       0.00489412
In      10.19636341       2.24203762       7.52138236       10      -0.00440918       0.00347247       0.00411323
In      -1.68548851      10.64377568       7.52138236       10      -0.00355720       0.00225648       0.00424247
In       7.22590043      10.64377568       7.52138236       10      -0.00343454       0.00242997       0.00418898
In      -1.28497447      -2.24203761       7.03085484       11       0.00383584      -0.00262574      -0.00397290
In       7.62641447      -2.24203761       7.03085484       11       0.00332525      -0.00253010      -0.00421384
In      -4.25543745       6.15970046       7.03085484       11       0.00234677      -0.01159765      -0.00891038
In       4.65595149       6.15970046       7.03085484       11       0.00345408      -0.00243146      -0.00420597
In      -4.25543745      -6.44290664      14.30697344       11       0.00346804      -0.00247620      -0.00430129
In       4.65595149      -6.44290664      14.30697344       11       0.00342602      -0.00237332      -0.00415121
In      -7.22590043       1.95883142      14.30697344       11       0.00347239      -0.00242515      -0.00423369
In       1.68548851       1.95883142      14.30697344       11       0.00344674      -0.00243697      -0.00422075
In       4.25543745       2.86744558       1.81902965       12      -0.00342076      -0.00485261      -0.00004967
In      13.16682639       2.86744558       1.81902965       12      -0.00352763      -0.00373272      -0.00039469
In       1.28497447      11.26918365       1.81902965       12      -0.00344512      -0.00487110       0.00001711
In      10.19636341      11.26918365       1.81902965       12      -0.00339777      -0.00508122       0.00003254
In       1.28497447      -1.33342345       9.09514825       12      -0.00335300      -0.00490471       0.00015924
In      10.19636341      -1.33342345       9.09514825       12      -0.00370493      -0.00484413      -0.00005403
In      -1.68548851       7.06831461       9.09514825       12      -0.00434274      -0.00537729      -0.00049383
In       7.22590043       7.06831461       9.09514825       12      -0.00334164      -0.00495464      -0.00006845
In       1.68548851       5.10948320       2.06429341       13       0.00343263      -0.00229552       0.00422598
In      10.59687745       5.10948320       2.06429341       13       0.00434387      -0.00285159       0.00543127
In      -1.28497447      13.51122127       2.06429341       13       0.00344652      -0.00243710       0.00422111
In       7.62641447      13.51122127       2.06429341       13       0.00333768      -0.00310267       0.00371967
In      -1.28497447       0.90861417       9.34041201       13       0.00434867      -0.00299254       0.00535884
In       7.62641447       0.90861417       9.34041201       13       0.00333889      -0.00234309       0.00429217
In      -4.25543745       9.31035223       9.34041201       13       0.00343340      -0.00296944       0.00396857
In       4.65595149       9.31035223       9.34041201       13       0.00344652      -0.00243710       0.00422111
In       1.48523149       8.40173807      -0.00000000       14       0.00000130       0.00001420       0.00002455
In      10.39662043       8.40173807      -0.00000000       14       0.00001056       0.00001200       0.00002480
In      -1.48523149      16.80347613      -0.00000000       14       0.00000088       0.00000045       0.00000073
In       7.42615745      16.80347613      -0.00000000       14      -0.00006609       0.00007592      -0.00010135
In      -1.48523149       4.20086903       7.27611860       14      -0.00230372       0.00175529       0.00024326
In       7.42615745       4.20086903       7.27611860       14      -0.00010111       0.00014411      -0.00000607
In      -4.45569447      12.60260710       7.27611860       14       0.00014141      -0.00014486       0.00002531
In       4.45569447      12.60260710       7.27611860       14      -0.00020390      -0.00013328      -0.00002127
In       1.48523149       2.10043452       3.63805930       15       0.00043786       0.00021971      -0.00042140
In      10.39662043       2.10043452       3.63805930       15      -0.00060665       0.00131389       0.00024192
In      -1.48523149      10.50217259       3.63805930       15      -0.00006250      -0.00012111       0.00005811
In       7.42615745      10.50217259       3.63805930       15       0.00006971      -0.00013070      -0.00001281
In      -1.48523149      -2.10043451      10.91417790       15       0.00013925      -0.00003713       0.00015326
In       7.42615745      -2.10043451      10.91417790       15      -0.00010715      -0.00001870       0.00004029
In      -4.45569447       6.30130355      10.91417790       15       0.00013522       0.00012906      -0.00020320
In       4.45569447       6.30130355      10.91417790       15      -0.00000684      -0.00000097      -0.00000037
O        0.87484997       4.20061355       3.95969823       16      -0.00088862       0.00174726      -0.00171592
O        9.78623891       4.20061355       3.95969823       16      -0.00153545       0.00146715      -0.00249918
O       -2.09561301      12.60235162       3.95969823       16      -0.00061211       0.00177547      -0.00183444
O        6.81577593      12.60235162       3.95969823       16      -0.00056337       0.00190965      -0.00169475
O       -2.09561301      -0.00025548      11.23581683       16      -0.00073343       0.00178010      -0.00182314
O        6.81577593      -0.00025548      11.23581683       16      -0.00059049       0.00180796      -0.00185532
O       -5.06607599       8.40148258      11.23581683       16      -0.00059188       0.00187501      -0.00178375
O        3.84531295       8.40148258      11.23581683       16      -0.00059542       0.00179915      -0.00187337
O       -2.09561301       3.42932701       5.29649074       17       0.00438803      -0.00529976      -0.00069393
O        6.81577593       3.42932701       5.29649074       17      -0.00065567      -0.00245671      -0.00062187
O       -5.06607599      11.83106508       5.29649074       17      -0.00067499      -0.00245516      -0.00060561
O        3.84531295      11.83106508       5.29649074       17      -0.00054294      -0.00246036      -0.00064170
O       -5.06607599      -0.77154202      12.57260934       17      -0.00059451      -0.00247563      -0.00081894
O        3.84531295      -0.77154202      12.57260934       17      -0.00060422      -0.00250886      -0.00063548
O       -8.03653897       7.63019604      12.57260934       17      -0.00063492      -0.00251349      -0.00064916
O        0.87484997       7.63019604      12.57260934       17      -0.00057972      -0.00250038      -0.00058866
O       -0.43604102       2.25583240       0.05292442       18      -0.00090175      -0.00226137      -0.00089702
O        8.47534792       2.25583240       0.05292442       18      -0.00087822      -0.00234535      -0.00097385
O       -3.40650400      10.65757047       0.05292442       18      -0.00085024      -0.00231693      -0.00096348
O        5.50488494      10.65757047       0.05292442       18      -0.00085076      -0.00231840      -0.00094186
O       -3.40650400      -1.94503663       7.32904302       18      -0.00064033      -0.00197414      -0.00147190
O        5.50488494      -1.94503663       7.32904302       18      -0.00084688      -0.00230139      -0.00095818
O       -6.37696698       6.45670143       7.32904302       18      -0.00077206      -0.00265690      -0.00062101
O        2.53442196       6.45670143       7.32904302       18      -0.00085691      -0.00231106      -0.00096273
O       -0.87484998      -0.77179752       1.98007037       19       0.00056136      -0.00074769      -0.00232768
O        8.03653896      -0.77179752       1.98007037       19       0.00061872      -0.00070524      -0.00247397
O       -3.84531296       7.62994055       1.98007037       19       0.00076699      -0.00000890      -0.00319716
O        5.06607598       7.62994055       1.98007037       19       0.00059856      -0.00069841      -0.00248195
O       -3.84531296      -4.97266655       9.25618897       19       0.00055627      -0.00057952      -0.00248176
O        5.06607598      -4.97266655       9.25618897       19       0.00062857      -0.00065275      -0.00247909
O       -6.81577594       3.42907151       9.25618897       19       0.00043511      -0.00072058      -0.00247987
O        2.09561300       3.42907151       9.25618897       19       0.00059655      -0.00073445      -0.00254532
O        3.93173817       5.00322248       1.92714595       20      -0.00215372       0.00015124      -0.00153183
O       12.84312711       5.00322248       1.92714595       20      -0.00226785       0.00008346      -0.00259072
O        0.96127519      13.40496055       1.92714595       20      -0.00216619       0.00013854      -0.00153453
O        9.87266413      13.40496055       1.92714595       20      -0.00214718       0.00021998      -0.00148131
O        0.96127519       0.80235345       9.20326455       20      -0.00211312       0.00022198      -0.00157931
O        9.87266413       0.80235345       9.20326455       20      -0.00179601       0.00029846      -0.00180325
O       -2.00918779       9.20409151       9.20326455       20      -0.00217487       0.00019425      -0.00149201
O        6.90220115       9.20409151       9.20326455       20      -0.00212274       0.00013096      -0.00153930
O        2.00918778       2.93308841       1.65843144       21       0.00209988       0.00135806      -0.00053634
O       10.92057672       2.93308841       1.65843144       21       0.00193142       0.00136941      -0.00101002
O       -0.96127520      11.33482648       1.65843144       21       0.00216043       0.00140018      -0.00064389
O        7.95011374      11.33482648       1.65843144       21       0.00213918       0.00141295      -0.00063288
O       -0.96127520      -1.26778062       8.93455004       21       0.00213758       0.00123610      -0.00073401
O        7.95011374      -1.26778062       8.93455004       21       0.00216146       0.00139365      -0.00061667
O       -3.93173818       7.13395744       8.93455004       21       0.00226957       0.00102256      -0.00074874
O        4.97965076       7.13395744       8.93455004       21       0.00217136       0.00139141      -0.00064070
O        2.00918778       6.27100311       0.26871451       22       0.00213890      -0.00124812      -0.00088098
O       10.92057672       6.27100311       0.26871451       22       0.00206948      -0.00123820      -0.00096138
O       -0.96127520      14.67274118       0.26871451       22       0.00214870      -0.00124591      -0.00088256
O        7.95011374      14.67274118       0.26871451       22       0.00218166      -0.00123868      -0.00086992
O       -0.96127520       2.07013408       7.54483311       22       0.00138760      -0.00162673      -0.00167884
O        7.95011374       2.07013408       7.54483311       22       0.00205724      -0.00133588      -0.00077620
O       -3.93173818      10.47187214       7.54483311       22       0.00214863      -0.00118746      -0.00089490
O        4.97965076      10.47187214       7.54483311       22       0.00219412      -0.00121040      -0.00087878
O       -2.27216619       5.96046283       3.69098372       23       0.00322154       0.00200927      -0.00170750
O        6.63922275       5.96046283       3.69098372       23       0.00182891       0.00159164      -0.00096063
O       -5.24262917      14.36220090       3.69098372       23       0.00185950       0.00160799      -0.00096185
O        3.66875977      14.36220090       3.69098372       23       0.00190475       0.00158122      -0.00099860
O       -5.24262917       1.75959380      10.96710232       23       0.00188326       0.00145750      -0.00097621
O        3.66875977       1.75959380      10.96710232       23       0.00192178       0.00157941      -0.00093775
O       -8.21309215      10.16133186      10.96710232       23       0.00187305       0.00157993      -0.00097073
O        0.69829679      10.16133186      10.96710232       23       0.00190530       0.00159416      -0.00095975
O        3.40650400       1.94503664       7.22319418       24       0.00075799       0.00231120       0.00091789
O       12.31789294       1.94503664       7.22319418       24      -0.00034759      -0.00388069       0.00450454
O        0.43604102      10.34677471       7.22319418       24       0.00091100       0.00234749       0.00094349
O        9.34742996      10.34677471       7.22319418       24       0.00083843       0.00235266       0.00093902
O        0.43604102      -2.25583239      14.49931278       24       0.00087232       0.00231161       0.00095679
O        9.34742996      -2.25583239      14.49931278       24       0.00086387       0.00239647       0.00089513
O       -2.53442196       6.14590567      14.49931278       24       0.00086950       0.00229103       0.00098538
O        6.37696698       6.14590567      14.49931278       24       0.00082495       0.00228675       0.00099273
O        5.24262917      -1.75959380       3.58513488       25      -0.00191389      -0.00156365       0.00096080
O       14.15401811      -1.75959380       3.58513488       25      -0.00166534      -0.00106908       0.00137862
O        2.27216619       6.64214427       3.58513488       25      -0.00189928      -0.00156373       0.00095759
O       11.18355513       6.64214427       3.58513488       25      -0.00248343      -0.00117287       0.00038742
O        2.27216619      -5.96046283      10.86125348       25      -0.00189477      -0.00157596       0.00097797
O       11.18355513      -5.96046283      10.86125348       25      -0.00189228      -0.00154563       0.00094045
O       -0.69829679       2.44127523      10.86125348       25      -0.00186875      -0.00159735       0.00097068
O        8.21309215       2.44127523      10.86125348       25      -0.00191507      -0.00160428       0.00098041
O        6.37696698       3.27418461       1.71091335       26       0.00085663      -0.00198516       0.00154547
O       15.28835592       3.27418461       1.71091335       26       0.00123067      -0.00207900       0.00106749
O        3.40650400      11.67592268       1.71091335       26       0.00085943      -0.00198108       0.00153091
O       12.31789294      11.67592268       1.71091335       26       0.00082003      -0.00190937       0.00155660
O        3.40650400      -0.92668442       8.98703195       26       0.00082112      -0.00197535       0.00149414
O       12.31789294      -0.92668442       8.98703195       26       0.00095423      -0.00213632       0.00153860
O        0.43604102       7.47505364       8.98703195       26       0.00100973      -0.00198224       0.00155014
O        9.34742996       7.47505364       8.98703195       26       0.00077269      -0.00206324       0.00158363
O        3.66875977       2.31668877       3.90677381       27       0.00176361      -0.00162079      -0.00087026
O       12.58014871       2.31668877       3.90677381       27      -0.00061675      -0.00649906      -0.00711750
O        0.69829679      10.71842684       3.90677381       27       0.00188892      -0.00161908      -0.00089102
O        9.60968573      10.71842684       3.90677381       27       0.00190956      -0.00153387      -0.00079684
O        0.69829679      -1.88418026      11.18289241       27       0.00188459      -0.00163991      -0.00090126
O        9.60968573      -1.88418026      11.18289241       27       0.00191717      -0.00157611      -0.00093333
O       -2.27216619       6.51755780      11.18289241       27       0.00191228      -0.00157052      -0.00082785
O        6.63922275       6.51755780      11.18289241       27       0.00189652      -0.00161651      -0.00089320
O        0.69829679       4.32545550       6.95447967       28       0.00179852      -0.00016011       0.00167176
O        9.60968573       4.32545550       6.95447967       28       0.00165280       0.00009824       0.00209174
O       -2.27216619      12.72719357       6.95447967       28       0.00188217       0.00000971       0.00183262
O        6.63922275      12.72719357       6.95447967       28       0.00194687       0.00012738       0.00174754
O       -2.27216619       0.12458647      14.23059827       28       0.00191106       0.00001873       0.00191265
O        6.63922275       0.12458647      14.23059827       28       0.00192495       0.00004785       0.00184932
O       -5.24262917       8.52632453      14.23059827       28       0.00187905       0.00005173       0.00188405
O        3.66875977       8.52632453      14.23059827       28       0.00181356      -0.00000051       0.00189146
O        2.27216619      -0.12458646       0.32163893       29      -0.00191187      -0.00003739      -0.00180206
O       11.18355513      -0.12458646       0.32163893       29      -0.00193996      -0.00004596      -0.00189569
O       -0.69829679       8.27715161       0.32163893       29      -0.00187481      -0.00003706      -0.00188577
O        8.21309215       8.27715161       0.32163893       29      -0.00188892      -0.00002931      -0.00183396
O       -0.69829679      -4.32545549       7.59775753       29      -0.00193903       0.00003043      -0.00189810
O        8.21309215      -4.32545549       7.59775753       29      -0.00189628      -0.00003951      -0.00180661
O       -3.66875977       4.07628257       7.59775753       29      -0.00205105      -0.00550449      -0.00716774
O        5.24262917       4.07628257       7.59775753       29      -0.00198013      -0.00005919      -0.00186126
O       -3.40650400       0.92668443       5.56520525       30       0.00803006      -0.01709145      -0.00206317
O        5.50488494       0.92668443       5.56520525       30      -0.00082810       0.00198484      -0.00153243
O       -6.37696698       9.32842250       5.56520525       30      -0.00095386       0.00227685      -0.00146447
O        2.53442196       9.32842250       5.56520525       30      -0.00089797       0.00196004      -0.00152337
O       -6.37696698      -3.27418460      12.84132385       30      -0.00086187       0.00198132      -0.00147535
O        2.53442196      -3.27418460      12.84132385       30      -0.00085427       0.00199432      -0.00152694
O       -9.34742996       5.12755346      12.84132385       30      -0.00085878       0.00197770      -0.00152479
O       -0.43604102       5.12755346      12.84132385       30      -0.00083101       0.00198502      -0.00149149
O        5.06607598       0.77154203       1.97962785       31       0.00056805       0.00250229       0.00066352
O       13.97746492       0.77154203       1.97962785       31       0.00086086       0.00211239       0.00058847