320
Lattice="17.822777881143228 1.396899361776688e-09 -1.1382994703327434e-15 -5.940925961698087 16.803476131985033 -2.4195028836249587e-09 -5.940925959722579 -8.401738064595605 14.55223720379751" Properties=species:S:1:pos:R:3:spacegroup_kinds:I:1:forces:R:3 spacegroup="P 1" unit_cell=conventional occupancy="_JSON {\"0\": {\"In\": 1}, \"1\": {\"In\": 1}, \"2\": {\"In\": 1}, \"3\": {\"In\": 1}, \"4\": {\"In\": 1}, \"5\": {\"In\": 1}, \"6\": {\"In\": 1}, \"7\": {\"In\": 1}, \"8\": {\"In\": 1}, \"9\": {\"In\": 1}, \"10\": {\"In\": 1}, \"11\": {\"In\": 1}, \"12\": {\"In\": 1}, \"13\": {\"In\": 1}, \"14\": {\"In\": 1}, \"15\": {\"In\": 1}, \"16\": {\"O\": 1}, \"17\": {\"O\": 1}, \"18\": {\"O\": 1}, \"19\": {\"O\": 1}, \"20\": {\"O\": 1}, \"21\": {\"O\": 1}, \"22\": {\"O\": 1}, \"23\": {\"O\": 1}, \"24\": {\"O\": 1}, \"25\": {\"O\": 1}, \"26\": {\"O\": 1}, \"27\": {\"O\": 1}, \"28\": {\"O\": 1}, \"29\": {\"O\": 1}, \"30\": {\"O\": 1}, \"31\": {\"O\": 1}, \"32\": {\"O\": 1}, \"33\": {\"O\": 1}, \"34\": {\"O\": 1}, \"35\": {\"O\": 1}, \"36\": {\"O\": 1}, \"37\": {\"O\": 1}, \"38\": {\"O\": 1}, \"39\": {\"O\": 1}}" n_minim_iter=5 energy=-361215.27789789287 stress="6.975085716952795e-06 8.096625849589873e-07 -5.097996379038014e-06 8.096625849589873e-07 1.959663044091737e-05 5.835015211661209e-06 -5.097996379038014e-06 5.835015211661209e-06 1.5683279934973773e-05" free_energy=-45151.90977927077 pbc="T T T"
In      -4.25543745       3.00904868       5.70235271        0       0.00449514      -0.00238181       0.00427745
In       4.65595149       3.00904868       5.70235271        0       0.00449765      -0.00307122       0.00514967
In      -7.22590043      11.41078675       5.70235271        0       0.00345790      -0.00244670       0.00421801
In       1.68548851      11.41078675       5.70235271        0       0.00343154      -0.00240372       0.00419060
In      -7.22590043      -1.19182035      12.97847131        0       0.00353688      -0.00254576       0.00435682
In       1.68548851      -1.19182035      12.97847131        0       0.00343888      -0.00243036       0.00422609
In     -10.19636341       7.20991771      12.97847131        0       0.00346621      -0.00242236       0.00420242
In      -1.28497447       7.20991771      12.97847131        0       0.00345730      -0.00242895       0.00422631
In       7.22590043       1.19182036       1.57376589        1      -0.00340922       0.00239916      -0.00423648
In      16.13728937       1.19182036       1.57376589        1      -0.00333466       0.00207860      -0.00399234
In       4.25543745       9.59355843       1.57376589        1      -0.00341224       0.00253372      -0.00423546
In      13.16682639       9.59355843       1.57376589        1      -0.00342939       0.00242400      -0.00421907
In       4.25543745      -3.00904867       8.84988449        1      -0.00344909       0.00243531      -0.00421402
In      13.16682639      -3.00904867       8.84988449        1      -0.00342146       0.00247661      -0.00426095
In       1.28497447       5.39268939       8.84988449        1      -0.00355754       0.00225137      -0.00448062
In      10.19636341       5.39268939       8.84988449        1      -0.00343424       0.00245349      -0.00420886
In       1.28497447      -0.90861416       5.21182519        2      -0.00359849       0.00259498      -0.00415483
In      10.19636341      -0.90861416       5.21182519        2      -0.00346572       0.00243091      -0.00423684
In      -1.68548851       7.49312391       5.21182519        2      -0.00329097       0.00178938      -0.00417106
In       7.22590043       7.49312391       5.21182519        2      -0.00337589       0.00251530      -0.00423150
In      -1.68548851      -5.10948319      12.48794379        2      -0.00345214       0.00237933      -0.00423053
In       7.22590043      -5.10948319      12.48794379        2      -0.00344336       0.00244263      -0.00423184
In      -4.65595149       3.29225487      12.48794379        2      -0.00342460       0.00245718      -0.00425616
In       4.25543745       3.29225487      12.48794379        2      -0.00346629       0.00242879      -0.00418867
In      -1.48523149      -2.10043451       3.63805930        3       0.00005731       0.00018089      -0.00002700
In       7.42615745      -2.10043451       3.63805930        3      -0.00001578       0.00001927      -0.00000485
In      -4.45569447       6.30130356       3.63805930        3       0.00040851      -0.00022526       0.00006681
In       4.45569447       6.30130356       3.63805930        3      -0.00050109       0.00017696      -0.00036255
In      -4.45569447      -6.30130354      10.91417790        3       0.00001438      -0.00000146       0.00004357
In       4.45569447      -6.30130354      10.91417790        3       0.00000088      -0.00000719      -0.00000631
In      -7.42615745       2.10043452      10.91417790        3       0.00000760       0.00000002      -0.00001299
In       1.48523149       2.10043452      10.91417790        3      -0.00003120      -0.00000646      -0.00000380
In      -1.28497447       4.05926594       3.39279554        4      -0.01879878      -0.00339779      -0.00748534
In       7.62641447       4.05926594       3.39279554        4       0.00361087      -0.00246994      -0.00424080
In      -4.25543745      12.46100401       3.39279554        4       0.00343553      -0.00246530      -0.00421819
In       4.65595149      12.46100401       3.39279554        4       0.00343029      -0.00238306      -0.00423964
In      -4.25543745      -0.14160309      10.66891414        4       0.00345718      -0.00239703      -0.00428772
In       4.65595149      -0.14160309      10.66891414        4       0.00344081      -0.00248146      -0.00418094
In      -7.22590043       8.26013497      10.66891414        4       0.00346627      -0.00242991      -0.00421465
In       1.68548851       8.26013497      10.66891414        4       0.00345779      -0.00242612      -0.00420426
In       4.65595149      -2.86744558       5.45708895        5       0.00349871       0.00478032       0.00004675
In      13.56734043      -2.86744558       5.45708895        5       0.00344283       0.00483845      -0.00001170
In       1.68548851       5.53429249       5.45708895        5      -0.00554419      -0.00487932      -0.01157960
In      10.59687745       5.53429249       5.45708895        5       0.00354661       0.00486034      -0.00003990
In       1.68548851      -7.06831461      12.73320755        5       0.00341795       0.00486835      -0.00000799
In      10.59687745      -7.06831461      12.73320755        5       0.00348167       0.00491353       0.00006840
In      -1.28497447       1.33342345      12.73320755        5       0.00344189       0.00488193       0.00004560
In       7.62641447       1.33342345      12.73320755        5       0.00343254       0.00489625       0.00000735
In      -1.28497447       1.33342346       5.45708895        6       0.00380367       0.00613269      -0.00087160
In       7.62641447       1.33342346       5.45708895        6       0.00350119       0.00485987       0.00002042
In      -4.25543745       9.73516153       5.45708895        6       0.00346897       0.00485463       0.00001165
In       4.65595149       9.73516153       5.45708895        6       0.00349729       0.00497496      -0.00003336
In      -4.25543745      -2.86744557      12.73320755        6       0.00337519       0.00482624      -0.00018285
In       4.65595149      -2.86744557      12.73320755        6       0.00347979       0.00487765       0.00001572
In      -7.22590043       5.53429249      12.73320755        6       0.00344189       0.00482789      -0.00002521
In       1.68548851       5.53429249      12.73320755        6       0.00345288       0.00487133       0.00003411
In      -1.68548851       7.06831461       1.81902965        7      -0.00329459      -0.00472353       0.00005382
In       7.22590043       7.06831461       1.81902965        7      -0.00339379      -0.00486356      -0.00002388
In      -4.65595149      15.47005268       1.81902965        7      -0.00354391      -0.00497097      -0.00010854
In       4.25543745      15.47005268       1.81902965        7      -0.00343588      -0.00487867      -0.00000063
In      -4.65595149       2.86744558       9.09514825        7      -0.00338860      -0.00485955      -0.00005656
In       4.25543745       2.86744558       9.09514825        7      -0.00337842      -0.00488013       0.00001993
In      -7.62641447      11.26918364       9.09514825        7      -0.00344416      -0.00486965      -0.00003903
In       1.28497447      11.26918364       9.09514825        7      -0.00344454      -0.00483606       0.00002988
In       4.25543745       0.14160310       3.88332306        8      -0.00353680       0.00172477       0.00400989
In      13.16682639       0.14160310       3.88332306        8      -0.00348365       0.00246085       0.00420210
In       1.28497447       8.54334117       3.88332306        8      -0.00394571       0.00268536       0.00447446
In      10.19636341       8.54334117       3.88332306        8      -0.00337940       0.00244949       0.00421779
In       1.28497447      -4.05926593      11.15944166        8      -0.00342581       0.00245283       0.00420420
In      10.19636341      -4.05926593      11.15944166        8      -0.00347635       0.00241572       0.00422982
In      -1.68548851       4.34247213      11.15944166        8      -0.00344468       0.00244172       0.00420402
In       7.22590043       4.34247213      11.15944166        8      -0.00344071       0.00242390       0.00419416
In       7.42615745       4.20086903      -0.00000000        9       0.00005147      -0.00002074      -0.00003994
In      16.33754639       4.20086903      -0.00000000        9       0.00029762       0.00005386      -0.00000891
In       4.45569447      12.60260710      -0.00000000        9      -0.00001220       0.00001936      -0.00001409
In      13.36708341      12.60260710      -0.00000000        9       0.00000998      -0.00000149       0.00000002
In       4.45569447      -0.00000000       7.27611860        9       0.00007018      -0.00000104       0.00002214
In      13.36708341      -0.00000000       7.27611860        9       0.00004832       0.00005102      -0.00001128
In       1.48523149       8.40173806       7.27611860        9      -0.00029081       0.00008988      -0.00005668
In      10.39662043       8.40173807       7.27611860        9       0.00000994      -0.00000001       0.00001059
In       4.25543745       6.44290665       0.24526376       10      -0.00363820       0.00260269       0.00410440
In      13.16682639       6.44290665       0.24526376       10      -0.00352775       0.00243111       0.00421602
In       1.28497447      14.84464472       0.24526376       10      -0.00343239       0.00243560       0.00424046
In      10.19636341      14.84464472       0.24526376       10      -0.00346309       0.00246930       0.00419966
In       1.28497447       2.24203762       7.52138236       10      -0.00374285       0.00251090       0.00433296
In      10.19636341       2.24203762       7.52138236       10      -0.00339218       0.00241793       0.00421348
In      -1.68548851      10.64377568       7.52138236       10      -0.00345799       0.00242013       0.00420650
In       7.22590043      10.64377568       7.52138236       10      -0.00342438       0.00241906       0.00419422
In      -1.28497447      -2.24203761       7.03085484       11       0.00342746      -0.00245024      -0.00419937
In       7.62641447      -2.24203761       7.03085484       11       0.00344732      -0.00241877      -0.00422129
In      -4.25543745       6.15970046       7.03085484       11       0.00330095      -0.00236497      -0.00418426
In       4.65595149       6.15970046       7.03085484       11       0.00305154      -0.00190813      -0.00357779
In      -4.25543745      -6.44290664      14.30697344       11       0.00348702      -0.00264887      -0.00468418
In       4.65595149      -6.44290664      14.30697344       11       0.00346666      -0.00242717      -0.00420625
In      -7.22590043       1.95883142      14.30697344       11       0.00344025      -0.00243120      -0.00420870
In       1.68548851       1.95883142      14.30697344       11       0.00343517      -0.00245614      -0.00419596
In       4.25543745       2.86744558       1.81902965       12      -0.00400127      -0.00493631      -0.00018068
In      13.16682639       2.86744558       1.81902965       12      -0.00321118      -0.00475631       0.00001258
In       1.28497447      11.26918365       1.81902965       12      -0.00342039      -0.00486292       0.00002438
In      10.19636341      11.26918365       1.81902965       12      -0.00344587      -0.00487610       0.00000413
In       1.28497447      -1.33342345       9.09514825       12      -0.00346861      -0.00488560       0.00001378
In      10.19636341      -1.33342345       9.09514825       12      -0.00345103      -0.00487454       0.00001692
In      -1.68548851       7.06831461       9.09514825       12      -0.00348384      -0.00489198      -0.00013884
In       7.22590043       7.06831461       9.09514825       12      -0.00342645      -0.00488823      -0.00001378
In       1.68548851       5.10948320       2.06429341       13      -0.00163955      -0.00449971       0.00835814
In      10.59687745       5.10948320       2.06429341       13       0.00352344      -0.00241600       0.00421469
In      -1.28497447      13.51122127       2.06429341       13       0.00345140      -0.00239601       0.00419601
In       7.62641447      13.51122127       2.06429341       13       0.00344190      -0.00243231       0.00424612
In      -1.28497447       0.90861417       9.34041201       13       0.00345153      -0.00235803       0.00407350
In       7.62641447       0.90861417       9.34041201       13       0.00344933      -0.00242475       0.00422012
In      -4.25543745       9.31035223       9.34041201       13       0.00344914      -0.00247058       0.00420231
In       4.65595149       9.31035223       9.34041201       13       0.00343702      -0.00241072       0.00422256
In       1.48523149       8.40173807      -0.00000000       14      -0.00009270       0.00010254       0.00001423
In      10.39662043       8.40173807      -0.00000000       14       0.00003338      -0.00001082      -0.00001261
In      -1.48523149      16.80347613      -0.00000000       14       0.00000412       0.00005470      -0.00001970
In       7.42615745      16.80347613      -0.00000000       14       0.00004122       0.00003244       0.00005189
In      -1.48523149       4.20086903       7.27611860       14       0.00041660       0.00005125      -0.00146212
In       7.42615745       4.20086903       7.27611860       14       0.00011299      -0.00007660       0.00007674
In      -4.45569447      12.60260710       7.27611860       14      -0.00000228      -0.00001686       0.00000906
In       4.45569447      12.60260710       7.27611860       14      -0.00001613       0.00005437       0.00001415
In       1.48523149       2.10043452       3.63805930       15      -0.00535503       0.00679256       0.00046705
In      10.39662043       2.10043452       3.63805930       15       0.00003726      -0.00000447      -0.00000693
In      -1.48523149      10.50217259       3.63805930       15       0.00001248       0.00002219      -0.00004059
In       7.42615745      10.50217259       3.63805930       15      -0.00000926      -0.00000712       0.00000930
In      -1.48523149      -2.10043451      10.91417790       15       0.00001380      -0.00000091      -0.00005279
In       7.42615745      -2.10043451      10.91417790       15      -0.00000161      -0.00002450      -0.00002027
In      -4.45569447       6.30130355      10.91417790       15       0.00000419       0.00000136      -0.00001623
In       4.45569447       6.30130355      10.91417790       15       0.00000444      -0.00000483       0.00004354
O        0.86484997       4.20061355       3.95969823       16       0.06831062       0.01800335       0.01240636
O        9.78623891       4.20061355       3.95969823       16      -0.00059182       0.00180343      -0.00185450
O       -2.09561301      12.60235162       3.95969823       16      -0.00053224       0.00177925      -0.00186002
O        6.81577593      12.60235162       3.95969823       16      -0.00055215       0.00188582      -0.00184417
O       -2.09561301      -0.00025548      11.23581683       16      -0.00053286       0.00185068      -0.00194272
O        6.81577593      -0.00025548      11.23581683       16      -0.00058617       0.00178945      -0.00182563
O       -5.06607599       8.40148258      11.23581683       16      -0.00059024       0.00179368      -0.00186394
O        3.84531295       8.40148258      11.23581683       16      -0.00054545       0.00181423      -0.00183860
O       -2.09561301       3.42932701       5.29649074       17      -0.00576434      -0.00468393       0.00152069
O        6.81577593       3.42932701       5.29649074       17      -0.00077721      -0.00248052      -0.00062094
O       -5.06607599      11.83106508       5.29649074       17      -0.00060119      -0.00250782      -0.00063669
O        3.84531295      11.83106508       5.29649074       17      -0.00060118      -0.00255253      -0.00063618
O       -5.06607599      -0.77154202      12.57260934       17      -0.00062103      -0.00246634      -0.00069494
O        3.84531295      -0.77154202      12.57260934       17      -0.00059633      -0.00250622      -0.00063101
O       -8.03653897       7.63019604      12.57260934       17      -0.00061315      -0.00246370      -0.00058617
O        0.87484997       7.63019604      12.57260934       17      -0.00061984      -0.00249875      -0.00063721
O       -0.43604102       2.25583240       0.05292442       18      -0.00088837      -0.00252620      -0.00140724
O        8.47534792       2.25583240       0.05292442       18      -0.00097752      -0.00229479      -0.00090928
O       -3.40650400      10.65757047       0.05292442       18      -0.00089657      -0.00222568      -0.00097263
O        5.50488494      10.65757047       0.05292442       18      -0.00088911      -0.00236170      -0.00093745
O       -3.40650400      -1.94503663       7.32904302       18      -0.00094241      -0.00237302      -0.00091121
O        5.50488494      -1.94503663       7.32904302       18      -0.00086992      -0.00225984      -0.00103932
O       -6.37696698       6.45670143       7.32904302       18      -0.00092257      -0.00228202      -0.00089943
O        2.53442196       6.45670143       7.32904302       18      -0.00045029      -0.00232957      -0.00115104
O       -0.87484998      -0.77179752       1.98007037       19       0.00045393      -0.00123362      -0.00287951
O        8.03653896      -0.77179752       1.98007037       19       0.00054802      -0.00068049      -0.00245125
O       -3.84531296       7.62994055       1.98007037       19       0.00069590      -0.00075112      -0.00234268
O        5.06607598       7.62994055       1.98007037       19       0.00053426      -0.00073656      -0.00268889
O       -3.84531296      -4.97266655       9.25618897       19       0.00059298      -0.00069437      -0.00249640
O        5.06607598      -4.97266655       9.25618897       19       0.00060299      -0.00069946      -0.00247774
O       -6.81577594       3.42907151       9.25618897       19       0.00060461      -0.00069358      -0.00246694
O        2.09561300       3.42907151       9.25618897       19       0.00078479      -0.00083599      -0.00205540
O        3.93173817       5.00322248       1.92714595       20      -0.00236593      -0.00001119      -0.00088874
O       12.84312711       5.00322248       1.92714595       20      -0.00194485      -0.00011450      -0.00153861
O        0.96127519      13.40496055       1.92714595       20      -0.00217704       0.00017694      -0.00150273
O        9.87266413      13.40496055       1.92714595       20      -0.00214598       0.00016940      -0.00152906
O        0.96127519       0.80235345       9.20326455       20      -0.00215559       0.00012441      -0.00148697
O        9.87266413       0.80235345       9.20326455       20      -0.00213546       0.00015283      -0.00153643
O       -2.00918779       9.20409151       9.20326455       20      -0.00220888       0.00010991      -0.00148410
O        6.90220115       9.20409151       9.20326455       20      -0.00219960       0.00008261      -0.00156644
O        2.00918778       2.93308841       1.65843144       21       0.00084713       0.00589592       0.00732968
O       10.92057672       2.93308841       1.65843144       21       0.00223683       0.00138817      -0.00065378
O       -0.96127520      11.33482648       1.65843144       21       0.00220088       0.00139763      -0.00058109
O        7.95011374      11.33482648       1.65843144       21       0.00216262       0.00140526      -0.00063827
O       -0.96127520      -1.26778062       8.93455004       21       0.00217286       0.00143712      -0.00052820
O        7.95011374      -1.26778062       8.93455004       21       0.00215917       0.00139608      -0.00063240
O       -3.93173818       7.13395744       8.93455004       21       0.00215710       0.00143644      -0.00059173
O        4.97965076       7.13395744       8.93455004       21       0.00217764       0.00147675      -0.00050996
O        2.00918778       6.27100311       0.26871451       22       0.00275763      -0.00099469      -0.00092458
O       10.92057672       6.27100311       0.26871451       22       0.00204848      -0.00120378      -0.00093087
O       -0.96127520      14.67274118       0.26871451       22       0.00213982      -0.00115668      -0.00082658
O        7.95011374      14.67274118       0.26871451       22       0.00209168      -0.00133771      -0.00089636
O       -0.96127520       2.07013408       7.54483311       22       0.00201219      -0.00175314      -0.00022068
O        7.95011374       2.07013408       7.54483311       22       0.00202661      -0.00121134      -0.00097166
O       -3.93173818      10.47187214       7.54483311       22       0.00209488      -0.00123711      -0.00081999
O        4.97965076      10.47187214       7.54483311       22       0.00214662      -0.00131558      -0.00091144
O       -2.27216619       5.96046283       3.69098372       23      -0.00036454       0.00335211      -0.00141013
O        6.63922275       5.96046283       3.69098372       23       0.00190868       0.00161153      -0.00084086
O       -5.24262917      14.36220090       3.69098372       23       0.00187489       0.00162224      -0.00095594
O        3.66875977      14.36220090       3.69098372       23       0.00190922       0.00159656      -0.00095584
O       -5.24262917       1.75959380      10.96710232       23       0.00188177       0.00157246      -0.00095199
O        3.66875977       1.75959380      10.96710232       23       0.00187870       0.00163677      -0.00092194
O       -8.21309215      10.16133186      10.96710232       23       0.00187365       0.00158407      -0.00093029
O        0.69829679      10.16133186      10.96710232       23       0.00190047       0.00156962      -0.00096154
O        3.40650400       1.94503664       7.22319418       24       0.00046724       0.00243382       0.00068037
O       12.31789294       1.94503664       7.22319418       24       0.00083090       0.00230824       0.00094459
O        0.43604102      10.34677471       7.22319418       24       0.00095760       0.00235146       0.00091356
O        9.34742996      10.34677471       7.22319418       24       0.00088082       0.00233190       0.00096199
O        0.43604102      -2.25583239      14.49931278       24       0.00088896       0.00236321       0.00089028
O        9.34742996      -2.25583239      14.49931278       24       0.00020527       0.00241799       0.00079774
O       -2.53442196       6.14590567      14.49931278       24       0.00086276       0.00231394       0.00094616
O        6.37696698       6.14590567      14.49931278       24       0.00088187       0.00235346       0.00094363
O        5.24262917      -1.75959380       3.58513488       25      -0.00186260      -0.00164413       0.00090162
O       14.15401811      -1.75959380       3.58513488       25      -0.00190933      -0.00167253       0.00094113
O        2.27216619       6.64214427       3.58513488       25      -0.00571883      -0.01261060       0.00212293
O       11.18355513       6.64214427       3.58513488       25      -0.00191512      -0.00154105       0.00096682
O        2.27216619      -5.96046283      10.86125348       25      -0.00188004      -0.00157989       0.00093832
O       11.18355513      -5.96046283      10.86125348       25      -0.00183985      -0.00163204       0.00099760
O       -0.69829679       2.44127523      10.86125348       25      -0.00182059      -0.00169518       0.00093705
O        8.21309215       2.44127523      10.86125348       25      -0.00189198      -0.00158087       0.00095832
O        6.37696698       3.27418461       1.71091335       26       0.00092007      -0.00213969       0.00149395
O       15.28835592       3.27418461       1.71091335       26       0.00098101      -0.00204709       0.00198351
O        3.40650400      11.67592268       1.71091335       26       0.00087340      -0.00195129       0.00151172
O       12.31789294      11.67592268       1.71091335       26       0.00086115      -0.00199342       0.00153386
O        3.40650400      -0.92668442       8.98703195       26       0.00080178      -0.00205188       0.00152244
O       12.31789294      -0.92668442       8.98703195       26       0.00083268      -0.00198417       0.00154012
O        0.43604102       7.47505364       8.98703195       26       0.00076994      -0.00202677       0.00148819
O        9.34742996       7.47505364       8.98703195       26       0.00084813      -0.00197635       0.00153860
O        3.66875977       2.31668877       3.90677381       27      -0.00162802       0.00159037      -0.00035027
O       12.58014871       2.31668877       3.90677381       27       0.00210964      -0.00150249      -0.00104233
O        0.69829679      10.71842684       3.90677381       27       0.00187255      -0.00154053      -0.00088967
O        9.60968573      10.71842684       3.90677381       27       0.00191747      -0.00159167      -0.00089296
O        0.69829679      -1.88418026      11.18289241       27       0.00189931      -0.00161296      -0.00088670
O        9.60968573      -1.88418026      11.18289241       27       0.00189617      -0.00159429      -0.00090477
O       -2.27216619       6.51755780      11.18289241       27       0.00185404      -0.00155769      -0.00086480
O        6.63922275       6.51755780      11.18289241       27       0.00187448      -0.00160495      -0.00096518
O        0.69829679       4.32545550       6.95447967       28       0.00352039       0.00073748       0.00261836
O        9.60968573       4.32545550       6.95447967       28       0.00187728       0.00004527       0.00184037
O       -2.27216619      12.72719357       6.95447967       28       0.00187787       0.00004508       0.00185971
O        6.63922275      12.72719357       6.95447967       28       0.00194058       0.00010656       0.00184417
O       -2.27216619       0.12458647      14.23059827       28       0.00201244       0.00009426       0.00179774
O        6.63922275       0.12458647      14.23059827       28       0.00182558       0.00005001       0.00180049
O       -5.24262917       8.52632453      14.23059827       28       0.00181579       0.00012819       0.00189836
O        3.66875977       8.52632453      14.23059827       28       0.00193571       0.00006730       0.00191223
O        2.27216619      -0.12458646       0.32163893       29      -0.00195231       0.00021446      -0.00180674
O       11.18355513      -0.12458646       0.32163893       29      -0.00193213      -0.00005792      -0.00185917
O       -0.69829679       8.27715161       0.32163893       29      -0.00214733       0.00024600      -0.00193481
O        8.21309215       8.27715161       0.32163893       29      -0.00194287      -0.00006282      -0.00182822
O       -0.69829679      -4.32545549       7.59775753       29      -0.00189564      -0.00004493      -0.00184892
O        8.21309215      -4.32545549       7.59775753       29      -0.00190738      -0.00005048      -0.00184323
O       -3.66875977       4.07628257       7.59775753       29      -0.00202475       0.00019000      -0.00168224
O        5.24262917       4.07628257       7.59775753       29      -0.00199951       0.00029653      -0.00186484
O       -3.40650400       0.92668443       5.56520525       30      -0.00099859       0.00172704      -0.00150506
O        5.50488494       0.92668443       5.56520525       30      -0.00062732       0.00167245      -0.00162785
O       -6.37696698       9.32842250       5.56520525       30      -0.00090144       0.00202268      -0.00152483
O        2.53442196       9.32842250       5.56520525       30      -0.00093131       0.00192058      -0.00164849
O       -6.37696698      -3.27418460      12.84132385       30      -0.00094126       0.00193153      -0.00165382
O        2.53442196      -3.27418460      12.84132385       30      -0.00084724       0.00198808      -0.00154056
O       -9.34742996       5.12755346      12.84132385       30      -0.00086249       0.00197661      -0.00152768
O       -0.43604102       5.12755346      12.84132385       30      -0.00085916       0.00198873      -0.00152273
O        5.06607598       0.77154203       1.97962785       31       0.00053798       0.00245886       0.00070517
O       13.97746492       0.77154203       1.97962785       31       0.00069811       0.00280214       0.00070592