320
Lattice="17.822777881143228 1.396899361776688e-09 -1.1382994703327434e-15 -5.940925961698087 16.803476131985033 -2.4195028836249587e-09 -5.940925959722579 -8.401738064595605 14.55223720379751" Properties=species:S:1:pos:R:3:spacegroup_kinds:I:1:forces:R:3 spacegroup="P 1" unit_cell=conventional occupancy="_JSON {\"0\": {\"In\": 1}, \"1\": {\"In\": 1}, \"2\": {\"In\": 1}, \"3\": {\"In\": 1}, \"4\": {\"In\": 1}, \"5\": {\"In\": 1}, \"6\": {\"In\": 1}, \"7\": {\"In\": 1}, \"8\": {\"In\": 1}, \"9\": {\"In\": 1}, \"10\": {\"In\": 1}, \"11\": {\"In\": 1}, \"12\": {\"In\": 1}, \"13\": {\"In\": 1}, \"14\": {\"In\": 1}, \"15\": {\"In\": 1}, \"16\": {\"O\": 1}, \"17\": {\"O\": 1}, \"18\": {\"O\": 1}, \"19\": {\"O\": 1}, \"20\": {\"O\": 1}, \"21\": {\"O\": 1}, \"22\": {\"O\": 1}, \"23\": {\"O\": 1}, \"24\": {\"O\": 1}, \"25\": {\"O\": 1}, \"26\": {\"O\": 1}, \"27\": {\"O\": 1}, \"28\": {\"O\": 1}, \"29\": {\"O\": 1}, \"30\": {\"O\": 1}, \"31\": {\"O\": 1}, \"32\": {\"O\": 1}, \"33\": {\"O\": 1}, \"34\": {\"O\": 1}, \"35\": {\"O\": 1}, \"36\": {\"O\": 1}, \"37\": {\"O\": 1}, \"38\": {\"O\": 1}, \"39\": {\"O\": 1}}" n_minim_iter=5 energy=-361215.277870289 stress="1.5109423415644139e-05 6.950592540212457e-07 -5.023577798571076e-09 6.950592540212457e-07 1.8673867392519907e-05 -3.767883785685731e-06 -5.023577798571076e-09 -3.767883785685731e-06 2.0167520380458256e-05" free_energy=-45151.90977927077 pbc="T T T"
In      -4.25543745       3.00904868       5.70235271        0       0.00444038      -0.00233364       0.00420255
In       4.65595149       3.00904868       5.70235271        0       0.00321174      -0.00245340       0.00419110
In      -7.22590043      11.41078675       5.70235271        0       0.00345964      -0.00245961       0.00421646
In       1.68548851      11.41078675       5.70235271        0       0.00346031      -0.00249533       0.00422613
In      -7.22590043      -1.19182035      12.97847131        0       0.00342234      -0.00251947       0.00432959
In       1.68548851      -1.19182035      12.97847131        0       0.00346031      -0.00241700       0.00420668
In     -10.19636341       7.20991771      12.97847131        0       0.00347378      -0.00244236       0.00422367
In      -1.28497447       7.20991771      12.97847131        0       0.00345335      -0.00240988       0.00424363
In       7.22590043       1.19182036       1.57376589        1      -0.00346365       0.00240052      -0.00420329
In      16.13728937       1.19182036       1.57376589        1      -0.00309637       0.00250534      -0.00345322
In       4.25543745       9.59355843       1.57376589        1      -0.00344557       0.00252233      -0.00418969
In      13.16682639       9.59355843       1.57376589        1      -0.00342146       0.00243629      -0.00422693
In       4.25543745      -3.00904867       8.84988449        1      -0.00344518       0.00243958      -0.00422297
In      13.16682639      -3.00904867       8.84988449        1      -0.00341778       0.00248443      -0.00425705
In       1.28497447       5.39268939       8.84988449        1      -0.00381051       0.00198581      -0.00513637
In      10.19636341       5.39268939       8.84988449        1      -0.00347864       0.00244388      -0.00422258
In       1.28497447      -0.90861416       5.21182519        2      -0.00372023       0.00314874      -0.00371002
In      10.19636341      -0.90861416       5.21182519        2      -0.00347473       0.00243409      -0.00423682
In      -1.68548851       7.49312391       5.21182519        2      -0.00329637       0.00219199      -0.00404094
In       7.22590043       7.49312391       5.21182519        2      -0.00346665       0.00244653      -0.00416356
In      -1.68548851      -5.10948319      12.48794379        2      -0.00345325       0.00237541      -0.00420373
In       7.22590043      -5.10948319      12.48794379        2      -0.00342869       0.00244408      -0.00420857
In      -4.65595149       3.29225487      12.48794379        2      -0.00341281       0.00247049      -0.00428870
In       4.25543745       3.29225487      12.48794379        2      -0.00339470       0.00245289      -0.00421514
In      -1.48523149      -2.10043451       3.63805930        3       0.00007032       0.00003874      -0.00000354
In       7.42615745      -2.10043451       3.63805930        3      -0.00001703       0.00002251       0.00000039
In      -4.45569447       6.30130356       3.63805930        3       0.00000085      -0.00001258       0.00002891
In       4.45569447       6.30130356       3.63805930        3       0.00016733      -0.00021874       0.00014126
In      -4.45569447      -6.30130354      10.91417790        3      -0.00000340      -0.00000441      -0.00007110
In       4.45569447      -6.30130354      10.91417790        3       0.00000156      -0.00000923      -0.00000691
In      -7.42615745       2.10043452      10.91417790        3       0.00001778      -0.00000095       0.00002213
In       1.48523149       2.10043452      10.91417790        3      -0.00004762      -0.00002428      -0.00011028
In      -1.28497447       4.05926594       3.39279554        4       0.00040348      -0.00397585      -0.00100682
In       7.62641447       4.05926594       3.39279554        4       0.00351229      -0.00242121      -0.00425614
In      -4.25543745      12.46100401       3.39279554        4       0.00346020      -0.00243292      -0.00420342
In       4.65595149      12.46100401       3.39279554        4       0.00341195      -0.00244161      -0.00423520
In      -4.25543745      -0.14160309      10.66891414        4       0.00344296      -0.00241873      -0.00429290
In       4.65595149      -0.14160309      10.66891414        4       0.00343367      -0.00241567      -0.00423656
In      -7.22590043       8.26013497      10.66891414        4       0.00345741      -0.00242711      -0.00420097
In       1.68548851       8.26013497      10.66891414        4       0.00345780      -0.00250089      -0.00427740
In       4.65595149      -2.86744558       5.45708895        5       0.00339678       0.00495055      -0.00002498
In      13.56734043      -2.86744558       5.45708895        5       0.00341467       0.00484093      -0.00000968
In       1.68548851       5.53429249       5.45708895        5       0.00419159       0.00593776       0.00557108
In      10.59687745       5.53429249       5.45708895        5       0.00348511       0.00487944      -0.00001880
In       1.68548851      -7.06831461      12.73320755        5       0.00342253       0.00486669      -0.00001393
In      10.59687745      -7.06831461      12.73320755        5       0.00336776       0.00483502      -0.00010015
In      -1.28497447       1.33342345      12.73320755        5       0.00350547       0.00492078      -0.00003933
In       7.62641447       1.33342345      12.73320755        5       0.00346910       0.00485365      -0.00000222
In      -1.28497447       1.33342346       5.45708895        6       0.00447245       0.00603736      -0.00023228
In       7.62641447       1.33342346       5.45708895        6       0.00344748       0.00484733       0.00000666
In      -4.25543745       9.73516153       5.45708895        6       0.00343883       0.00487915       0.00000409
In       4.65595149       9.73516153       5.45708895        6       0.00354047       0.00499899       0.00000130
In      -4.25543745      -2.86744557      12.73320755        6       0.00347546       0.00499011      -0.00099125
In       4.65595149      -2.86744557      12.73320755        6       0.00341912       0.00487209      -0.00001393
In      -7.22590043       5.53429249      12.73320755        6       0.00344467       0.00483357      -0.00001499
In       1.68548851       5.53429249      12.73320755        6       0.00345340       0.00489488       0.00002981
In      -1.68548851       7.06831461       1.81902965        7      -0.00370868      -0.00501714       0.00027938
In       7.22590043       7.06831461       1.81902965        7      -0.00334641      -0.00487133       0.00004162
In      -4.65595149      15.47005268       1.81902965        7      -0.00339747      -0.00476007       0.00016035
In       4.25543745      15.47005268       1.81902965        7      -0.00344321      -0.00487553      -0.00000022
In      -4.65595149       2.86744558       9.09514825        7      -0.00341007      -0.00486540      -0.00003211
In       4.25543745       2.86744558       9.09514825        7      -0.00345253      -0.00488698      -0.00010167
In      -7.62641447      11.26918364       9.09514825        7      -0.00344439      -0.00486819      -0.00004535
In       1.28497447      11.26918364       9.09514825        7      -0.00345419      -0.00491258      -0.00002587
In       4.25543745       0.14160310       3.88332306        8      -0.00348771       0.00222105       0.00423532
In      13.16682639       0.14160310       3.88332306        8      -0.00343629       0.00250062       0.00420972
In       1.28497447       8.54334117       3.88332306        8      -0.00393326       0.00240945       0.00455833
In      10.19636341       8.54334117       3.88332306        8      -0.00341164       0.00244270       0.00422182
In       1.28497447      -4.05926593      11.15944166        8      -0.00342358       0.00245622       0.00420262
In      10.19636341      -4.05926593      11.15944166        8      -0.00345768       0.00242803       0.00422396
In      -1.68548851       4.34247213      11.15944166        8      -0.00339791       0.00241445       0.00412811
In       7.22590043       4.34247213      11.15944166        8      -0.00347843       0.00243267       0.00421825
In       7.42615745       4.20086903      -0.00000000        9       0.00008173      -0.00003587      -0.00001654
In      16.33754639       4.20086903      -0.00000000        9      -0.00035672      -0.00017801      -0.00005462
In       4.45569447      12.60260710      -0.00000000        9      -0.00004052       0.00000733      -0.00001833
In      13.36708341      12.60260710      -0.00000000        9      -0.00000286       0.00000762      -0.00000516
In       4.45569447      -0.00000000       7.27611860        9      -0.00006247       0.00003126      -0.00003158
In      13.36708341      -0.00000000       7.27611860        9       0.00004467       0.00003046       0.00000277
In       1.48523149       8.40173806       7.27611860        9      -0.00002642      -0.00004305       0.00012294
In      10.39662043       8.40173807       7.27611860        9       0.00000990      -0.00000400       0.00000160
In       4.25543745       6.44290665       0.24526376       10      -0.00340765       0.00250483       0.00422128
In      13.16682639       6.44290665       0.24526376       10      -0.00345931       0.00250656       0.00413752
In       1.28497447      14.84464472       0.24526376       10      -0.00342053       0.00241521       0.00422941
In      10.19636341      14.84464472       0.24526376       10      -0.00342462       0.00241650       0.00421465
In       1.28497447       2.24203762       7.52138236       10      -0.00361421       0.00285420       0.00246949
In      10.19636341       2.24203762       7.52138236       10      -0.00345817       0.00243065       0.00421194
In      -1.68548851      10.64377568       7.52138236       10      -0.00344837       0.00242717       0.00424223
In       7.22590043      10.64377568       7.52138236       10      -0.00342969       0.00242905       0.00421172
In      -1.28497447      -2.24203761       7.03085484       11       0.00350194      -0.00237878      -0.00422981
In       7.62641447      -2.24203761       7.03085484       11       0.00344197      -0.00242863      -0.00421982
In      -4.25543745       6.15970046       7.03085484       11       0.00346608      -0.00238021      -0.00424664
In       4.65595149       6.15970046       7.03085484       11       0.00333168      -0.00247136      -0.00412311
In      -4.25543745      -6.44290664      14.30697344       11       0.00366559      -0.00260102      -0.00477247
In       4.65595149      -6.44290664      14.30697344       11       0.00346350      -0.00243491      -0.00420827
In      -7.22590043       1.95883142      14.30697344       11       0.00344221      -0.00244254      -0.00422104
In       1.68548851       1.95883142      14.30697344       11       0.00343107      -0.00244793      -0.00424417
In       4.25543745       2.86744558       1.81902965       12      -0.00337237      -0.00521018       0.00017274
In      13.16682639       2.86744558       1.81902965       12      -0.00353053      -0.00489868       0.00004524
In       1.28497447      11.26918365       1.81902965       12      -0.00345025      -0.00488286       0.00001489
In      10.19636341      11.26918365       1.81902965       12      -0.00344572      -0.00487294       0.00000378
In       1.28497447      -1.33342345       9.09514825       12      -0.00345388      -0.00477396      -0.00006575
In      10.19636341      -1.33342345       9.09514825       12      -0.00343715      -0.00488088      -0.00000397
In      -1.68548851       7.06831461       9.09514825       12      -0.00338466      -0.00485329      -0.00010469
In       7.22590043       7.06831461       9.09514825       12      -0.00347337      -0.00488852      -0.00002599
In       1.68548851       5.10948320       2.06429341       13      -0.00325054      -0.01023964       0.01974775
In      10.59687745       5.10948320       2.06429341       13       0.00342066      -0.00243285       0.00422198
In      -1.28497447      13.51122127       2.06429341       13       0.00339519      -0.00235289       0.00424953
In       7.62641447      13.51122127       2.06429341       13       0.00347704      -0.00239956       0.00426602
In      -1.28497447       0.90861417       9.34041201       13       0.00338874      -0.00225885       0.00391694
In       7.62641447       0.90861417       9.34041201       13       0.00346144      -0.00243460       0.00421777
In      -4.25543745       9.31035223       9.34041201       13       0.00347630      -0.00248562       0.00421174
In       4.65595149       9.31035223       9.34041201       13       0.00342016      -0.00247649       0.00419798
In       1.48523149       8.40173807      -0.00000000       14       0.00000658       0.00053723      -0.00035169
In      10.39662043       8.40173807      -0.00000000       14      -0.00002628       0.00001602      -0.00000329
In      -1.48523149      16.80347613      -0.00000000       14       0.00011111      -0.00008464      -0.00007255
In       7.42615745      16.80347613      -0.00000000       14      -0.00004623      -0.00001371      -0.00002473
In      -1.48523149       4.20086903       7.27611860       14       0.00086858       0.00012733      -0.00129498
In       7.42615745       4.20086903       7.27611860       14       0.00000913      -0.00000062       0.00002861
In      -4.45569447      12.60260710       7.27611860       14      -0.00000610      -0.00000452       0.00000933
In       4.45569447      12.60260710       7.27611860       14      -0.00001289       0.00001635      -0.00000278
In       1.48523149       2.10043452       3.63805930       15       0.00075642      -0.00549812       0.00227402
In      10.39662043       2.10043452       3.63805930       15      -0.00001308      -0.00000567       0.00000172
In      -1.48523149      10.50217259       3.63805930       15       0.00000364       0.00008382       0.00000567
In       7.42615745      10.50217259       3.63805930       15       0.00000245      -0.00000219      -0.00000503
In      -1.48523149      -2.10043451      10.91417790       15       0.00004366       0.00003464      -0.00009681
In       7.42615745      -2.10043451      10.91417790       15      -0.00000012       0.00001495       0.00002674
In      -4.45569447       6.30130355      10.91417790       15      -0.00000396       0.00001558      -0.00001401
In       4.45569447       6.30130355      10.91417790       15      -0.00001070       0.00000587      -0.00000488
O        0.87151664       4.19589950       3.96786320       16       0.01792358       0.03550764      -0.05808288
O        9.78623891       4.20061355       3.95969823       16      -0.00058828       0.00181028      -0.00185726
O       -2.09561301      12.60235162       3.95969823       16      -0.00057483       0.00186691      -0.00186660
O        6.81577593      12.60235162       3.95969823       16      -0.00054429       0.00187939      -0.00183212
O       -2.09561301      -0.00025548      11.23581683       16      -0.00047513       0.00193776      -0.00207849
O        6.81577593      -0.00025548      11.23581683       16      -0.00061633       0.00180478      -0.00186176
O       -5.06607599       8.40148258      11.23581683       16      -0.00058441       0.00178868      -0.00186181
O        3.84531295       8.40148258      11.23581683       16      -0.00058084       0.00180510      -0.00192227
O       -2.09561301       3.42932701       5.29649074       17      -0.00560929      -0.00417920       0.00104490
O        6.81577593       3.42932701       5.29649074       17      -0.00060409      -0.00246187      -0.00069355
O       -5.06607599      11.83106508       5.29649074       17      -0.00061134      -0.00258754      -0.00063348
O        3.84531295      11.83106508       5.29649074       17      -0.00063732      -0.00254531      -0.00066887
O       -5.06607599      -0.77154202      12.57260934       17      -0.00068886      -0.00238676      -0.00072968
O        3.84531295      -0.77154202      12.57260934       17      -0.00060976      -0.00247375      -0.00065684
O       -8.03653897       7.63019604      12.57260934       17      -0.00063072      -0.00248642      -0.00064410
O        0.87484997       7.63019604      12.57260934       17      -0.00061807      -0.00246511      -0.00056753
O       -0.43604102       2.25583240       0.05292442       18      -0.00071005      -0.00199666      -0.00052259
O        8.47534792       2.25583240       0.05292442       18      -0.00095179      -0.00230647      -0.00090734
O       -3.40650400      10.65757047       0.05292442       18      -0.00083697      -0.00240570      -0.00092171
O        5.50488494      10.65757047       0.05292442       18      -0.00093918      -0.00241742      -0.00091431
O       -3.40650400      -1.94503663       7.32904302       18      -0.00092792      -0.00241143      -0.00087896
O        5.50488494      -1.94503663       7.32904302       18      -0.00084234      -0.00231035      -0.00092387
O       -6.37696698       6.45670143       7.32904302       18      -0.00089538      -0.00227166      -0.00093140
O        2.53442196       6.45670143       7.32904302       18      -0.00098485      -0.00234400      -0.00175753
O       -0.87484998      -0.77179752       1.98007037       19       0.00060137      -0.00103279      -0.00271125
O        8.03653896      -0.77179752       1.98007037       19       0.00056101      -0.00065253      -0.00247835
O       -3.84531296       7.62994055       1.98007037       19       0.00034649      -0.00065844      -0.00253125
O        5.06607598       7.62994055       1.98007037       19       0.00061351      -0.00080321      -0.00263799
O       -3.84531296      -4.97266655       9.25618897       19       0.00059426      -0.00069384      -0.00249723
O        5.06607598      -4.97266655       9.25618897       19       0.00059127      -0.00069229      -0.00247662
O       -6.81577594       3.42907151       9.25618897       19       0.00060207      -0.00069614      -0.00247148
O        2.09561300       3.42907151       9.25618897       19       0.00086391      -0.00121253      -0.00189020
O        3.93173817       5.00322248       1.92714595       20      -0.00254292       0.00033680      -0.00131378
O       12.84312711       5.00322248       1.92714595       20      -0.00214346       0.00014099      -0.00152781
O        0.96127519      13.40496055       1.92714595       20      -0.00215648       0.00007779      -0.00151603
O        9.87266413      13.40496055       1.92714595       20      -0.00217999       0.00012419      -0.00156455
O        0.96127519       0.80235345       9.20326455       20      -0.00214407       0.00035700      -0.00166131
O        9.87266413       0.80235345       9.20326455       20      -0.00214175       0.00015652      -0.00154333
O       -2.00918779       9.20409151       9.20326455       20      -0.00224151       0.00014247      -0.00150234
O        6.90220115       9.20409151       9.20326455       20      -0.00215657       0.00014363      -0.00150540
O        2.00918778       2.93308841       1.65843144       21      -0.00148956       0.00781553       0.00844433
O       10.92057672       2.93308841       1.65843144       21       0.00212039       0.00139937      -0.00062724
O       -0.96127520      11.33482648       1.65843144       21       0.00218135       0.00138367      -0.00066384
O        7.95011374      11.33482648       1.65843144       21       0.00216231       0.00140392      -0.00063840
O       -0.96127520      -1.26778062       8.93455004       21       0.00213283       0.00153741      -0.00064306
O        7.95011374      -1.26778062       8.93455004       21       0.00215401       0.00139903      -0.00064310
O       -3.93173818       7.13395744       8.93455004       21       0.00212724       0.00150347      -0.00063904
O        4.97965076       7.13395744       8.93455004       21       0.00223952       0.00157085      -0.00063274
O        2.00918778       6.27100311       0.26871451       22       0.00284907      -0.00035655      -0.00161193
O       10.92057672       6.27100311       0.26871451       22       0.00219926      -0.00125222      -0.00088563
O       -0.96127520      14.67274118       0.26871451       22       0.00212446      -0.00117862      -0.00086235
O        7.95011374      14.67274118       0.26871451       22       0.00214548      -0.00126703      -0.00088582
O       -0.96127520       2.07013408       7.54483311       22       0.00163923      -0.00230466       0.00049998
O        7.95011374       2.07013408       7.54483311       22       0.00216301      -0.00128888      -0.00084816
O       -3.93173818      10.47187214       7.54483311       22       0.00216582      -0.00130296      -0.00088354
O        4.97965076      10.47187214       7.54483311       22       0.00212991      -0.00129034      -0.00090548
O       -2.27216619       5.96046283       3.69098372       23       0.00171901       0.00196286      -0.00132727
O        6.63922275       5.96046283       3.69098372       23       0.00199906       0.00155314      -0.00095419
O       -5.24262917      14.36220090       3.69098372       23       0.00195724       0.00172765      -0.00097734
O        3.66875977      14.36220090       3.69098372       23       0.00190711       0.00161900      -0.00094923
O       -5.24262917       1.75959380      10.96710232       23       0.00185486       0.00153483      -0.00087216
O        3.66875977       1.75959380      10.96710232       23       0.00199334       0.00155776      -0.00086509
O       -8.21309215      10.16133186      10.96710232       23       0.00182361       0.00157600      -0.00087423
O        0.69829679      10.16133186      10.96710232       23       0.00188847       0.00158497      -0.00093799
O        3.40650400       1.94503664       7.22319418       24       0.00086298       0.00221131       0.00130606
O       12.31789294       1.94503664       7.22319418       24       0.00081351       0.00231463       0.00092726
O        0.43604102      10.34677471       7.22319418       24       0.00093007       0.00232855       0.00086807
O        9.34742996      10.34677471       7.22319418       24       0.00086710       0.00232234       0.00095701
O        0.43604102      -2.25583239      14.49931278       24       0.00085723       0.00236055       0.00086949
O        9.34742996      -2.25583239      14.49931278       24       0.00191425       0.00190493       0.00169690
O       -2.53442196       6.14590567      14.49931278       24       0.00086401       0.00231633       0.00093833
O        6.37696698       6.14590567      14.49931278       24       0.00088847       0.00233013       0.00096338
O        5.24262917      -1.75959380       3.58513488       25      -0.00187075      -0.00160420       0.00084893
O       14.15401811      -1.75959380       3.58513488       25      -0.00194432      -0.00165679       0.00086295
O        2.27216619       6.64214427       3.58513488       25      -0.01009844      -0.01509861       0.00128923
O       11.18355513       6.64214427       3.58513488       25      -0.00193348      -0.00156124       0.00092744
O        2.27216619      -5.96046283      10.86125348       25      -0.00187783      -0.00157990       0.00093656
O       11.18355513      -5.96046283      10.86125348       25      -0.00189528      -0.00156304       0.00093903
O       -0.69829679       2.44127523      10.86125348       25      -0.00197062      -0.00167163       0.00086169
O        8.21309215       2.44127523      10.86125348       25      -0.00190590      -0.00157449       0.00094323
O        6.37696698       3.27418461       1.71091335       26       0.00089886      -0.00198934       0.00150199
O       15.28835592       3.27418461       1.71091335       26       0.00077501      -0.00177399       0.00129373
O        3.40650400      11.67592268       1.71091335       26       0.00087492      -0.00203074       0.00157972
O       12.31789294      11.67592268       1.71091335       26       0.00086000      -0.00199230       0.00154286
O        3.40650400      -0.92668442       8.98703195       26       0.00094141      -0.00198710       0.00144048
O       12.31789294      -0.92668442       8.98703195       26       0.00080439      -0.00201236       0.00155443
O        0.43604102       7.47505364       8.98703195       26       0.00083908      -0.00200964       0.00134527
O        9.34742996       7.47505364       8.98703195       26       0.00086993      -0.00198803       0.00153892
O        3.66875977       2.31668877       3.90677381       27       0.00290222      -0.00177989      -0.00125421
O       12.58014871       2.31668877       3.90677381       27       0.00193801      -0.00156605      -0.00093737
O        0.69829679      10.71842684       3.90677381       27       0.00190786      -0.00145461      -0.00091166
O        9.60968573      10.71842684       3.90677381       27       0.00191401      -0.00157918      -0.00088694
O        0.69829679      -1.88418026      11.18289241       27       0.00190690      -0.00163441      -0.00084464
O        9.60968573      -1.88418026      11.18289241       27       0.00194911      -0.00163455      -0.00080320
O       -2.27216619       6.51755780      11.18289241       27       0.00184693      -0.00158069      -0.00082112
O        6.63922275       6.51755780      11.18289241       27       0.00191641      -0.00155130      -0.00081874
O        0.69829679       4.32545550       6.95447967       28       0.00231522       0.00179580       0.01358665
O        9.60968573       4.32545550       6.95447967       28       0.00191792       0.00005283       0.00185731
O       -2.27216619      12.72719357       6.95447967       28       0.00192337       0.00003753       0.00186407
O        6.63922275      12.72719357       6.95447967       28       0.00194675       0.00010267       0.00183484
O       -2.27216619       0.12458647      14.23059827       28       0.00197654       0.00015060       0.00184332
O        6.63922275       0.12458647      14.23059827       28       0.00198119       0.00000813       0.00192249
O       -5.24262917       8.52632453      14.23059827       28       0.00186224       0.00008593       0.00191452
O        3.66875977       8.52632453      14.23059827       28       0.00190929       0.00006798       0.00191851
O        2.27216619      -0.12458646       0.32163893       29      -0.00193814       0.00015770      -0.00157367
O       11.18355513      -0.12458646       0.32163893       29      -0.00189794      -0.00004231      -0.00184558
O       -0.69829679       8.27715161       0.32163893       29      -0.00190142       0.00007409      -0.00192638
O        8.21309215       8.27715161       0.32163893       29      -0.00192219      -0.00005266      -0.00185481
O       -0.69829679      -4.32545549       7.59775753       29      -0.00192214      -0.00007953      -0.00181450
O        8.21309215      -4.32545549       7.59775753       29      -0.00190722      -0.00005359      -0.00186095
O       -3.66875977       4.07628257       7.59775753       29      -0.00167247       0.00018288      -0.00169505
O        5.24262917       4.07628257       7.59775753       29      -0.00195438      -0.00008057      -0.00181464
O       -3.40650400       0.92668443       5.56520525       30      -0.00073589       0.00169313      -0.00144967
O        5.50488494       0.92668443       5.56520525       30      -0.00108524       0.00208631      -0.00152169
O       -6.37696698       9.32842250       5.56520525       30      -0.00087064       0.00199289      -0.00152276
O        2.53442196       9.32842250       5.56520525       30      -0.00092694       0.00162861      -0.00153647
O       -6.37696698      -3.27418460      12.84132385       30      -0.00111131       0.00207771      -0.00192972
O        2.53442196      -3.27418460      12.84132385       30      -0.00084818       0.00199122      -0.00154359
O       -9.34742996       5.12755346      12.84132385       30      -0.00086349       0.00198603      -0.00152724
O       -0.43604102       5.12755346      12.84132385       30      -0.00091141       0.00197864      -0.00144110
O        5.06607598       0.77154203       1.97962785       31       0.00038861       0.00260971       0.00073539
O       13.97746492       0.77154203       1.97962785       31       0.00072350       0.00265461       0.00067527