320
Lattice="17.822777881143228 1.396899361776688e-09 -1.1382994703327434e-15 -5.940925961698087 16.803476131985033 -2.4195028836249587e-09 -5.940925959722579 -8.401738064595605 14.55223720379751" Properties=species:S:1:pos:R:3:spacegroup_kinds:I:1:forces:R:3 spacegroup="P 1" unit_cell=conventional occupancy="_JSON {\"0\": {\"In\": 1}, \"1\": {\"In\": 1}, \"2\": {\"In\": 1}, \"3\": {\"In\": 1}, \"4\": {\"In\": 1}, \"5\": {\"In\": 1}, \"6\": {\"In\": 1}, \"7\": {\"In\": 1}, \"8\": {\"In\": 1}, \"9\": {\"In\": 1}, \"10\": {\"In\": 1}, \"11\": {\"In\": 1}, \"12\": {\"In\": 1}, \"13\": {\"In\": 1}, \"14\": {\"In\": 1}, \"15\": {\"In\": 1}, \"16\": {\"O\": 1}, \"17\": {\"O\": 1}, \"18\": {\"O\": 1}, \"19\": {\"O\": 1}, \"20\": {\"O\": 1}, \"21\": {\"O\": 1}, \"22\": {\"O\": 1}, \"23\": {\"O\": 1}, \"24\": {\"O\": 1}, \"25\": {\"O\": 1}, \"26\": {\"O\": 1}, \"27\": {\"O\": 1}, \"28\": {\"O\": 1}, \"29\": {\"O\": 1}, \"30\": {\"O\": 1}, \"31\": {\"O\": 1}, \"32\": {\"O\": 1}, \"33\": {\"O\": 1}, \"34\": {\"O\": 1}, \"35\": {\"O\": 1}, \"36\": {\"O\": 1}, \"37\": {\"O\": 1}, \"38\": {\"O\": 1}, \"39\": {\"O\": 1}}" n_minim_iter=5 energy=-361215.2778054297 stress="1.4261999614688742e-05 6.737696018135073e-06 7.30730329192017e-06 6.737696018135073e-06 7.999138224332312e-06 -4.171784049671977e-06 7.30730329192017e-06 -4.171784049671977e-06 1.847876001591004e-05" free_energy=-45151.90977927077 pbc="T T T"
In      -4.25543745       3.00904868       5.70235271        0       0.00337593      -0.00241240       0.00419490
In       4.65595149       3.00904868       5.70235271        0       0.00279133      -0.00265639       0.00342621
In      -7.22590043      11.41078675       5.70235271        0       0.00345646      -0.00245474       0.00421289
In       1.68548851      11.41078675       5.70235271        0       0.00346751      -0.00233402       0.00421000
In      -7.22590043      -1.19182035      12.97847131        0       0.00337934      -0.00243411       0.00425542
In       1.68548851      -1.19182035      12.97847131        0       0.00345493      -0.00243021       0.00421420
In     -10.19636341       7.20991771      12.97847131        0       0.00345926      -0.00236106       0.00426511
In      -1.28497447       7.20991771      12.97847131        0       0.00343928      -0.00244285       0.00422125
In       7.22590043       1.19182036       1.57376589        1      -0.00352972       0.00242925      -0.00418027
In      16.13728937       1.19182036       1.57376589        1      -0.00338974       0.00194249      -0.00391140
In       4.25543745       9.59355843       1.57376589        1      -0.00339844       0.00256826      -0.00424454
In      13.16682639       9.59355843       1.57376589        1      -0.00345940       0.00247067      -0.00423577
In       4.25543745      -3.00904867       8.84988449        1      -0.00344287       0.00245225      -0.00422827
In      13.16682639      -3.00904867       8.84988449        1      -0.00342078       0.00246376      -0.00424935
In       1.28497447       5.39268939       8.84988449        1      -0.00354058       0.00226124      -0.00426219
In      10.19636341       5.39268939       8.84988449        1      -0.00345108       0.00243214      -0.00422494
In       1.28497447      -0.90861416       5.21182519        2      -0.00355130       0.00285248      -0.00396433
In      10.19636341      -0.90861416       5.21182519        2      -0.00346265       0.00243989      -0.00422655
In      -1.68548851       7.49312391       5.21182519        2      -0.00367292       0.00292588      -0.00459410
In       7.22590043       7.49312391       5.21182519        2      -0.00339688       0.00244154      -0.00424036
In      -1.68548851      -5.10948319      12.48794379        2      -0.00353023       0.00247047      -0.00410166
In       7.22590043      -5.10948319      12.48794379        2      -0.00341955       0.00243689      -0.00419274
In      -4.65595149       3.29225487      12.48794379        2      -0.00346515       0.00244275      -0.00422374
In       4.25543745       3.29225487      12.48794379        2      -0.00343320       0.00244010      -0.00423849
In      -1.48523149      -2.10043451       3.63805930        3       0.00004289      -0.00002993       0.00001918
In       7.42615745      -2.10043451       3.63805930        3      -0.00002107       0.00002139       0.00000625
In      -4.45569447       6.30130356       3.63805930        3      -0.00037346       0.00016967      -0.00004606
In       4.45569447       6.30130356       3.63805930        3       0.00075475      -0.00021554      -0.00006130
In      -4.45569447      -6.30130354      10.91417790        3      -0.00001759      -0.00000578      -0.00002358
In       4.45569447      -6.30130354      10.91417790        3       0.00000001       0.00000776       0.00000805
In      -7.42615745       2.10043452      10.91417790        3       0.00000436      -0.00000721       0.00003220
In       1.48523149       2.10043452      10.91417790        3      -0.00000424      -0.00006139      -0.00000062
In      -1.28497447       4.05926594       3.39279554        4       0.00995691      -0.00593546      -0.00392116
In       7.62641447       4.05926594       3.39279554        4       0.00340015      -0.00237549      -0.00422106
In      -4.25543745      12.46100401       3.39279554        4       0.00346722      -0.00238460      -0.00423836
In       4.65595149      12.46100401       3.39279554        4       0.00339703      -0.00247252      -0.00422643
In      -4.25543745      -0.14160309      10.66891414        4       0.00345325      -0.00246385      -0.00425882
In       4.65595149      -0.14160309      10.66891414        4       0.00343728      -0.00242786      -0.00426123
In      -7.22590043       8.26013497      10.66891414        4       0.00343332      -0.00245135      -0.00422826
In       1.68548851       8.26013497      10.66891414        4       0.00345762      -0.00240279      -0.00403108
In       4.65595149      -2.86744558       5.45708895        5       0.00333138       0.00508395      -0.00009001
In      13.56734043      -2.86744558       5.45708895        5       0.00342558       0.00487222      -0.00002611
In       1.68548851       5.53429249       5.45708895        5      -0.00217619      -0.01024117      -0.01394247
In      10.59687745       5.53429249       5.45708895        5       0.00339486       0.00488323       0.00000760
In       1.68548851      -7.06831461      12.73320755        5       0.00347735       0.00487467       0.00000184
In      10.59687745      -7.06831461      12.73320755        5       0.00350413       0.00492369       0.00006935
In      -1.28497447       1.33342345      12.73320755        5       0.00347090       0.00485810       0.00001618
In       7.62641447       1.33342345      12.73320755        5       0.00347500       0.00484997      -0.00000373
In      -1.28497447       1.33342346       5.45708895        6       0.00446568       0.00513671      -0.00045505
In       7.62641447       1.33342346       5.45708895        6       0.00338152       0.00485406      -0.00001688
In      -4.25543745       9.73516153       5.45708895        6       0.00338993       0.00491837      -0.00000359
In       4.65595149       9.73516153       5.45708895        6       0.00352982       0.00494645      -0.00003062
In      -4.25543745      -2.86744557      12.73320755        6       0.00342865       0.00481834      -0.00022140
In       4.65595149      -2.86744557      12.73320755        6       0.00341951       0.00487175      -0.00001355
In      -7.22590043       5.53429249      12.73320755        6       0.00346855       0.00490857       0.00001665
In       1.68548851       5.53429249      12.73320755        6       0.00346278       0.00488858       0.00004494
In      -1.68548851       7.06831461       1.81902965        7      -0.00326954      -0.00541198       0.00016472
In       7.22590043       7.06831461       1.81902965        7      -0.00339677      -0.00486374       0.00001424
In      -4.65595149      15.47005268       1.81902965        7      -0.00330398      -0.00387742       0.00053035
In       4.25543745      15.47005268       1.81902965        7      -0.00345860      -0.00486888       0.00000067
In      -4.65595149       2.86744558       9.09514825        7      -0.00345721      -0.00488918       0.00000788
In       4.25543745       2.86744558       9.09514825        7      -0.00352184      -0.00493876      -0.00013222
In      -7.62641447      11.26918364       9.09514825        7      -0.00344879      -0.00487802       0.00003800
In       1.28497447      11.26918364       9.09514825        7      -0.00343563      -0.00483135       0.00001984
In       4.25543745       0.14160310       3.88332306        8      -0.00348081       0.00268510       0.00441537
In      13.16682639       0.14160310       3.88332306        8      -0.00336953       0.00253414       0.00420514
In       1.28497447       8.54334117       3.88332306        8      -0.00353820       0.00201892       0.00411438
In      10.19636341       8.54334117       3.88332306        8      -0.00342795       0.00244030       0.00421491
In       1.28497447      -4.05926593      11.15944166        8      -0.00347004       0.00242403       0.00424169
In      10.19636341      -4.05926593      11.15944166        8      -0.00344099       0.00244420       0.00427797
In      -1.68548851       4.34247213      11.15944166        8      -0.00344555       0.00241518       0.00423727
In       7.22590043       4.34247213      11.15944166        8      -0.00344839       0.00244733       0.00424126
In       7.42615745       4.20086903      -0.00000000        9       0.00002154      -0.00000969       0.00000841
In      16.33754639       4.20086903      -0.00000000        9      -0.00046560      -0.00030820      -0.00062667
In       4.45569447      12.60260710      -0.00000000        9      -0.00004326      -0.00001002       0.00002153
In      13.36708341      12.60260710      -0.00000000        9       0.00000060      -0.00000309       0.00001111
In       4.45569447      -0.00000000       7.27611860        9      -0.00007435      -0.00005849      -0.00006442
In      13.36708341      -0.00000000       7.27611860        9       0.00000424      -0.00001513       0.00001120
In       1.48523149       8.40173806       7.27611860        9       0.00021382      -0.00003304      -0.00002811
In      10.39662043       8.40173807       7.27611860        9      -0.00000035       0.00000136      -0.00000419
In       4.25543745       6.44290665       0.24526376       10      -0.00334150       0.00231520       0.00426898
In      13.16682639       6.44290665       0.24526376       10      -0.00340472       0.00247781       0.00417151
In       1.28497447      14.84464472       0.24526376       10      -0.00347434       0.00244164       0.00420001
In      10.19636341      14.84464472       0.24526376       10      -0.00342831       0.00245231       0.00425228
In       1.28497447       2.24203762       7.52138236       10      -0.00335042       0.00197928       0.00279709
In      10.19636341       2.24203762       7.52138236       10      -0.00346113       0.00243769       0.00421701
In      -1.68548851      10.64377568       7.52138236       10      -0.00350025       0.00253755       0.00426990
In       7.22590043      10.64377568       7.52138236       10      -0.00339386       0.00244163       0.00422647
In      -1.28497447      -2.24203761       7.03085484       11       0.00356570      -0.00233465      -0.00430776
In       7.62641447      -2.24203761       7.03085484       11       0.00343819      -0.00241697      -0.00421026
In      -4.25543745       6.15970046       7.03085484       11       0.00345053      -0.00244895      -0.00425089
In       4.65595149       6.15970046       7.03085484       11       0.00349590      -0.00266330      -0.00439198
In      -4.25543745      -6.44290664      14.30697344       11       0.00323115      -0.00203110      -0.00371057
In       4.65595149      -6.44290664      14.30697344       11       0.00344846      -0.00244400      -0.00422155
In      -7.22590043       1.95883142      14.30697344       11       0.00346385      -0.00244231      -0.00422350
In       1.68548851       1.95883142      14.30697344       11       0.00344144      -0.00244333      -0.00422215
In       4.25543745       2.86744558       1.81902965       12      -0.00381653      -0.00481819       0.00057900
In      13.16682639       2.86744558       1.81902965       12      -0.00354824      -0.00489383      -0.00001725
In       1.28497447      11.26918365       1.81902965       12      -0.00344883      -0.00490603      -0.00002721
In      10.19636341      11.26918365       1.81902965       12      -0.00344428      -0.00487783       0.00000940
In       1.28497447      -1.33342345       9.09514825       12      -0.00344388      -0.00478177      -0.00011590
In      10.19636341      -1.33342345       9.09514825       12      -0.00344179      -0.00487388      -0.00001434
In      -1.68548851       7.06831461       9.09514825       12      -0.00346019      -0.00488395       0.00005603
In       7.22590043       7.06831461       9.09514825       12      -0.00342590      -0.00485750       0.00002611
In       1.68548851       5.10948320       2.06429341       13       0.00323781      -0.00781953       0.00744159
In      10.59687745       5.10948320       2.06429341       13       0.00340604      -0.00243742       0.00423026
In      -1.28497447      13.51122127       2.06429341       13       0.00336455      -0.00239793       0.00426635
In       7.62641447      13.51122127       2.06429341       13       0.00344809      -0.00242751       0.00426323
In      -1.28497447       0.90861417       9.34041201       13       0.00340453      -0.00233850       0.00419359
In       7.62641447       0.90861417       9.34041201       13       0.00345543      -0.00244319       0.00421623
In      -4.25543745       9.31035223       9.34041201       13       0.00343254      -0.00242161       0.00423279
In       4.65595149       9.31035223       9.34041201       13       0.00347002      -0.00243549       0.00421529
In       1.48523149       8.40173807      -0.00000000       14       0.00010398       0.00033993      -0.00033998
In      10.39662043       8.40173807      -0.00000000       14      -0.00002347       0.00001094       0.00000680
In      -1.48523149      16.80347613      -0.00000000       14       0.00002222      -0.00011106      -0.00002757
In       7.42615745      16.80347613      -0.00000000       14      -0.00004542       0.00000104      -0.00003244
In      -1.48523149       4.20086903       7.27611860       14      -0.00020369      -0.00018767       0.00044902
In       7.42615745       4.20086903       7.27611860       14       0.00006104      -0.00004807      -0.00001307
In      -4.45569447      12.60260710       7.27611860       14      -0.00000684       0.00003276      -0.00001163
In       4.45569447      12.60260710       7.27611860       14      -0.00002978      -0.00000012      -0.00001480
In       1.48523149       2.10043452       3.63805930       15       0.00823283      -0.02784711      -0.00393590
In      10.39662043       2.10043452       3.63805930       15      -0.00001754       0.00000419       0.00000004
In      -1.48523149      10.50217259       3.63805930       15       0.00002853       0.00010523       0.00012844
In       7.42615745      10.50217259       3.63805930       15       0.00003400       0.00000404      -0.00000636
In      -1.48523149      -2.10043451      10.91417790       15       0.00000318       0.00002176      -0.00002868
In       7.42615745      -2.10043451      10.91417790       15      -0.00000868       0.00001990       0.00001181
In      -4.45569447       6.30130355      10.91417790       15      -0.00001242       0.00000688       0.00001113
In       4.45569447       6.30130355      10.91417790       15       0.00000284       0.00001683       0.00002282
O        0.87818330       4.19118546       3.95969823       16      -0.00847451       0.08647401       0.01171668
O        9.78623891       4.20061355       3.95969823       16      -0.00059969       0.00180622      -0.00184853
O       -2.09561301      12.60235162       3.95969823       16      -0.00064198       0.00190538      -0.00186951
O        6.81577593      12.60235162       3.95969823       16      -0.00053486       0.00187384      -0.00184497
O       -2.09561301      -0.00025548      11.23581683       16      -0.00057485       0.00184689      -0.00191579
O        6.81577593      -0.00025548      11.23581683       16      -0.00061441       0.00180360      -0.00186140
O       -5.06607599       8.40148258      11.23581683       16      -0.00060968       0.00180574      -0.00182624
O        3.84531295       8.40148258      11.23581683       16      -0.00060475       0.00184252      -0.00182072
O       -2.09561301       3.42932701       5.29649074       17      -0.00034079      -0.00209966      -0.00061857
O        6.81577593       3.42932701       5.29649074       17      -0.00058851      -0.00236241      -0.00061523
O       -5.06607599      11.83106508       5.29649074       17      -0.00061001      -0.00264096      -0.00063818
O        3.84531295      11.83106508       5.29649074       17      -0.00065130      -0.00260583      -0.00070164
O       -5.06607599      -0.77154202      12.57260934       17      -0.00063811      -0.00240021      -0.00054241
O        3.84531295      -0.77154202      12.57260934       17      -0.00060196      -0.00249234      -0.00064167
O       -8.03653897       7.63019604      12.57260934       17      -0.00054082      -0.00258347      -0.00072262
O        0.87484997       7.63019604      12.57260934       17      -0.00061470      -0.00255386      -0.00069028
O       -0.43604102       2.25583240       0.05292442       18      -0.00108592      -0.00259047      -0.00172853
O        8.47534792       2.25583240       0.05292442       18      -0.00074231      -0.00234554      -0.00099810
O       -3.40650400      10.65757047       0.05292442       18      -0.00084844      -0.00241330      -0.00096374
O        5.50488494      10.65757047       0.05292442       18      -0.00091573      -0.00237660      -0.00091428
O       -3.40650400      -1.94503663       7.32904302       18      -0.00088456      -0.00242315      -0.00092820
O        5.50488494      -1.94503663       7.32904302       18      -0.00081716      -0.00236129      -0.00084674
O       -6.37696698       6.45670143       7.32904302       18      -0.00080558      -0.00232093      -0.00100675
O        2.53442196       6.45670143       7.32904302       18      -0.00076143      -0.00173142      -0.00052471
O       -0.87484998      -0.77179752       1.98007037       19       0.00085676      -0.00074346      -0.00251813
O        8.03653896      -0.77179752       1.98007037       19       0.00063792      -0.00068937      -0.00252941
O       -3.84531296       7.62994055       1.98007037       19       0.00036950      -0.00066149      -0.00258882
O        5.06607598       7.62994055       1.98007037       19       0.00057817      -0.00073766      -0.00252750
O       -3.84531296      -4.97266655       9.25618897       19       0.00060641      -0.00069054      -0.00249119
O        5.06607598      -4.97266655       9.25618897       19       0.00062407      -0.00071369      -0.00247439
O       -6.81577594       3.42907151       9.25618897       19       0.00060411      -0.00070175      -0.00248929
O        2.09561300       3.42907151       9.25618897       19       0.00051297      -0.00085717      -0.00247113
O        3.93173817       5.00322248       1.92714595       20      -0.00201262       0.00061970      -0.00168860
O       12.84312711       5.00322248       1.92714595       20      -0.00216310       0.00030353      -0.00147162
O        0.96127519      13.40496055       1.92714595       20      -0.00213741      -0.00003599      -0.00153588
O        9.87266413      13.40496055       1.92714595       20      -0.00220364       0.00008305      -0.00160285
O        0.96127519       0.80235345       9.20326455       20      -0.00215371       0.00020859      -0.00141605
O        9.87266413       0.80235345       9.20326455       20      -0.00215869       0.00014748      -0.00153457
O       -2.00918779       9.20409151       9.20326455       20      -0.00216457       0.00023215      -0.00148621
O        6.90220115       9.20409151       9.20326455       20      -0.00217838       0.00010257      -0.00159944
O        2.00918778       2.93308841       1.65843144       21       0.00597758      -0.00267241      -0.01083016
O       10.92057672       2.93308841       1.65843144       21       0.00217021       0.00141226      -0.00063463
O       -0.96127520      11.33482648       1.65843144       21       0.00219588       0.00141173      -0.00067553
O        7.95011374      11.33482648       1.65843144       21       0.00216612       0.00141255      -0.00063601
O       -0.96127520      -1.26778062       8.93455004       21       0.00220487       0.00147240      -0.00070087
O        7.95011374      -1.26778062       8.93455004       21       0.00215359       0.00139929      -0.00064028
O       -3.93173818       7.13395744       8.93455004       21       0.00215317       0.00144350      -0.00068401
O        4.97965076       7.13395744       8.93455004       21       0.00223463       0.00149812      -0.00062863
O        2.00918778       6.27100311       0.26871451       22       0.00213718      -0.00070738      -0.00101110
O       10.92057672       6.27100311       0.26871451       22       0.00222497      -0.00126643      -0.00087154
O       -0.96127520      14.67274118       0.26871451       22       0.00215654      -0.00131065      -0.00092822
O        7.95011374      14.67274118       0.26871451       22       0.00211569      -0.00133517      -0.00090071
O       -0.96127520       2.07013408       7.54483311       22       0.00190628      -0.00152933      -0.00039707
O        7.95011374       2.07013408       7.54483311       22       0.00222254      -0.00132433      -0.00084561
O       -3.93173818      10.47187214       7.54483311       22       0.00224754      -0.00131880      -0.00100996
O        4.97965076      10.47187214       7.54483311       22       0.00210201      -0.00129205      -0.00091177
O       -2.27216619       5.96046283       3.69098372       23       0.00364173       0.00070789      -0.00069805
O        6.63922275       5.96046283       3.69098372       23       0.00190532       0.00150011      -0.00093348
O       -5.24262917      14.36220090       3.69098372       23       0.00202483       0.00178179      -0.00100568
O        3.66875977      14.36220090       3.69098372       23       0.00190372       0.00164147      -0.00095518
O       -5.24262917       1.75959380      10.96710232       23       0.00188105       0.00155525      -0.00092199
O        3.66875977       1.75959380      10.96710232       23       0.00198228       0.00153605      -0.00096375
O       -8.21309215      10.16133186      10.96710232       23       0.00194226       0.00159480      -0.00096065
O        0.69829679      10.16133186      10.96710232       23       0.00192421       0.00157479      -0.00099460
O        3.40650400       1.94503664       7.22319418       24       0.00104088       0.00200002       0.00110816
O       12.31789294       1.94503664       7.22319418       24       0.00084315       0.00239001       0.00099051
O        0.43604102      10.34677471       7.22319418       24       0.00086485       0.00226635       0.00093738
O        9.34742996      10.34677471       7.22319418       24       0.00086800       0.00232257       0.00095699
O        0.43604102      -2.25583239      14.49931278       24       0.00084263       0.00241038       0.00100794
O        9.34742996      -2.25583239      14.49931278       24       0.00154569       0.00204809       0.00120343
O       -2.53442196       6.14590567      14.49931278       24       0.00085332       0.00232321       0.00095805
O        6.37696698       6.14590567      14.49931278       24       0.00084587       0.00221608       0.00090622
O        5.24262917      -1.75959380       3.58513488       25      -0.00199210      -0.00153125       0.00097423
O       14.15401811      -1.75959380       3.58513488       25      -0.00191916      -0.00158127       0.00093509
O        2.27216619       6.64214427       3.58513488       25      -0.01186429      -0.01280252       0.00288601
O       11.18355513       6.64214427       3.58513488       25      -0.00192388      -0.00155901       0.00096028
O        2.27216619      -5.96046283      10.86125348       25      -0.00191430      -0.00158111       0.00096722
O       11.18355513      -5.96046283      10.86125348       25      -0.00194876      -0.00155500       0.00102542
O       -0.69829679       2.44127523      10.86125348       25      -0.00202989      -0.00153623       0.00095085
O        8.21309215       2.44127523      10.86125348       25      -0.00190587      -0.00157456       0.00094262
O        6.37696698       3.27418461       1.71091335       26       0.00079442      -0.00186562       0.00146735
O       15.28835592       3.27418461       1.71091335       26       0.00047413      -0.00183913       0.00116635
O        3.40650400      11.67592268       1.71091335       26       0.00082788      -0.00205492       0.00162474
O       12.31789294      11.67592268       1.71091335       26       0.00087049      -0.00203340       0.00153129
O        3.40650400      -0.92668442       8.98703195       26       0.00085180      -0.00188027       0.00141650
O       12.31789294      -0.92668442       8.98703195       26       0.00084392      -0.00200383       0.00153754
O        0.43604102       7.47505364       8.98703195       26       0.00088127      -0.00194073       0.00146593
O        9.34742996       7.47505364       8.98703195       26       0.00084674      -0.00199369       0.00153029
O        3.66875977       2.31668877       3.90677381       27       0.00637707      -0.00395318      -0.00108159
O       12.58014871       2.31668877       3.90677381       27       0.00191748      -0.00160919      -0.00088039
O        0.69829679      10.71842684       3.90677381       27       0.00197516      -0.00138975      -0.00087963
O        9.60968573      10.71842684       3.90677381       27       0.00191318      -0.00157281      -0.00088836
O        0.69829679      -1.88418026      11.18289241       27       0.00190254      -0.00162795      -0.00087585
O        9.60968573      -1.88418026      11.18289241       27       0.00192264      -0.00160900      -0.00084749
O       -2.27216619       6.51755780      11.18289241       27       0.00195058      -0.00164071      -0.00087467
O        6.63922275       6.51755780      11.18289241       27       0.00188488      -0.00165772      -0.00092885
O        0.69829679       4.32545550       6.95447967       28       0.00198047       0.00177572       0.00129927
O        9.60968573       4.32545550       6.95447967       28       0.00194484       0.00003069       0.00186009
O       -2.27216619      12.72719357       6.95447967       28       0.00194506       0.00003079       0.00185477
O        6.63922275      12.72719357       6.95447967       28       0.00195284       0.00009996       0.00184490
O       -2.27216619       0.12458647      14.23059827       28       0.00187493       0.00006732       0.00185044
O        6.63922275       0.12458647      14.23059827       28       0.00201554       0.00000088       0.00191918
O       -5.24262917       8.52632453      14.23059827       28       0.00195884      -0.00003136       0.00181524
O        3.66875977       8.52632453      14.23059827       28       0.00187438       0.00014885       0.00188609
O        2.27216619      -0.12458646       0.32163893       29      -0.00185227      -0.00014806      -0.00151892
O       11.18355513      -0.12458646       0.32163893       29      -0.00193594      -0.00004646      -0.00185306
O       -0.69829679       8.27715161       0.32163893       29      -0.00171848      -0.00007864      -0.00196363
O        8.21309215       8.27715161       0.32163893       29      -0.00191535      -0.00005153      -0.00184042
O       -0.69829679      -4.32545549       7.59775753       29      -0.00193635      -0.00008576      -0.00180100
O        8.21309215      -4.32545549       7.59775753       29      -0.00191505      -0.00008872      -0.00183761
O       -3.66875977       4.07628257       7.59775753       29      -0.00185324      -0.00007689      -0.00188891
O        5.24262917       4.07628257       7.59775753       29      -0.00171436      -0.00023451      -0.00180704
O       -3.40650400       0.92668443       5.56520525       30      -0.00088720       0.00177794      -0.00134354
O        5.50488494       0.92668443       5.56520525       30      -0.00116193       0.00218064      -0.00145866
O       -6.37696698       9.32842250       5.56520525       30      -0.00075962       0.00192157      -0.00153756
O        2.53442196       9.32842250       5.56520525       30      -0.00114527       0.00171368      -0.00148981
O       -6.37696698      -3.27418460      12.84132385       30      -0.00087791       0.00194130      -0.00148129
O        2.53442196      -3.27418460      12.84132385       30      -0.00086469       0.00197852      -0.00153096
O       -9.34742996       5.12755346      12.84132385       30      -0.00086461       0.00200104      -0.00151792
O       -0.43604102       5.12755346      12.84132385       30      -0.00084186       0.00198359      -0.00153540
O        5.06607598       0.77154203       1.97962785       31       0.00046759       0.00254338       0.00068456
O       13.97746492       0.77154203       1.97962785       31       0.00070962       0.00250966       0.00061825