20
Lattice="5.634372205179093 8.159675657958835e-60 2.3133677145625417e-43 2.755959160405339e-59 5.825279617053973 -7.978487781224479e-17 -1.429453735618001e-42 -1.1593554384566475e-16 9.00203554594311" Properties=species:S:1:pos:R:3:spacegroup_kinds:I:1:forces:R:3 spacegroup="P 1" unit_cell=conventional occupancy="_JSON {\"0\": {\"In\": 1}, \"1\": {\"In\": 1}, \"2\": {\"In\": 1}, \"3\": {\"In\": 1}, \"4\": {\"In\": 1}, \"5\": {\"In\": 1}, \"6\": {\"In\": 1}, \"7\": {\"In\": 1}, \"8\": {\"O\": 1}, \"9\": {\"O\": 1}, \"10\": {\"O\": 1}, \"11\": {\"O\": 1}, \"12\": {\"O\": 1}, \"13\": {\"O\": 1}, \"14\": {\"O\": 1}, \"15\": {\"O\": 1}, \"16\": {\"O\": 1}, \"17\": {\"O\": 1}, \"18\": {\"O\": 1}, \"19\": {\"O\": 1}}" n_minim_iter=18 energy=-22573.426003443794 stress="0.06244459558331002 2.0340890337971918e-13 8.608266534266369e-13 2.0340890337971918e-13 0.06219498066970696 3.615910584364239e-13 8.608266534266369e-13 3.615910584364239e-13 0.062346896750439654" free_energy=-22573.426003443794 pbc="T T T"
In       1.35607194       3.07105433       1.10741895        0       0.00812296       0.00094287      -0.00179160
In       1.46111416       0.15841452       3.39359883        1      -0.00812296       0.00094287       0.00179160
In       1.46111416       2.75422529       5.60843672        2      -0.00812296      -0.00094287      -0.00179160
In       1.35607194       5.66686510       7.89461660        3       0.00812296      -0.00094287       0.00179160
In       4.27830026       2.75422529       7.89461660        4      -0.00812296      -0.00094287       0.00179160
In       4.17325804       5.66686510       5.60843672        5       0.00812296      -0.00094287      -0.00179160
In       4.17325804       3.07105433       3.39359883        6       0.00812296       0.00094287       0.00179160
In       4.27830026       0.15841452       1.10741895        7      -0.00812296       0.00094287      -0.00179160
O        2.22662420       3.52909206       7.52842406        8      -0.00005907       0.00171353      -0.00404145
O        0.59056191       0.61645225       5.97462925        9       0.00005907       0.00171353       0.00404145
O        0.59056191       2.29618755       3.02740629       10       0.00005907      -0.00171353      -0.00404145
O        2.22662420       5.20882736       1.47361148       11      -0.00005907      -0.00171353       0.00404145
O        3.40774801       2.29618755       1.47361148       12       0.00005907      -0.00171353       0.00404145
O        5.04381030       5.20882736       3.02740629       13      -0.00005907      -0.00171353      -0.00404145
O        5.04381030       3.52909206       5.97462925       14      -0.00005907       0.00171353       0.00404145
O        3.40774801       0.61645225       7.52842406       15       0.00005907       0.00171353      -0.00404145
O        5.38251658       4.36895971      -0.00000000       16      -0.00463937      -0.00000000      -0.00000000
O        3.06904173       1.45631990       4.50101777       17       0.00463937      -0.00000000      -0.00000000
O        0.25185563       1.45631990      -0.00000000       18       0.00463937       0.00000000      -0.00000000
O        2.56533048       4.36895971       4.50101777       19      -0.00463937      -0.00000000       0.00000000
