20
Lattice="5.590998453630784 -2.334304247285006e-58 -4.254093728449191e-43 5.269080772002731e-59 5.171186596621121 5.63984561579566e-16 5.250723336816961e-43 8.687845163790396e-16 7.775595585015517" Properties=species:S:1:pos:R:3:spacegroup_kinds:I:1:forces:R:3 spacegroup="P 1" unit_cell=conventional occupancy="_JSON {\"0\": {\"In\": 1}, \"1\": {\"In\": 1}, \"2\": {\"In\": 1}, \"3\": {\"In\": 1}, \"4\": {\"In\": 1}, \"5\": {\"In\": 1}, \"6\": {\"In\": 1}, \"7\": {\"In\": 1}, \"8\": {\"O\": 1}, \"9\": {\"O\": 1}, \"10\": {\"O\": 1}, \"11\": {\"O\": 1}, \"12\": {\"O\": 1}, \"13\": {\"O\": 1}, \"14\": {\"O\": 1}, \"15\": {\"O\": 1}, \"16\": {\"O\": 1}, \"17\": {\"O\": 1}, \"18\": {\"O\": 1}, \"19\": {\"O\": 1}}" n_minim_iter=21 energy=-22573.827939813127 stress="-0.0840697220119371 6.726670699087998e-14 -2.4610095316520414e-12 6.726670699087998e-14 -0.08446290790104664 3.68030504502082e-13 -2.4610095316520414e-12 3.68030504502082e-13 -0.08428531727317448" free_energy=-22573.827939813127 pbc="T T T"
In       1.42976113       2.66028550       0.90418302        0      -0.00161118      -0.00175937       0.00248014
In       1.36573810       0.07469221       2.98361477        1       0.00161118      -0.00175937      -0.00248014
In       1.36573810       2.51090109       4.79198081        2       0.00161118       0.00175937       0.00248014
In       1.42976113       5.09649439       6.87141256        3      -0.00161118       0.00175937      -0.00248014
In       4.16123733       2.51090109       6.87141256        4       0.00161118       0.00175937      -0.00248014
In       4.22526035       5.09649439       4.79198081        5      -0.00161118       0.00175937       0.00248014
In       4.22526035       2.66028550       2.98361477        6      -0.00161118      -0.00175937      -0.00248014
In       4.16123733       0.07469221       0.90418302        7       0.00161118      -0.00175937       0.00248014
O        2.13146942       3.04254929       6.65044454        8       0.00402067      -0.00084122      -0.00031554
O        0.66402981       0.45695599       5.01294884        9      -0.00402067      -0.00084122       0.00031554
O        0.66402981       2.12863731       2.76264674       10      -0.00402067       0.00084122      -0.00031554
O        2.13146942       4.71423061       1.12515105       11       0.00402067       0.00084122       0.00031554
O        3.45952904       2.12863731       1.12515105       12      -0.00402067       0.00084122       0.00031555
O        4.92696864       4.71423061       2.76264674       13       0.00402067       0.00084122      -0.00031554
O        4.92696864       3.04254929       5.01294884       14       0.00402067      -0.00084122       0.00031554
O        3.45952904       0.45695599       6.65044454       15      -0.00402067      -0.00084122      -0.00031554
O        5.43042279       3.87838995       0.00000000       16      -0.00157189       0.00000000       0.00000000
O        2.95607489       1.29279665       3.88779779       17       0.00157189       0.00000000       0.00000000
O        0.16057566       1.29279665       0.00000000       18       0.00157189       0.00000000       0.00000000
O        2.63492356       3.87838995       3.88779779       19      -0.00157189       0.00000000      -0.00000000
