20
Lattice="5.549557591676661 -1.678704725835062e-61 6.120234980786074e-44 -3.978932585615169e-61 5.660665853366285 2.190892967586424e-17 -1.3432611853760552e-43 2.753154924749124e-17 7.974141286334545" Properties=species:S:1:pos:R:3:spacegroup_kinds:I:1:forces:R:3 spacegroup="P 1" unit_cell=conventional occupancy="_JSON {\"0\": {\"In\": 1}, \"1\": {\"In\": 1}, \"2\": {\"In\": 1}, \"3\": {\"In\": 1}, \"4\": {\"In\": 1}, \"5\": {\"In\": 1}, \"6\": {\"In\": 1}, \"7\": {\"In\": 1}, \"8\": {\"O\": 1}, \"9\": {\"O\": 1}, \"10\": {\"O\": 1}, \"11\": {\"O\": 1}, \"12\": {\"O\": 1}, \"13\": {\"O\": 1}, \"14\": {\"O\": 1}, \"15\": {\"O\": 1}, \"16\": {\"O\": 1}, \"17\": {\"O\": 1}, \"18\": {\"O\": 1}, \"19\": {\"O\": 1}}" n_minim_iter=7 energy=-22574.913983084025 stress="-0.013020245577844815 -2.568894403471149e-13 -4.0598740026820633e-13 -2.568894403471149e-13 -0.013012720623052292 -9.22676456350365e-13 -4.0598740026820633e-13 -9.22676456350365e-13 -0.012996649647566789" free_energy=-22574.913983084025 pbc="T T T"
In       1.38034229       2.99749908       0.91019384        0      -0.00120916       0.00171525       0.00049247
In       1.39443650       0.16716616       3.07687680        1       0.00120916       0.00171525      -0.00049247
In       1.39443650       2.66316677       4.89726448        2       0.00120916      -0.00171525       0.00049247
In       1.38034229       5.49349970       7.06394745        3      -0.00120916      -0.00171525      -0.00049247
In       4.16921530       2.66316677       7.06394745        4       0.00120916      -0.00171525      -0.00049247
In       4.15512109       5.49349970       4.89726448        5      -0.00120916      -0.00171525       0.00049247
In       4.15512109       2.99749908       3.07687680        6      -0.00120916       0.00171525      -0.00049247
In       4.16921530       0.16716616       0.91019384        7       0.00120916       0.00171525       0.00049247
O        2.16234383       3.41911868       6.77325679        8      -0.00189809      -0.00458828      -0.00144867
O        0.61243497       0.58878576       5.18795514        9       0.00189809      -0.00458828       0.00144867
O        0.61243497       2.24154717       2.78618615       10       0.00189809       0.00458828      -0.00144867
O        2.16234383       5.07188010       1.20088450       11      -0.00189809       0.00458828       0.00144867
O        3.38721376       2.24154717       1.20088450       12       0.00189809       0.00458828       0.00144867
O        4.93712263       5.07188010       2.78618615       13      -0.00189809       0.00458828      -0.00144867
O        4.93712263       3.41911868       5.18795514       14      -0.00189809      -0.00458828       0.00144867
O        3.38721376       0.58878576       6.77325679       15       0.00189809      -0.00458828      -0.00144867
O        5.31302406       4.24549939      -0.00000000       16       0.00635226      -0.00000000       0.00000000
O        3.01131232       1.41516646       3.98707064       17      -0.00635226      -0.00000000      -0.00000000
O        0.23653353       1.41516646      -0.00000000       18      -0.00635226      -0.00000000       0.00000000
O        2.53824527       4.24549939       3.98707064       19       0.00635226      -0.00000000      -0.00000000
