20
Lattice="5.849854802493129 -7.632909892694365e-60 -1.548303343912507e-43 7.693526701170453e-60 5.894130444464998 1.0752119491719262e-19 2.268031950309074e-43 -1.5631927866837484e-19 8.56915904037028" Properties=species:S:1:pos:R:3:spacegroup_kinds:I:1:forces:R:3 spacegroup="P 1" unit_cell=conventional occupancy="_JSON {\"0\": {\"In\": 1}, \"1\": {\"In\": 1}, \"2\": {\"In\": 1}, \"3\": {\"In\": 1}, \"4\": {\"In\": 1}, \"5\": {\"In\": 1}, \"6\": {\"In\": 1}, \"7\": {\"In\": 1}, \"8\": {\"O\": 1}, \"9\": {\"O\": 1}, \"10\": {\"O\": 1}, \"11\": {\"O\": 1}, \"12\": {\"O\": 1}, \"13\": {\"O\": 1}, \"14\": {\"O\": 1}, \"15\": {\"O\": 1}, \"16\": {\"O\": 1}, \"17\": {\"O\": 1}, \"18\": {\"O\": 1}, \"19\": {\"O\": 1}}" n_minim_iter=1 energy=-22573.368147741185 stress="0.08570606264870363 5.619884910432777e-13 -2.2376346448833457e-13 5.619884910432777e-13 0.08307098490700068 8.406655806041252e-13 -2.2376346448833457e-13 8.406655806041252e-13 0.08115669729531086" free_energy=-22573.368147741185 pbc="T T T"
In       1.44219460       3.09114429       1.01120145        0      -0.01047608       0.02532877       0.01817014
In       1.48273280       0.14407906       3.27337807        1       0.01047608       0.02532877      -0.01817014
In       1.48273280       2.80298616       5.29578097        2       0.01047608      -0.02532877       0.01817014
In       1.44219460       5.75005138       7.55795759        3      -0.01047608      -0.02532877      -0.01817014
In       4.40766020       2.80298616       7.55795759        4       0.01047608      -0.02532877      -0.01817014
In       4.36712200       5.75005138       5.29578097        5      -0.01047608      -0.02532877       0.01817014
In       4.36712200       3.09114429       3.27337807        6      -0.01047608       0.02532877      -0.01817014
In       4.40766020       0.14407906       1.01120145        7       0.01047608       0.02532877       0.01817014
O        2.29221808       3.54323538       7.26057762        8       0.02463644      -0.03377944      -0.05363022
O        0.63270932       0.59617015       5.59316094        9      -0.02463644      -0.03377944       0.05363022
O        0.63270932       2.35089507       2.97599810       10      -0.02463644       0.03377944      -0.05363022
O        2.29221808       5.29796029       1.30858142       11       0.02463644       0.03377944       0.05363022
O        3.55763672       2.35089507       1.30858142       12      -0.02463644       0.03377944       0.05363022
O        5.21714549       5.29796029       2.97599810       13       0.02463644       0.03377944      -0.05363022
O        5.21714549       3.54323538       5.59316094       14       0.02463644      -0.03377944       0.05363022
O        3.55763672       0.59617015       7.26057762       15      -0.02463644      -0.03377944      -0.05363022
O        5.58623201       4.42059783      -0.00000000       16      -0.05051766      -0.00000000       0.00000000
O        3.18855019       1.47353261       4.28457952       17       0.05051766       0.00000000      -0.00000000
O        0.26362279       1.47353261      -0.00000000       18       0.05051766      -0.00000000       0.00000000
O        2.66130461       4.42059783       4.28457952       19      -0.05051766      -0.00000000       0.00000000
20
Lattice="5.830708562109294 -7.562039872071404e-60 -1.5413199245391613e-43 7.696476362550263e-60 5.896069351511909 -1.6424729783380972e-18 2.2774806824153292e-43 -2.7115589570259866e-18 8.594470304779923" Properties=species:S:1:pos:R:3:spacegroup_kinds:I:1:forces:R:3 spacegroup="P 1" unit_cell=conventional occupancy="_JSON {\"0\": {\"In\": 1}, \"1\": {\"In\": 1}, \"2\": {\"In\": 1}, \"3\": {\"In\": 1}, \"4\": {\"In\": 1}, \"5\": {\"In\": 1}, \"6\": {\"In\": 1}, \"7\": {\"In\": 1}, \"8\": {\"O\": 1}, \"9\": {\"O\": 1}, \"10\": {\"O\": 1}, \"11\": {\"O\": 1}, \"12\": {\"O\": 1}, \"13\": {\"O\": 1}, \"14\": {\"O\": 1}, \"15\": {\"O\": 1}, \"16\": {\"O\": 1}, \"17\": {\"O\": 1}, \"18\": {\"O\": 1}, \"19\": {\"O\": 1}}" n_minim_iter=2 energy=-22573.370374934202 stress="0.08215263647972688 7.225845091724581e-13 -5.474063667524956e-14 7.225845091724581e-13 0.08291230749526045 2.7357070900629007e-13 -5.474063667524956e-14 2.7357070900629007e-13 0.08246268677843116" free_energy=-22573.370374934202 pbc="T T T"
In       1.43742600       3.09227853       1.01427273        0      -0.02955492       0.03065121       0.03793950
In       1.47792828       0.14424385       3.28296242        1       0.02955492       0.03065121      -0.03793950
In       1.47792828       2.80379083       5.31150788        2       0.02955492      -0.03065121       0.03793950
In       1.43742600       5.75182550       7.58019758        3      -0.02955492      -0.03065121      -0.03793950
In       4.39328256       2.80379083       7.58019758        4       0.02955492      -0.03065121      -0.03793950
In       4.35278028       5.75182550       5.31150788        5      -0.02955492      -0.03065121       0.03793950
In       4.35278028       3.09227853       3.28296242        6      -0.02955492       0.03065121      -0.03793950
In       4.39328256       0.14424385       1.01427273        7       0.02955492       0.03065121       0.03793950
O        2.28482956       3.54424439       7.28177443        8       0.01628580      -0.03048078      -0.08569106
O        0.63052472       0.59620971       5.60993102        9      -0.01628580      -0.03048078       0.08569106
O        0.63052472       2.35182496       2.98453928       10      -0.01628580       0.03048078      -0.08569106
O        2.28482956       5.29985964       1.31269587       11       0.01628580       0.03048078       0.08569106
O        3.54587901       2.35182496       1.31269587       12      -0.01628580       0.03048078       0.08569106
O        5.20018384       5.29985964       2.98453928       13       0.01628580       0.03048078      -0.08569106
O        5.20018384       3.54424439       5.60993102       14       0.01628580      -0.03048078       0.08569106
O        3.54587901       0.59620971       7.28177443       15      -0.01628580      -0.03048078      -0.08569106
O        5.56771530       4.42205201      -0.00000000       16      -0.05814410      -0.00000000       0.00000000
O        3.17834754       1.47401734       4.29723515       17       0.05814410       0.00000000       0.00000000
O        0.26299326       1.47401734      -0.00000000       18       0.05814410       0.00000000      -0.00000000
O        2.65236102       4.42205201       4.29723515       19      -0.05814410      -0.00000000       0.00000000
20
Lattice="5.832074173315057 -7.606684592122956e-60 -1.5379221158514659e-43 7.670054361172896e-60 5.876187135878335 -3.3033753486260333e-20 2.2901656504011882e-43 -3.632379331281254e-19 8.621530644538568" Properties=species:S:1:pos:R:3:spacegroup_kinds:I:1:forces:R:3 spacegroup="P 1" unit_cell=conventional occupancy="_JSON {\"0\": {\"In\": 1}, \"1\": {\"In\": 1}, \"2\": {\"In\": 1}, \"3\": {\"In\": 1}, \"4\": {\"In\": 1}, \"5\": {\"In\": 1}, \"6\": {\"In\": 1}, \"7\": {\"In\": 1}, \"8\": {\"O\": 1}, \"9\": {\"O\": 1}, \"10\": {\"O\": 1}, \"11\": {\"O\": 1}, \"12\": {\"O\": 1}, \"13\": {\"O\": 1}, \"14\": {\"O\": 1}, \"15\": {\"O\": 1}, \"16\": {\"O\": 1}, \"17\": {\"O\": 1}, \"18\": {\"O\": 1}, \"19\": {\"O\": 1}}" n_minim_iter=3 energy=-22573.372428817183 stress="0.08252465180423235 -3.546379710475848e-14 4.796955256646326e-13 -3.546379710475848e-14 0.0796910078986947 -2.4839798928606488e-14 4.796955256646326e-13 -2.4839798928606488e-14 0.08310624899136797" free_energy=-22573.372428817183 pbc="T T T"
In       1.43681037       3.08290361       1.01872755        0      -0.02217651       0.01221276       0.05308456
In       1.47922672       0.14481004       3.29203777        1       0.02217651       0.01221276      -0.05308456
In       1.47922672       2.79328352       5.32949288        2       0.02217651      -0.01221276       0.05308456
In       1.43681037       5.73137709       7.60280309        3      -0.02217651      -0.01221276      -0.05308456
In       4.39526381       2.79328352       7.60280309        4       0.02217651      -0.01221276      -0.05308456
In       4.35284745       5.73137709       5.32949288        5      -0.02217651      -0.01221276       0.05308456
In       4.35284745       3.08290361       3.29203777        6      -0.02217651       0.01221276      -0.05308456
In       4.39526381       0.14481004       1.01872755        7       0.02217651       0.01221276       0.05308456
O        2.28596975       3.53120946       7.30179872        8       0.00569981      -0.02003529      -0.08910702
O        0.63006733       0.59311590       5.63049725        9      -0.00569981      -0.02003529       0.08910702
O        0.63006733       2.34497767       2.99103340       10      -0.00569981       0.02003529      -0.08910702
O        2.28596975       5.28307124       1.31973193       11       0.00569981       0.02003529       0.08910702
O        3.54610442       2.34497767       1.31973193       12      -0.00569981       0.02003529       0.08910702
O        5.20200684       5.28307124       2.99103340       13       0.00569981       0.02003529      -0.08910702
O        5.20200684       3.53120946       5.63049725       14       0.00569981      -0.02003529       0.08910702
O        3.54610442       0.59311590       7.30179872       15      -0.00569981      -0.02003529      -0.08910702
O        5.56701851       4.40714035      -0.00000000       16      -0.03654026      -0.00000000      -0.00000000
O        3.18109275       1.46904678       4.31076532       17       0.03654026      -0.00000000      -0.00000000
O        0.26505567       1.46904678      -0.00000000       18       0.03654026      -0.00000000      -0.00000000
O        2.65098142       4.40714035       4.31076532       19      -0.03654026      -0.00000000       0.00000000
20
Lattice="5.78916035082658 -7.656514564598873e-60 -1.5243857072002937e-43 7.688712072978628e-60 5.889451580998594 4.0072270766119945e-18 2.3052197772041173e-43 5.501798975823393e-18 8.66587855328657" Properties=species:S:1:pos:R:3:spacegroup_kinds:I:1:forces:R:3 spacegroup="P 1" unit_cell=conventional occupancy="_JSON {\"0\": {\"In\": 1}, \"1\": {\"In\": 1}, \"2\": {\"In\": 1}, \"3\": {\"In\": 1}, \"4\": {\"In\": 1}, \"5\": {\"In\": 1}, \"6\": {\"In\": 1}, \"7\": {\"In\": 1}, \"8\": {\"O\": 1}, \"9\": {\"O\": 1}, \"10\": {\"O\": 1}, \"11\": {\"O\": 1}, \"12\": {\"O\": 1}, \"13\": {\"O\": 1}, \"14\": {\"O\": 1}, \"15\": {\"O\": 1}, \"16\": {\"O\": 1}, \"17\": {\"O\": 1}, \"18\": {\"O\": 1}, \"19\": {\"O\": 1}}" n_minim_iter=4 energy=-22573.38620309344 stress="0.07690752500567295 5.528752897884163e-13 5.590708584726939e-13 5.528752897884163e-13 0.0771872570554395 -9.138412699962388e-16 5.590708584726939e-13 -9.138412699962388e-16 0.07489483454842577" free_energy=-22573.38620309344 pbc="T T T"
In       1.41866028       3.09779354       1.03517361        0      -0.00336212       0.03628230       0.01443030
In       1.47591990       0.15306775       3.29776566        1       0.00336212       0.03628230      -0.01443030
In       1.47591990       2.79165804       5.36811289        2       0.00336212      -0.03628230       0.01443030
In       1.41866028       5.73638383       7.63070494        3      -0.00336212      -0.03628230      -0.01443030
In       4.37050007       2.79165804       7.63070494        4       0.00336212      -0.03628230      -0.01443030
In       4.31324045       5.73638383       5.36811289        5      -0.00336212      -0.03628230       0.01443030
In       4.31324045       3.09779354       3.29776566        6      -0.00336212       0.03628230      -0.01443030
In       4.37050007       0.15306775       1.03517361        7       0.00336212       0.03628230       0.01443030
O        2.27360386       3.53070703       7.31499926        8      -0.00123404       0.03797012      -0.00152496
O        0.62097631       0.58598124       5.68381857        9       0.00123404       0.03797012       0.00152496
O        0.62097631       2.35874455       2.98205998       10       0.00123404      -0.03797012      -0.00152496
O        2.27360386       5.30347034       1.35087929       11      -0.00123404      -0.03797012       0.00152496
O        3.51555649       2.35874455       1.35087929       12       0.00123404      -0.03797012       0.00152496
O        5.16818404       5.30347034       2.98205998       13      -0.00123404      -0.03797012      -0.00152496
O        5.16818404       3.53070703       5.68381857       14      -0.00123404       0.03797012       0.00152496
O        3.51555649       0.58598124       7.31499926       15       0.00123404       0.03797012      -0.00152496
O        5.51056867       4.41708869      -0.00000000       16       0.09750816       0.00000000       0.00000000
O        3.17317186       1.47236290       4.33293928       17      -0.09750816       0.00000000      -0.00000000
O        0.27859168       1.47236290      -0.00000000       18      -0.09750816       0.00000000      -0.00000000
O        2.61598849       4.41708869       4.33293928       19       0.09750816      -0.00000000      -0.00000000
20
Lattice="5.768938198065539 -7.672808350454473e-60 -2.5694551141229593e-43 7.167428653376467e-60 5.869321472254036 -1.135412802788705e-17 7.834878081572759e-44 -1.6890526594436312e-17 8.726081189599148" Properties=species:S:1:pos:R:3:spacegroup_kinds:I:1:forces:R:3 spacegroup="P 1" unit_cell=conventional occupancy="_JSON {\"0\": {\"In\": 1}, \"1\": {\"In\": 1}, \"2\": {\"In\": 1}, \"3\": {\"In\": 1}, \"4\": {\"In\": 1}, \"5\": {\"In\": 1}, \"6\": {\"In\": 1}, \"7\": {\"In\": 1}, \"8\": {\"O\": 1}, \"9\": {\"O\": 1}, \"10\": {\"O\": 1}, \"11\": {\"O\": 1}, \"12\": {\"O\": 1}, \"13\": {\"O\": 1}, \"14\": {\"O\": 1}, \"15\": {\"O\": 1}, \"16\": {\"O\": 1}, \"17\": {\"O\": 1}, \"18\": {\"O\": 1}, \"19\": {\"O\": 1}}" n_minim_iter=5 energy=-22573.38909442488 stress="0.073840324014107 -8.501558525442223e-13 1.1442939514451423e-12 -8.501558525442223e-13 0.07317787119363083 4.637594142390452e-13 1.1442939514451423e-12 4.637594142390452e-13 0.07559593617209297" free_energy=-22573.38909442488 pbc="T T T"
In       1.41206433       3.08992032       1.04539862        0      -0.02288245       0.01564745       0.04675173
In       1.47240477       0.15525958       3.31764198        1       0.02288245       0.01564745      -0.04675173
In       1.47240477       2.77940115       5.40843921        2       0.02288245      -0.01564745       0.04675173
In       1.41206433       5.71406189       7.68068257        3      -0.02288245      -0.01564745      -0.04675173
In       4.35687387       2.77940115       7.68068257        4       0.02288245      -0.01564745      -0.04675173
In       4.29653343       5.71406189       5.40843921        5      -0.02288245      -0.01564745       0.04675173
In       4.29653343       3.08992032       3.31764198        6      -0.02288245       0.01564745      -0.04675173
In       4.35687387       0.15525958       1.04539862        7       0.02288245       0.01564745       0.04675173
O        2.26625704       3.51864585       7.36081926        8      -0.01854607       0.04327406      -0.05337964
O        0.61821206       0.58398512       5.72830253        9       0.01854607       0.04327406       0.05337964
O        0.61821206       2.35067562       2.99777866       10       0.01854607      -0.04327406      -0.05337964
O        2.26625704       5.28533636       1.36526193       11      -0.01854607      -0.04327406       0.05337964
O        3.50268116       2.35067562       1.36526193       12       0.01854607      -0.04327406       0.05337964
O        5.15072614       5.28533636       2.99777866       13      -0.01854607      -0.04327406      -0.05337964
O        5.15072614       3.51864585       5.72830253       14      -0.01854607       0.04327406       0.05337964
O        3.50268116       0.58398512       7.36081926       15       0.01854607       0.04327406      -0.05337964
O        5.49222380       4.40199110      -0.00000000       16       0.08285442       0.00000000      -0.00000000
O        3.16118350       1.46733037       4.36304059       17      -0.08285442      -0.00000000       0.00000000
O        0.27671440       1.46733037      -0.00000000       18      -0.08285442      -0.00000000       0.00000000
O        2.60775470       4.40199110       4.36304059       19       0.08285442      -0.00000000       0.00000000
20
Lattice="5.697342962703613 -7.472177110587176e-60 -3.918429473356066e-43 6.047021171859573e-60 5.8535321385988786 -2.054245514117751e-17 7.439569595940449e-43 -2.995098096906023e-17 8.859570378763873" Properties=species:S:1:pos:R:3:spacegroup_kinds:I:1:forces:R:3 spacegroup="P 1" unit_cell=conventional occupancy="_JSON {\"0\": {\"In\": 1}, \"1\": {\"In\": 1}, \"2\": {\"In\": 1}, \"3\": {\"In\": 1}, \"4\": {\"In\": 1}, \"5\": {\"In\": 1}, \"6\": {\"In\": 1}, \"7\": {\"In\": 1}, \"8\": {\"O\": 1}, \"9\": {\"O\": 1}, \"10\": {\"O\": 1}, \"11\": {\"O\": 1}, \"12\": {\"O\": 1}, \"13\": {\"O\": 1}, \"14\": {\"O\": 1}, \"15\": {\"O\": 1}, \"16\": {\"O\": 1}, \"17\": {\"O\": 1}, \"18\": {\"O\": 1}, \"19\": {\"O\": 1}}" n_minim_iter=6 energy=-22573.398771009026 stress="0.06577869031169799 1.3367007888559681e-12 6.762179453466543e-13 1.3367007888559681e-12 0.0656244179828562 7.813387949320026e-13 6.762179453466543e-13 7.813387949320026e-13 0.06404625807355693" free_energy=-22573.398771009026 pbc="T T T"
In       1.38320826       3.09627803       1.08090870        0      -0.02506740       0.00286065      -0.02472310
In       1.46546322       0.16951196       3.34887649        1       0.02506740       0.00286065       0.02472310
In       1.46546322       2.75725411       5.51069389        2       0.02506740      -0.00286065      -0.02472310
In       1.38320826       5.68402017       7.77866167        3      -0.02506740      -0.00286065       0.02472310
In       4.31413470       2.75725411       7.77866167        4       0.02506740      -0.00286065       0.02472310
In       4.23187974       5.68402017       5.51069389        5      -0.02506740      -0.00286065      -0.02472310
In       4.23187974       3.09627803       3.34887649        6      -0.02506740       0.00286065       0.02472310
In       4.31413470       0.16951196       1.08090870        7       0.02506740       0.00286065      -0.02472310
O        2.24213607       3.50563342       7.43795286        8      -0.00514591       0.09541828      -0.00183029
O        0.60653542       0.57886735       5.85140270        9       0.00514590       0.09541828       0.00183029
O        0.60653542       2.34789872       3.00816767       10       0.00514591      -0.09541828      -0.00183029
O        2.24213607       5.27466479       1.42161751       11      -0.00514590      -0.09541828       0.00183029
O        3.45520690       2.34789872       1.42161751       12       0.00514591      -0.09541828       0.00183029
O        5.09080755       5.27466479       3.00816767       13      -0.00514590      -0.09541828      -0.00183029
O        5.09080755       3.50563342       5.85140270       14      -0.00514591       0.09541828       0.00183029
O        3.45520690       0.57886735       7.43795286       15       0.00514591       0.09541828      -0.00183029
O        5.42035708       4.39014910      -0.00000000       16       0.12244764      -0.00000000      -0.00000000
O        3.12565737       1.46338303       4.42978519       17      -0.12244764       0.00000000       0.00000000
O        0.27698589       1.46338303      -0.00000000       18      -0.12244764       0.00000000      -0.00000000
O        2.57168560       4.39014910       4.42978519       19       0.12244764      -0.00000000       0.00000000
20
Lattice="5.666349722754724 -6.385909562705236e-60 -4.342927513517039e-43 6.299519321818369e-60 5.842826268636318 -3.401108532722958e-17 6.839903709534705e-43 -4.940914608751465e-17 8.924351854756399" Properties=species:S:1:pos:R:3:spacegroup_kinds:I:1:forces:R:3 spacegroup="P 1" unit_cell=conventional occupancy="_JSON {\"0\": {\"In\": 1}, \"1\": {\"In\": 1}, \"2\": {\"In\": 1}, \"3\": {\"In\": 1}, \"4\": {\"In\": 1}, \"5\": {\"In\": 1}, \"6\": {\"In\": 1}, \"7\": {\"In\": 1}, \"8\": {\"O\": 1}, \"9\": {\"O\": 1}, \"10\": {\"O\": 1}, \"11\": {\"O\": 1}, \"12\": {\"O\": 1}, \"13\": {\"O\": 1}, \"14\": {\"O\": 1}, \"15\": {\"O\": 1}, \"16\": {\"O\": 1}, \"17\": {\"O\": 1}, \"18\": {\"O\": 1}, \"19\": {\"O\": 1}}" n_minim_iter=7 energy=-22573.402295418528 stress="0.0633398064256521 -9.439135207493157e-13 2.652558558108484e-14 -9.439135207493157e-13 0.06253173456608341 -8.112084784166024e-13 2.652558558108484e-14 -8.112084784166024e-13 0.061393069490863726" free_energy=-22573.402295418528 pbc="T T T"
In       1.37130370       3.09638202       1.09618572        0      -0.02885060      -0.00985795      -0.05761473
In       1.46187116       0.17496889       3.36599021        1       0.02885060      -0.00985795       0.05761473
In       1.46187116       2.74644424       5.55836165        2       0.02885060       0.00985795      -0.05761473
In       1.37130370       5.66785738       7.82816614        3      -0.02885060       0.00985795       0.05761473
In       4.29504602       2.74644424       7.82816614        4       0.02885060       0.00985795       0.05761473
In       4.20447856       5.66785738       5.55836165        5      -0.02885060       0.00985795      -0.05761473
In       4.20447856       3.09638202       3.36599021        6      -0.02885060      -0.00985795       0.05761473
In       4.29504602       0.17496889       1.09618572        7       0.02885060      -0.00985795      -0.05761473
O        2.23094136       3.50012840       7.47944745        8       0.00747202       0.10458225       0.01867396
O        0.60223350       0.57871526       5.90708034        9      -0.00747202       0.10458225      -0.01867396
O        0.60223350       2.34269787       3.01727152       10      -0.00747202      -0.10458225       0.01867396
O        2.23094136       5.26411100       1.44490441       11       0.00747202      -0.10458225      -0.01867396
O        3.43540836       2.34269787       1.44490441       12      -0.00747202      -0.10458225      -0.01867396
O        5.06411622       5.26411100       3.01727152       13       0.00747202      -0.10458225       0.01867396
O        5.06411622       3.50012840       5.90708034       14       0.00747202       0.10458225      -0.01867396
O        3.43540836       0.57871526       7.47944745       15      -0.00747202       0.10458225       0.01867396
O        5.39337375       4.38211970      -0.00000000       16       0.12149902       0.00000000      -0.00000000
O        3.10615083       1.46070657       4.46217593       17      -0.12149902      -0.00000000       0.00000000
O        0.27297597       1.46070657      -0.00000000       18      -0.12149902      -0.00000000       0.00000000
O        2.56019889       4.38211970       4.46217593       19       0.12149902       0.00000000       0.00000000
20
Lattice="5.6425937598905165 -6.322672823011636e-60 -3.980666799325931e-43 6.463609172694049e-60 5.837112497681806 -3.4187708449380474e-17 6.463225735694794e-43 -4.936082828191473e-17 8.970696947028365" Properties=species:S:1:pos:R:3:spacegroup_kinds:I:1:forces:R:3 spacegroup="P 1" unit_cell=conventional occupancy="_JSON {\"0\": {\"In\": 1}, \"1\": {\"In\": 1}, \"2\": {\"In\": 1}, \"3\": {\"In\": 1}, \"4\": {\"In\": 1}, \"5\": {\"In\": 1}, \"6\": {\"In\": 1}, \"7\": {\"In\": 1}, \"8\": {\"O\": 1}, \"9\": {\"O\": 1}, \"10\": {\"O\": 1}, \"11\": {\"O\": 1}, \"12\": {\"O\": 1}, \"13\": {\"O\": 1}, \"14\": {\"O\": 1}, \"15\": {\"O\": 1}, \"16\": {\"O\": 1}, \"17\": {\"O\": 1}, \"18\": {\"O\": 1}, \"19\": {\"O\": 1}}" n_minim_iter=8 energy=-22573.411761870644 stress="0.06264754395868183 -3.342241252778931e-13 -3.5603590093439196e-13 -3.342241252778931e-13 0.061774301102068795 -6.256010037610644e-13 -3.5603590093439196e-13 -6.256010037610644e-13 0.06281429065694956" free_energy=-22573.411761870644 pbc="T T T"
In       1.36316127       3.09663815       1.10476613        0      -0.03771181      -0.04302248      -0.04347341
In       1.45813561       0.17808190       3.38058234        1       0.03771181      -0.04302248       0.04347341
In       1.45813561       2.74047434       5.59011461        2       0.03771181       0.04302248      -0.04347341
In       1.36316127       5.65903059       7.86593081        3      -0.03771181       0.04302248       0.04347341
In       4.27943249       2.74047434       7.86593081        4       0.03771181       0.04302248       0.04347341
In       4.18445815       5.65903059       5.59011461        5      -0.03771181       0.04302248      -0.04347341
In       4.18445815       3.09663815       3.38058234        6      -0.03771181      -0.04302248       0.04347341
In       4.27943249       0.17808190       1.10476613        7       0.03771181      -0.04302248      -0.04347341
O        2.22018932       3.50546183       7.51509694        8       0.03323065       0.05961218      -0.02707640
O        0.60110756       0.58690558       5.94094848        9      -0.03323065       0.05961218       0.02707640
O        0.60110756       2.33165067       3.02974847       10      -0.03323065      -0.05961218      -0.02707640
O        2.22018932       5.25020692       1.45560001       11       0.03323065      -0.05961218       0.02707640
O        3.42240444       2.33165067       1.45560001       12      -0.03323065      -0.05961218       0.02707640
O        5.04148620       5.25020692       3.02974847       13       0.03323065      -0.05961218      -0.02707640
O        5.04148620       3.50546183       5.94094848       14       0.03323065       0.05961218       0.02707640
O        3.42240444       0.58690558       7.51509694       15      -0.03323065       0.05961218      -0.02707640
O        5.38645944       4.37783437      -0.00000000       16       0.00595748       0.00000000      -0.00000000
O        3.07743120       1.45927812       4.48534847       17      -0.00595748      -0.00000000      -0.00000000
O        0.25613432       1.45927812      -0.00000000       18      -0.00595748       0.00000000      -0.00000000
O        2.56516256       4.37783437       4.48534847       19       0.00595748      -0.00000000       0.00000000
20
Lattice="5.63360066839174 -7.118003551096586e-60 -4.267270421837297e-43 6.869003290001526e-60 5.846929178018834 -2.0932142134304383e-17 5.5742728938923404e-43 -3.014247735524325e-17 8.969931787185349" Properties=species:S:1:pos:R:3:spacegroup_kinds:I:1:forces:R:3 spacegroup="P 1" unit_cell=conventional occupancy="_JSON {\"0\": {\"In\": 1}, \"1\": {\"In\": 1}, \"2\": {\"In\": 1}, \"3\": {\"In\": 1}, \"4\": {\"In\": 1}, \"5\": {\"In\": 1}, \"6\": {\"In\": 1}, \"7\": {\"In\": 1}, \"8\": {\"O\": 1}, \"9\": {\"O\": 1}, \"10\": {\"O\": 1}, \"11\": {\"O\": 1}, \"12\": {\"O\": 1}, \"13\": {\"O\": 1}, \"14\": {\"O\": 1}, \"15\": {\"O\": 1}, \"16\": {\"O\": 1}, \"17\": {\"O\": 1}, \"18\": {\"O\": 1}, \"19\": {\"O\": 1}}" n_minim_iter=9 energy=-22573.41423607006 stress="0.06242434943481825 -9.568536747823798e-13 -8.037253439571769e-13 -9.568536747823798e-13 0.06331772172623434 -4.2887412496830284e-14 -8.037253439571769e-13 -4.2887412496830284e-14 0.06300645923209039" free_energy=-22573.41423607006 pbc="T T T"
In       1.35929073       3.10139273       1.10359313        0      -0.02231324      -0.04813687      -0.02663527
In       1.45750960       0.17792814       3.38137276        1       0.02231324      -0.04813687       0.02663527
In       1.45750960       2.74553645       5.58855903        2       0.02231324       0.04813687      -0.02663527
In       1.35929073       5.66900104       7.86633866        3      -0.02231324       0.04813687       0.02663527
In       4.27430993       2.74553645       7.86633866        4       0.02231324       0.04813687       0.02663527
In       4.17609107       5.66900104       5.58855903        5      -0.02231324       0.04813687      -0.02663527
In       4.17609107       3.10139273       3.38137276        6      -0.02231324      -0.04813687       0.02663527
In       4.27430993       0.17792814       1.10359313        7       0.02231324      -0.04813687      -0.02663527
O        2.21667226       3.51797802       7.51390608        8       0.05020491       0.02917069      -0.04068528
O        0.60012807       0.59451343       5.94099160        9      -0.05020491       0.02917069       0.04068528
O        0.60012807       2.32895116       3.02894019       10      -0.05020491      -0.02917069      -0.04068528
O        2.21667226       5.25241575       1.45602570       11       0.05020491      -0.02917069       0.04068528
O        3.41692841       2.32895116       1.45602570       12      -0.05020491      -0.02917069       0.04068528
O        5.03347259       5.25241575       3.02894019       13       0.05020491      -0.02917069      -0.04068528
O        5.03347259       3.51797802       5.94099160       14       0.05020491       0.02917069       0.04068528
O        3.41692841       0.59451343       7.51390608       15      -0.05020491       0.02917069      -0.04068528
O        5.38640004       4.38519688      -0.00000000       16      -0.06018091      -0.00000000       0.00000000
O        3.06400096       1.46173229       4.48496589       17       0.06018091       0.00000000      -0.00000000
O        0.24720062       1.46173229      -0.00000000       18       0.06018091      -0.00000000      -0.00000000
O        2.56959971       4.38519688       4.48496589       19      -0.06018091      -0.00000000       0.00000000
20