20
Lattice="5.537235523135035 -2.2588978494407574e-58 -3.739198041473113e-43 1.7028654381557706e-58 5.121460568635162 -5.722321325263653e-16 5.200232485111148e-43 8.604303016609979e-16 7.700825611733056" Properties=species:S:1:pos:R:3:spacegroup_kinds:I:1:forces:R:3 spacegroup="P 1" unit_cell=conventional occupancy="_JSON {\"0\": {\"In\": 1}, \"1\": {\"In\": 1}, \"2\": {\"In\": 1}, \"3\": {\"In\": 1}, \"4\": {\"In\": 1}, \"5\": {\"In\": 1}, \"6\": {\"In\": 1}, \"7\": {\"In\": 1}, \"8\": {\"O\": 1}, \"9\": {\"O\": 1}, \"10\": {\"O\": 1}, \"11\": {\"O\": 1}, \"12\": {\"O\": 1}, \"13\": {\"O\": 1}, \"14\": {\"O\": 1}, \"15\": {\"O\": 1}, \"16\": {\"O\": 1}, \"17\": {\"O\": 1}, \"18\": {\"O\": 1}, \"19\": {\"O\": 1}}" n_minim_iter=1 energy=-22573.11162111467 stress="-0.14017300595895707 4.943306212550798e-13 2.9912430815615543e-13 4.943306212550798e-13 -0.15090130840946925 4.900990586885675e-13 2.9912430815615543e-13 4.900990586885675e-13 -0.13785166445367789" free_energy=-22573.11162111467 pbc="T T T"
In       1.41601257       2.63470425       0.89548841        0       0.04289881       0.01978348       0.03838634
In       1.35260519       0.07397397       2.95492439        1      -0.04289881       0.01978348      -0.03838634
In       1.35260519       2.48675632       4.74590122        2      -0.04289881      -0.01978348       0.03838634
In       1.41601257       5.04748660       6.80533720        3       0.04289881      -0.01978348      -0.03838634
In       4.12122295       2.48675632       6.80533720        4      -0.04289881      -0.01978348      -0.03838634
In       4.18463033       5.04748660       4.74590122        5       0.04289881      -0.01978348       0.03838634
In       4.18463033       2.63470425       2.95492439        6       0.04289881       0.01978348      -0.03838634
In       4.12122295       0.07397397       0.89548841        7      -0.04289881       0.01978348       0.03838634
O        2.11097325       3.01329219       6.58649399        8       0.06033029       0.03275588       0.05914864
O        0.65764451       0.45256191       4.96474443        9      -0.06033029       0.03275588      -0.05914864
O        0.65764451       2.10816838       2.73608119       10      -0.06033029      -0.03275588       0.05914864
O        2.11097325       4.66889866       1.11433162       11       0.06033029      -0.03275588      -0.05914864
O        3.42626227       2.10816838       1.11433162       12      -0.06033029      -0.03275588      -0.05914864
O        4.87959101       4.66889866       2.73608119       13       0.06033029      -0.03275588       0.05914864
O        4.87959101       3.01329219       4.96474443       14       0.06033029       0.03275588      -0.05914864
O        3.42626227       0.45256191       6.58649399       15      -0.06033029       0.03275588       0.05914864
O        5.37820395       3.84109543       0.00000000       16      -0.02383039       0.00000000       0.00000000
O        2.92764933       1.28036514       3.85041281       17       0.02383039       0.00000000       0.00000000
O        0.15903157       1.28036514       0.00000000       18       0.02383039      -0.00000000       0.00000000
O        2.60958619       3.84109543       3.85041281       19      -0.02383039      -0.00000000       0.00000000
20
Lattice="5.528181392572714 -2.2752618486808325e-58 -3.896519367130359e-43 1.731552173089269e-58 5.14522041752384 -5.559078659567421e-16 5.203086515121774e-43 8.863939461347256e-16 7.677818639060645" Properties=species:S:1:pos:R:3:spacegroup_kinds:I:1:forces:R:3 spacegroup="P 1" unit_cell=conventional occupancy="_JSON {\"0\": {\"In\": 1}, \"1\": {\"In\": 1}, \"2\": {\"In\": 1}, \"3\": {\"In\": 1}, \"4\": {\"In\": 1}, \"5\": {\"In\": 1}, \"6\": {\"In\": 1}, \"7\": {\"In\": 1}, \"8\": {\"O\": 1}, \"9\": {\"O\": 1}, \"10\": {\"O\": 1}, \"11\": {\"O\": 1}, \"12\": {\"O\": 1}, \"13\": {\"O\": 1}, \"14\": {\"O\": 1}, \"15\": {\"O\": 1}, \"16\": {\"O\": 1}, \"17\": {\"O\": 1}, \"18\": {\"O\": 1}, \"19\": {\"O\": 1}}" n_minim_iter=2 energy=-22573.117994540753 stress="-0.1410150772947304 3.865824267841044e-13 1.730445619942321e-13 3.865824267841044e-13 -0.14131492443589594 5.755216887616552e-13 1.730445619942321e-13 5.755216887616552e-13 -0.14161368245630124" free_energy=-22573.117994540753 pbc="T T T"
In       1.41381173       2.64698051       0.89291540        0       0.03655078       0.09943640       0.01386838
In       1.35027897       0.07437030       2.94599392        1      -0.03655077       0.09943640      -0.01386838
In       1.35027897       2.49823991       4.73182471        2      -0.03655077      -0.09943640       0.01386838
In       1.41381173       5.07085012       6.78490324        3       0.03655077      -0.09943640      -0.01386838
In       4.11436967       2.49823991       6.78490324        4      -0.03655077      -0.09943640      -0.01386838
In       4.17790242       5.07085012       4.73182471        5       0.03655077      -0.09943640       0.01386838
In       4.17790242       2.64698051       2.94599392        6       0.03655077       0.09943640      -0.01386838
In       4.11436967       0.07437030       0.89291540        7      -0.03655077       0.09943640       0.01386838
O        2.10768258       3.02735967       6.56697389        8       0.05376693       0.10066484       0.06934261
O        0.65640811       0.45474946       4.94975407        9      -0.05376693       0.10066484      -0.06934261
O        0.65640811       2.11786075       2.72806457       10      -0.05376693      -0.10066484       0.06934261
O        2.10768258       4.69047095       1.11084475       11       0.05376693      -0.10066484      -0.06934261
O        3.42049881       2.11786075       1.11084475       12      -0.05376693      -0.10066484      -0.06934261
O        4.87177328       4.69047095       2.72806457       13       0.05376693      -0.10066484       0.06934261
O        4.87177328       3.02735967       4.94975407       14       0.05376693       0.10066484      -0.06934261
O        3.42049881       0.45474946       6.56697389       15      -0.05376693       0.10066484       0.06934261
O        5.36934624       3.85891531       0.00000000       16      -0.01678490       0.00000000      -0.00000000
O        2.92292585       1.28630510       3.83890932       17       0.01678490      -0.00000000      -0.00000000
O        0.15883515       1.28630510       0.00000000       18       0.01678490       0.00000000      -0.00000000
O        2.60525554       3.85891531       3.83890932       19      -0.01678490       0.00000000       0.00000000
20
Lattice="5.521072749814997 -2.2822382613649206e-58 -3.948972004060748e-43 1.7393423112266213e-58 5.150103414437513 -5.564995288156009e-16 5.368191438908111e-43 8.866337836093277e-16 7.680415207529647" Properties=species:S:1:pos:R:3:spacegroup_kinds:I:1:forces:R:3 spacegroup="P 1" unit_cell=conventional occupancy="_JSON {\"0\": {\"In\": 1}, \"1\": {\"In\": 1}, \"2\": {\"In\": 1}, \"3\": {\"In\": 1}, \"4\": {\"In\": 1}, \"5\": {\"In\": 1}, \"6\": {\"In\": 1}, \"7\": {\"In\": 1}, \"8\": {\"O\": 1}, \"9\": {\"O\": 1}, \"10\": {\"O\": 1}, \"11\": {\"O\": 1}, \"12\": {\"O\": 1}, \"13\": {\"O\": 1}, \"14\": {\"O\": 1}, \"15\": {\"O\": 1}, \"16\": {\"O\": 1}, \"17\": {\"O\": 1}, \"18\": {\"O\": 1}, \"19\": {\"O\": 1}}" n_minim_iter=3 energy=-22573.12062076082 stress="-0.14287739239814193 1.299411308556939e-12 -1.7009920697419394e-12 1.299411308556939e-12 -0.1402641341060487 -1.0598415148211026e-12 -1.7009920697419394e-12 -1.0598415148211026e-12 -0.1390503064918456" free_energy=-22573.12062076082 pbc="T T T"
In       1.41254660       2.65096532       0.89343900        0      -0.01964278       0.08429943       0.04020939
In       1.34798978       0.07591361       2.94676860        1       0.01964278       0.08429943      -0.04020939
In       1.34798978       2.49913810       4.73364661        2       0.01964278      -0.08429943       0.04020939
In       1.41254660       5.07418981       6.78697620        3      -0.01964278      -0.08429943      -0.04020939
In       4.10852615       2.49913810       6.78697620        4       0.01964278      -0.08429943      -0.04020939
In       4.17308297       5.07418981       4.73364661        5      -0.01964278      -0.08429943       0.04020939
In       4.17308297       2.65096532       2.94676860        6      -0.01964278       0.08429943      -0.04020939
In       4.10852615       0.07591361       0.89343900        7       0.01964278       0.08429943       0.04020939
O        2.10578411       3.03173067       6.57023046        8       0.01992068       0.09394421       0.02374620
O        0.65475226       0.45667897       4.95039235        9      -0.01992068       0.09394421      -0.02374620
O        0.65475226       2.11837274       2.73002286       10      -0.01992068      -0.09394421       0.02374620
O        2.10578411       4.69342445       1.11018475       11       0.01992068      -0.09394421      -0.02374620
O        3.41528864       2.11837274       1.11018475       12      -0.01992068      -0.09394421      -0.02374620
O        4.86632049       4.69342445       2.73002286       13       0.01992068      -0.09394421       0.02374620
O        4.86632049       3.03173067       4.95039235       14       0.01992068       0.09394421      -0.02374620
O        3.41528864       0.45667897       6.57023046       15      -0.01992068       0.09394421       0.02374620
O        5.36218569       3.86257756       0.00000000       16      -0.03852446      -0.00000000      -0.00000000
O        2.91942343       1.28752585       3.84020760       17       0.03852446      -0.00000000      -0.00000000
O        0.15888706       1.28752585       0.00000000       18       0.03852446      -0.00000000      -0.00000000
O        2.60164932       3.86257756       3.84020760       19      -0.03852446       0.00000000      -0.00000000
20
Lattice="5.529528972709798 -2.187159464102025e-58 -4.059593278155942e-43 1.799918805555389e-58 5.15888871721627 -4.787363683872444e-16 5.448282727151717e-43 1.0015268666189858e-15 7.655610346447636" Properties=species:S:1:pos:R:3:spacegroup_kinds:I:1:forces:R:3 spacegroup="P 1" unit_cell=conventional occupancy="_JSON {\"0\": {\"In\": 1}, \"1\": {\"In\": 1}, \"2\": {\"In\": 1}, \"3\": {\"In\": 1}, \"4\": {\"In\": 1}, \"5\": {\"In\": 1}, \"6\": {\"In\": 1}, \"7\": {\"In\": 1}, \"8\": {\"O\": 1}, \"9\": {\"O\": 1}, \"10\": {\"O\": 1}, \"11\": {\"O\": 1}, \"12\": {\"O\": 1}, \"13\": {\"O\": 1}, \"14\": {\"O\": 1}, \"15\": {\"O\": 1}, \"16\": {\"O\": 1}, \"17\": {\"O\": 1}, \"18\": {\"O\": 1}, \"19\": {\"O\": 1}}" n_minim_iter=4 energy=-22573.125536586114 stress="-0.13735091200717725 1.2632302308313302e-13 -8.315313874525919e-13 1.2632302308313302e-13 -0.1390438474797127 2.095276854408324e-12 -8.315313874525919e-13 2.095276854408324e-12 -0.1408737941568507" free_energy=-22573.125536586114 pbc="T T T"
In       1.41590423       2.66008335       0.89153241        0      -0.08405907       0.00270936       0.09288515
In       1.34886025       0.08063899       2.93627276        1       0.08405907       0.00270936      -0.09288515
In       1.34886025       2.49880536       4.71933758        2       0.08405907      -0.00270936       0.09288515
In       1.41590423       5.07824972       6.76407794        3      -0.08405907      -0.00270936      -0.09288515
In       4.11362474       2.49880536       6.76407794        4       0.08405907      -0.00270936      -0.09288515
In       4.18066872       5.07824972       4.71933758        5      -0.08405907      -0.00270936       0.09288515
In       4.18066872       2.66008335       2.93627276        6      -0.08405907       0.00270936      -0.09288515
In       4.11362474       0.08063899       0.89153241        7       0.08405907       0.00270936       0.09288515
O        2.11126906       3.04166649       6.55185918        8       0.02238574       0.06366653      -0.05739605
O        0.65349543       0.46222213       4.93155634        9      -0.02238574       0.06366653       0.05739605
O        0.65349543       2.11722223       2.72405400       10      -0.02238574      -0.06366653      -0.05739605
O        2.11126906       4.69666659       1.10375117       11       0.02238574      -0.06366653       0.05739605
O        3.41825991       2.11722223       1.10375117       12      -0.02238574      -0.06366653       0.05739605
O        4.87603355       4.69666659       2.72405400       13       0.02238574      -0.06366653      -0.05739605
O        4.87603355       3.04166649       4.93155634       14       0.02238574       0.06366653       0.05739605
O        3.41825991       0.46222213       6.55185918       15      -0.02238574       0.06366653      -0.05739605
O        5.36934932       3.86916654       0.00000000       16      -0.09434369      -0.00000000      -0.00000000
O        2.92494414       1.28972218       3.82780517       17       0.09434369       0.00000000       0.00000000
O        0.16017966       1.28972218       0.00000000       18       0.09434369      -0.00000000       0.00000000
O        2.60458483       3.86916654       3.82780517       19      -0.09434369       0.00000000       0.00000000
20
Lattice="5.4990373913192565 -2.0982614549193468e-58 -3.864098046335151e-43 1.783298178276995e-58 5.186129483419573 -5.229453786430661e-16 5.084082828057983e-43 9.404649490921988e-16 7.6576249155137734" Properties=species:S:1:pos:R:3:spacegroup_kinds:I:1:forces:R:3 spacegroup="P 1" unit_cell=conventional occupancy="_JSON {\"0\": {\"In\": 1}, \"1\": {\"In\": 1}, \"2\": {\"In\": 1}, \"3\": {\"In\": 1}, \"4\": {\"In\": 1}, \"5\": {\"In\": 1}, \"6\": {\"In\": 1}, \"7\": {\"In\": 1}, \"8\": {\"O\": 1}, \"9\": {\"O\": 1}, \"10\": {\"O\": 1}, \"11\": {\"O\": 1}, \"12\": {\"O\": 1}, \"13\": {\"O\": 1}, \"14\": {\"O\": 1}, \"15\": {\"O\": 1}, \"16\": {\"O\": 1}, \"17\": {\"O\": 1}, \"18\": {\"O\": 1}, \"19\": {\"O\": 1}}" n_minim_iter=5 energy=-22573.134946694834 stress="-0.1397801707247835 -1.4991304566741065e-12 -3.0677095242281034e-12 -1.4991304566741065e-12 -0.1363104971340491 3.187759239231643e-13 -3.0677095242281034e-12 3.187759239231643e-13 -0.13089730009609915" free_energy=-22573.134946694834 pbc="T T T"
In       1.40548224       2.68461932       0.89934369        0      -0.18654917      -0.03819371       0.05144311
In       1.34403646       0.09155458       2.92946876        1       0.18654917      -0.03819371      -0.05144311
In       1.34403646       2.50151016       4.72815615        2       0.18654917       0.03819371       0.05144311
In       1.40548224       5.09457490       6.75828122        3      -0.18654917       0.03819371      -0.05144311
In       4.09355515       2.50151016       6.75828122        4       0.18654917       0.03819371      -0.05144311
In       4.15500094       5.09457490       4.72815615        5      -0.18654917       0.03819371       0.05144311
In       4.15500094       2.68461932       2.92946876        6      -0.18654917      -0.03819371      -0.05144311
In       4.09355515       0.09155458       0.89934369        7       0.18654917      -0.03819371       0.05144311
O        2.10533541       3.07198179       6.55641283        8      -0.05177424       0.00781097      -0.08895714
O        0.64418328       0.47891705       4.93002455        9       0.05177424       0.00781097       0.08895714
O        0.64418328       2.11414769       2.72760037       10       0.05177424      -0.00781097      -0.08895714
O        2.10533541       4.70721244       1.10121209       11      -0.05177424      -0.00781097       0.08895714
O        3.39370198       2.11414769       1.10121209       12       0.05177424      -0.00781097       0.08895714
O        4.85485411       4.70721244       2.72760037       13      -0.05177424      -0.00781097      -0.08895714
O        4.85485411       3.07198179       4.93002455       14      -0.05177424       0.00781097       0.08895714
O        3.39370198       0.47891705       6.55641283       15       0.05177424       0.00781097      -0.08895714
O        5.33206298       3.88959711       0.00000000       16      -0.13017958      -0.00000000       0.00000000
O        2.91649310       1.29653237       3.82881246       17       0.13017958      -0.00000000      -0.00000000
O        0.16697441       1.29653237       0.00000000       18       0.13017958      -0.00000000      -0.00000000
O        2.58254429       3.88959711       3.82881246       19      -0.13017958       0.00000000       0.00000000
20
Lattice="5.494407660768842 -1.812334890214057e-58 -3.883284229297189e-43 1.749007840897975e-58 5.2138502807195435 -4.321122255273647e-16 7.627929692965395e-43 1.0793480816724701e-15 7.623329358955035" Properties=species:S:1:pos:R:3:spacegroup_kinds:I:1:forces:R:3 spacegroup="P 1" unit_cell=conventional occupancy="_JSON {\"0\": {\"In\": 1}, \"1\": {\"In\": 1}, \"2\": {\"In\": 1}, \"3\": {\"In\": 1}, \"4\": {\"In\": 1}, \"5\": {\"In\": 1}, \"6\": {\"In\": 1}, \"7\": {\"In\": 1}, \"8\": {\"O\": 1}, \"9\": {\"O\": 1}, \"10\": {\"O\": 1}, \"11\": {\"O\": 1}, \"12\": {\"O\": 1}, \"13\": {\"O\": 1}, \"14\": {\"O\": 1}, \"15\": {\"O\": 1}, \"16\": {\"O\": 1}, \"17\": {\"O\": 1}, \"18\": {\"O\": 1}, \"19\": {\"O\": 1}}" n_minim_iter=6 energy=-22573.145457527535 stress="-0.13147060254613088 -1.8789495935803805e-12 -1.135199591137352e-12 -1.8789495935803805e-12 -0.13288104092881659 4.1224921619846163e-13 -1.135199591137352e-12 4.1224921619846163e-13 -0.13424275020374427" free_energy=-22573.145457527535 pbc="T T T"
In       1.39666281       2.70669299       0.90302418        0      -0.02271419       0.01273077      -0.07795787
In       1.35054102       0.09976785       2.90864049        1       0.02271419       0.01273077       0.07795787
In       1.35054102       2.50715729       4.71468886        2       0.02271419      -0.01273077      -0.07795787
In       1.39666281       5.11408243       6.72030517        3      -0.02271419      -0.01273077       0.07795787
In       4.09774485       2.50715729       6.72030517        4       0.02271419      -0.01273077       0.07795787
In       4.14386664       5.11408243       4.71468886        5      -0.02271419      -0.01273077      -0.07795787
In       4.14386664       2.70669299       2.90864049        6      -0.02271419       0.01273077       0.07795787
In       4.09774485       0.09976785       0.90302418        7       0.02271419       0.01273077      -0.07795787
O        2.10799078       3.10136774       6.52723500        8       0.03818382       0.00281493       0.04888184
O        0.63921305       0.49444260       4.90775904        9      -0.03818382       0.00281493      -0.04888184
O        0.63921305       2.11248254       2.71557032       10      -0.03818382      -0.00281493       0.04888184
O        2.10799078       4.71940768       1.09609436       11       0.03818382      -0.00281493      -0.04888184
O        3.38641688       2.11248254       1.09609436       12      -0.03818382      -0.00281493      -0.04888184
O        4.85519461       4.71940768       2.71557032       13       0.03818382      -0.00281493       0.04888184
O        4.85519461       3.10136774       4.90775904       14       0.03818382       0.00281493      -0.04888184
O        3.38641688       0.49444260       6.52723500       15      -0.03818382       0.00281493       0.04888184
O        5.31638036       3.91038771       0.00000000       16      -0.04205107      -0.00000000       0.00000000
O        2.92523113       1.30346257       3.81166468       17       0.04205107       0.00000000       0.00000000
O        0.17802730       1.30346257       0.00000000       18       0.04205107       0.00000000      -0.00000000
O        2.56917653       3.91038771       3.81166468       19      -0.04205107       0.00000000       0.00000000
20
Lattice="5.476404302677164 -1.6973066794773755e-58 -3.5281301715853754e-43 1.5064973620022055e-58 5.23539306377704 -4.570418439429307e-16 7.1207482362110614e-43 1.0459423669350432e-15 7.616918735455202" Properties=species:S:1:pos:R:3:spacegroup_kinds:I:1:forces:R:3 spacegroup="P 1" unit_cell=conventional occupancy="_JSON {\"0\": {\"In\": 1}, \"1\": {\"In\": 1}, \"2\": {\"In\": 1}, \"3\": {\"In\": 1}, \"4\": {\"In\": 1}, \"5\": {\"In\": 1}, \"6\": {\"In\": 1}, \"7\": {\"In\": 1}, \"8\": {\"O\": 1}, \"9\": {\"O\": 1}, \"10\": {\"O\": 1}, \"11\": {\"O\": 1}, \"12\": {\"O\": 1}, \"13\": {\"O\": 1}, \"14\": {\"O\": 1}, \"15\": {\"O\": 1}, \"16\": {\"O\": 1}, \"17\": {\"O\": 1}, \"18\": {\"O\": 1}, \"19\": {\"O\": 1}}" n_minim_iter=7 energy=-22573.147889221746 stress="-0.13168180003260033 -5.589383962501887e-13 -4.2681416072246273e-13 -5.589383962501887e-13 -0.13210537619692447 -8.635153699250377e-13 -4.2681416072246273e-13 -8.635153699250377e-13 -0.1300990815125428" free_energy=-22573.147889221746 pbc="T T T"
In       1.38756637       2.72491802       0.90440006        0      -0.03247997      -0.00062744      -0.01535370
In       1.35063578       0.10722149       2.90405931        1       0.03247997      -0.00062744       0.01535370
In       1.35063578       2.51047504       4.71285942        2       0.03247997       0.00062744      -0.01535370
In       1.38756637       5.12817158       6.71251868        3      -0.03247997       0.00062744       0.01535370
In       4.08883793       2.51047504       6.71251868        4       0.03247997       0.00062744       0.01535370
In       4.12576852       5.12817158       4.71285942        5      -0.03247997       0.00062744      -0.01535371
In       4.12576852       2.72491802       2.90405931        6      -0.03247997      -0.00062744       0.01535371
In       4.08883793       0.10722149       0.90440006        7       0.03247997      -0.00062744      -0.01535370
O        2.10560460       3.12366207       6.52469447        8       0.01602691      -0.02462963      -0.02151698
O        0.63259755       0.50596554       4.90068363        9      -0.01602691      -0.02462963       0.02151698
O        0.63259755       2.11173100       2.71623510       10      -0.01602691       0.02462963      -0.02151698
O        2.10560460       4.72942753       1.09222426       11       0.01602691       0.02462963       0.02151698
O        3.37079970       2.11173100       1.09222426       12      -0.01602691       0.02462963       0.02151698
O        4.84380675       4.72942753       2.71623510       13       0.01602691       0.02462963      -0.02151698
O        4.84380675       3.12366207       4.90068363       14       0.01602691      -0.02462963       0.02151698
O        3.37079970       0.50596554       6.52469447       15      -0.01602691      -0.02462963      -0.02151698
O        5.29106592       3.92654480       0.00000000       16      -0.00541399      -0.00000000      -0.00000000
O        2.92354054       1.30884827       3.80845937       17       0.00541399      -0.00000000       0.00000000
O        0.18533839       1.30884827       0.00000000       18       0.00541399      -0.00000000       0.00000000
O        2.55286376       3.92654480       3.80845937       19      -0.00541399      -0.00000000       0.00000000
20
Lattice="5.475830749560272 -1.6789917018332513e-58 -3.4760294498274487e-43 1.5332124551575322e-58 5.238356876209543 -4.1879536226456857e-16 7.35218752003813e-43 1.1037846989999546e-15 7.6134065203611865" Properties=species:S:1:pos:R:3:spacegroup_kinds:I:1:forces:R:3 spacegroup="P 1" unit_cell=conventional occupancy="_JSON {\"0\": {\"In\": 1}, \"1\": {\"In\": 1}, \"2\": {\"In\": 1}, \"3\": {\"In\": 1}, \"4\": {\"In\": 1}, \"5\": {\"In\": 1}, \"6\": {\"In\": 1}, \"7\": {\"In\": 1}, \"8\": {\"O\": 1}, \"9\": {\"O\": 1}, \"10\": {\"O\": 1}, \"11\": {\"O\": 1}, \"12\": {\"O\": 1}, \"13\": {\"O\": 1}, \"14\": {\"O\": 1}, \"15\": {\"O\": 1}, \"16\": {\"O\": 1}, \"17\": {\"O\": 1}, \"18\": {\"O\": 1}, \"19\": {\"O\": 1}}" n_minim_iter=8 energy=-22573.14830642006 stress="-0.13139174046993543 4.277142036169752e-13 -1.5505697487809658e-12 4.277142036169752e-13 -0.13119334251060022 -1.590378933841353e-12 -1.5505697487809658e-12 -1.590378933841353e-12 -0.1307598258982285" free_energy=-22573.14830642006 pbc="T T T"
In       1.38657482       2.72665574       0.90355258        0      -0.01241649       0.01384435      -0.01031637
In       1.35134055       0.10747730       2.90315068        1       0.01241649       0.01384435       0.01031637
In       1.35134055       2.51170114       4.71025584        2       0.01241649      -0.01384435      -0.01031637
In       1.38657482       5.13087958       6.70985395        3      -0.01241649      -0.01384435       0.01031637
In       4.08925593       2.51170114       6.70985395        4       0.01241649      -0.01384435       0.01031637
In       4.12449020       5.13087958       4.71025584        5      -0.01241649      -0.01384435      -0.01031637
In       4.12449020       2.72665574       2.90315068        6      -0.01241649       0.01384435       0.01031637
In       4.08925593       0.10747730       0.90355258        7       0.01241649       0.01384435      -0.01031637
O        2.10584160       3.12536927       6.52153677        8       0.01703189      -0.01136242      -0.01689070
O        0.63207378       0.50619083       4.89857301        9      -0.01703189      -0.01136242       0.01689070
O        0.63207378       2.11298761       2.71483351       10      -0.01703189       0.01136242      -0.01689070
O        2.10584160       4.73216605       1.09186975       11       0.01703189       0.01136242       0.01689070
O        3.36998915       2.11298761       1.09186975       12      -0.01703189       0.01136242       0.01689070
O        4.84375697       4.73216605       2.71483351       13       0.01703189       0.01136242      -0.01689070
O        4.84375697       3.12536927       4.89857301       14       0.01703189      -0.01136242       0.01689070
O        3.36998915       0.50619083       6.52153677       15      -0.01703189      -0.01136242      -0.01689070
O        5.28992865       3.92876766       0.00000000       16       0.00838307       0.00000000      -0.00000000
O        2.92381748       1.30958922       3.80670326       17      -0.00838307      -0.00000000       0.00000000
O        0.18590210       1.30958922       0.00000000       18      -0.00838307      -0.00000000      -0.00000000
O        2.55201327       3.92876766       3.80670326       19       0.00838307       0.00000000       0.00000000
20
Lattice="5.475138898109102 -1.690794093627768e-58 -6.88979304180223e-44 1.3736665278868753e-58 5.24185668602141 -3.96334654815594e-16 8.633303097342477e-43 1.137975137359735e-15 7.60928471286937" Properties=species:S:1:pos:R:3:spacegroup_kinds:I:1:forces:R:3 spacegroup="P 1" unit_cell=conventional occupancy="_JSON {\"0\": {\"In\": 1}, \"1\": {\"In\": 1}, \"2\": {\"In\": 1}, \"3\": {\"In\": 1}, \"4\": {\"In\": 1}, \"5\": {\"In\": 1}, \"6\": {\"In\": 1}, \"7\": {\"In\": 1}, \"8\": {\"O\": 1}, \"9\": {\"O\": 1}, \"10\": {\"O\": 1}, \"11\": {\"O\": 1}, \"12\": {\"O\": 1}, \"13\": {\"O\": 1}, \"14\": {\"O\": 1}, \"15\": {\"O\": 1}, \"16\": {\"O\": 1}, \"17\": {\"O\": 1}, \"18\": {\"O\": 1}, \"19\": {\"O\": 1}}" n_minim_iter=9 energy=-22573.14857754992 stress="-0.13082085333977084 1.454725811547187e-12 1.1912349077742079e-12 1.454725811547187e-12 -0.13067796709287885 -3.483095921458969e-13 1.1912349077742079e-12 -3.483095921458969e-13 -0.1309599605220976" free_energy=-22573.14857754992 pbc="T T T"
In       1.38535883       2.72950311       0.90277957        0       0.00378533       0.01666692      -0.00257262
In       1.35221062       0.10857477       2.90186279        1      -0.00378533       0.01666692       0.00257262
In       1.35221062       2.51235357       4.70742192        2      -0.00378533      -0.01666692      -0.00257262
In       1.38535883       5.13328192       6.70650515        3       0.00378533      -0.01666692       0.00257262
In       4.08978007       2.51235357       6.70650515        4      -0.00378533      -0.01666692       0.00257262
In       4.12292828       5.13328192       4.70742192        5       0.00378533      -0.01666692      -0.00257262
In       4.12292828       2.72950311       2.90186279        6       0.00378533       0.01666692       0.00257262
In       4.08978007       0.10857477       0.90277957        7      -0.00378533       0.01666692      -0.00257262
O        2.10661296       3.12798085       6.51783048        8       0.01603378      -0.00339577      -0.01460267
O        0.63095649       0.50705251       4.89609659        9      -0.01603378      -0.00339577       0.01460267
O        0.63095649       2.11387584       2.71318813       10      -0.01603378       0.00339577      -0.01460267
O        2.10661296       4.73480418       1.09145423       11       0.01603378       0.00339577       0.01460267
O        3.36852594       2.11387584       1.09145423       12      -0.01603378       0.00339577       0.01460267
O        4.84418241       4.73480418       2.71318813       13       0.01603378       0.00339577      -0.01460267
O        4.84418241       3.12798085       4.89609659       14       0.01603378      -0.00339577       0.01460267
O        3.36852594       0.50705251       6.51783048       15      -0.01603378      -0.00339577      -0.01460267
O        5.28848090       3.93139251       0.00000000       16       0.01547038      -0.00000000      -0.00000000
O        2.92422744       1.31046417       3.80464236       17      -0.01547038       0.00000000      -0.00000000
O        0.18665800       1.31046417       0.00000000       18      -0.01547038      -0.00000000       0.00000000
O        2.55091145       3.93139251       3.80464236       19       0.01547038      -0.00000000      -0.00000000
20