20
Lattice="5.674908650744189 8.218380378927329e-60 2.3300112199999734e-43 2.7757868864442232e-59 5.8671895444601025 -8.035888947469424e-17 -1.439737929035049e-42 -1.167696411844667e-16 9.06680061835841" Properties=species:S:1:pos:R:3:spacegroup_kinds:I:1:forces:R:3 spacegroup="P 1" unit_cell=conventional occupancy="_JSON {\"0\": {\"In\": 1}, \"1\": {\"In\": 1}, \"2\": {\"In\": 1}, \"3\": {\"In\": 1}, \"4\": {\"In\": 1}, \"5\": {\"In\": 1}, \"6\": {\"In\": 1}, \"7\": {\"In\": 1}, \"8\": {\"O\": 1}, \"9\": {\"O\": 1}, \"10\": {\"O\": 1}, \"11\": {\"O\": 1}, \"12\": {\"O\": 1}, \"13\": {\"O\": 1}, \"14\": {\"O\": 1}, \"15\": {\"O\": 1}, \"16\": {\"O\": 1}, \"17\": {\"O\": 1}, \"18\": {\"O\": 1}, \"19\": {\"O\": 1}}" n_minim_iter=18 energy=-22573.426003443794 stress="0.06244459558331002 2.0340890337971918e-13 8.608266534266369e-13 2.0340890337971918e-13 0.06219498066970696 3.615910584364239e-13 8.608266534266369e-13 3.615910584364239e-13 0.062346896750439654" free_energy=-22573.426003443794 pbc="T T T"
In       1.36582819       3.09314901       1.11538626        0       0.00812296       0.00094287      -0.00179160
In       1.47162614       0.15955423       3.41801404        1      -0.00812296       0.00094287       0.00179160
In       1.47162614       2.77404054       5.64878657        2      -0.00812296      -0.00094287      -0.00179160
In       1.36582819       5.70763531       7.95141435        3       0.00812296      -0.00094287       0.00179160
In       4.30908046       2.77404054       7.95141435        4      -0.00812296      -0.00094287       0.00179160
In       4.20328251       5.70763531       5.64878657        5       0.00812296      -0.00094287      -0.00179160
In       4.20328251       3.09314901       3.41801404        6       0.00812296       0.00094287       0.00179160
In       4.30908046       0.15955423       1.11538626        7      -0.00812296       0.00094287      -0.00179160
O        2.24264363       3.55448209       7.58258725        8      -0.00005907       0.00171353      -0.00404145
O        0.59481070       0.62088731       6.01761368        9       0.00005907       0.00171353       0.00404145
O        0.59481070       2.31270746       3.04918694       10       0.00005907      -0.00171353      -0.00404145
O        2.24264363       5.24630223       1.48421337       11      -0.00005907      -0.00171353       0.00404145
O        3.43226502       2.31270746       1.48421337       12       0.00005907      -0.00171353       0.00404145
O        5.08009795       5.24630223       3.04918694       13      -0.00005907      -0.00171353      -0.00404145
O        5.08009795       3.55448209       6.01761368       14      -0.00005907       0.00171353       0.00404145
O        3.43226502       0.62088731       7.58258725       15       0.00005907       0.00171353      -0.00404145
O        5.42124105       4.40039216      -0.00000000       16      -0.00463937      -0.00000000      -0.00000000
O        3.09112192       1.46679739       4.53340031       17       0.00463937      -0.00000000      -0.00000000
O        0.25366760       1.46679739      -0.00000000       18       0.00463937       0.00000000      -0.00000000
O        2.58378673       4.40039216       4.53340031       19      -0.00463937      -0.00000000       0.00000000
