20
Lattice="5.348607170089577 -9.623358738673365e-59 -7.997999704276729e-44 7.967567102317452e-59 5.231736462492939 -7.985720585403462e-16 1.0477138068332925e-43 1.254610202655619e-15 7.345284442722937" Properties=species:S:1:pos:R:3:spacegroup_kinds:I:1:forces:R:3 spacegroup="P 1" unit_cell=conventional occupancy="_JSON {\"0\": {\"In\": 1}, \"1\": {\"In\": 1}, \"2\": {\"In\": 1}, \"3\": {\"In\": 1}, \"4\": {\"In\": 1}, \"5\": {\"In\": 1}, \"6\": {\"In\": 1}, \"7\": {\"In\": 1}, \"8\": {\"O\": 1}, \"9\": {\"O\": 1}, \"10\": {\"O\": 1}, \"11\": {\"O\": 1}, \"12\": {\"O\": 1}, \"13\": {\"O\": 1}, \"14\": {\"O\": 1}, \"15\": {\"O\": 1}, \"16\": {\"O\": 1}, \"17\": {\"O\": 1}, \"18\": {\"O\": 1}, \"19\": {\"O\": 1}}" n_minim_iter=11 energy=-22570.4384535295 stress="-0.3089420997888651 -6.302589622360282e-13 -8.373211222316277e-13 -6.302589622360282e-13 -0.30902239829841216 -2.9170651276615597e-12 -8.373211222316277e-13 -2.9170651276615597e-12 -0.30894433825329576" free_energy=-22570.4384535295 pbc="T T T"
In       1.34624240       2.75828340       0.85923404        0      -0.00106855      -0.00170003      -0.00374682
In       1.32806118       0.14241517       2.81340819        1       0.00106855      -0.00170003       0.00374682
In       1.32806118       2.47345306       4.53187626        2       0.00106855       0.00170003      -0.00374682
In       1.34624240       5.08932129       6.48605041        3      -0.00106855       0.00170003       0.00374682
In       4.00236477       2.47345306       6.48605041        4       0.00106855       0.00170003       0.00374682
In       4.02054599       5.08932129       4.53187626        5      -0.00106855       0.00170003      -0.00374682
In       4.02054599       2.75828340       2.81340819        6      -0.00106855      -0.00170003       0.00374682
In       4.00236477       0.14241517       0.85923404        7       0.00106855      -0.00170003      -0.00374682
O        2.08897986       3.15915315       6.27221613        8       0.00316681      -0.00304350       0.00172712
O        0.58532372       0.54328492       4.74571053        9      -0.00316681      -0.00304350      -0.00172712
O        0.58532372       2.07258331       2.59957391       10      -0.00316681       0.00304350       0.00172712
O        2.08897986       4.68845154       1.07306831       11       0.00316681       0.00304350      -0.00172712
O        3.25962731       2.07258331       1.07306831       12      -0.00316681       0.00304350      -0.00172712
O        4.76328345       4.68845154       2.59957391       13       0.00316681       0.00304350       0.00172712
O        4.76328345       3.15915315       4.74571053       14       0.00316681      -0.00304350      -0.00172712
O        3.25962731       0.54328492       6.27221613       15      -0.00316681      -0.00304350       0.00172712
O        5.13781441       3.92380235       0.00000000       16      -0.00294564      -0.00000000       0.00000000
O        2.88509634       1.30793412       3.67264222       17       0.00294564       0.00000000      -0.00000000
O        0.21079276       1.30793412       0.00000000       18       0.00294564       0.00000000       0.00000000
O        2.46351083       3.92380235       3.67264222       19      -0.00294564      -0.00000000       0.00000000
