20
Lattice="5.424558007245502 -5.847913939159825e-60 -2.4766445181954756e-43 4.2500004578006323e-60 5.513229405540744 -3.7092594471254765e-17 3.5300153847166058e-43 5.2018572282749195e-17 7.731740700040551" Properties=species:S:1:pos:R:3:spacegroup_kinds:I:1:forces:R:3 spacegroup="P 1" unit_cell=conventional occupancy="_JSON {\"0\": {\"In\": 1}, \"1\": {\"In\": 1}, \"2\": {\"In\": 1}, \"3\": {\"In\": 1}, \"4\": {\"In\": 1}, \"5\": {\"In\": 1}, \"6\": {\"In\": 1}, \"7\": {\"In\": 1}, \"8\": {\"O\": 1}, \"9\": {\"O\": 1}, \"10\": {\"O\": 1}, \"11\": {\"O\": 1}, \"12\": {\"O\": 1}, \"13\": {\"O\": 1}, \"14\": {\"O\": 1}, \"15\": {\"O\": 1}, \"16\": {\"O\": 1}, \"17\": {\"O\": 1}, \"18\": {\"O\": 1}, \"19\": {\"O\": 1}}" n_minim_iter=1 energy=-22574.24049833946 stress="-0.06454012105657 -8.713645322667145e-13 -2.720485682551121e-13 -8.713645322667145e-13 -0.06208382767726638 1.5579793735759422e-12 -2.720485682551121e-13 1.5579793735759422e-12 -0.06160869156571102" free_energy=-22574.24049833946 pbc="T T T"
In       1.35725978       2.91969884       0.88545549        0       0.05444157      -0.02215302       0.06268926
In       1.35501922       0.16308414       2.98041486        1      -0.05444157      -0.02215302      -0.06268926
In       1.35501922       2.59353057       4.75132584        2      -0.05444157       0.02215302       0.06268926
In       1.35725978       5.35014527       6.84628521        3       0.05444157       0.02215302      -0.06268926
In       4.06729822       2.59353057       6.84628521        4      -0.05444157       0.02215302      -0.06268926
In       4.06953879       5.35014527       4.75132584        5       0.05444157       0.02215302       0.06268926
In       4.06953879       2.91969884       2.98041486        6       0.05444157      -0.02215302      -0.06268926
In       4.06729822       0.16308414       0.88545549        7      -0.05444157      -0.02215302       0.06268926
O        2.10279372       3.32494494       6.57440662        8      -0.03926310       0.00266304       0.05212186
O        0.60948529       0.56833023       5.02320443        9       0.03926310       0.00266304      -0.05212186
O        0.60948529       2.18828447       2.70853627       10       0.03926310      -0.00266304       0.05212186
O        2.10279372       4.94489917       1.15733408       11      -0.03926310      -0.00266304      -0.05212186
O        3.32176429       2.18828447       1.15733408       12       0.03926310      -0.00266304      -0.05212186
O        4.81507272       4.94489917       2.70853627       13      -0.03926310      -0.00266304       0.05212186
O        4.81507272       3.32494494       5.02320443       14      -0.03926310       0.00266304      -0.05212186
O        3.32176429       0.56833023       6.57440662       15       0.03926310       0.00266304       0.05212186
O        5.20026456       4.13492205       0.00000000       16       0.05245338       0.00000000      -0.00000000
O        2.93657245       1.37830735       3.86587035       17      -0.05245338      -0.00000000      -0.00000000
O        0.22429345       1.37830735       0.00000000       18      -0.05245338      -0.00000000       0.00000000
O        2.48798555       4.13492205       3.86587035       19       0.05245338       0.00000000       0.00000000
20
Lattice="5.4366476011269995 -6.335161236458201e-60 -2.4867487854496896e-43 3.588073134210363e-60 5.508718062290753 -4.106825997414699e-17 3.5185230157177423e-43 4.633622815093449e-17 7.720865255379455" Properties=species:S:1:pos:R:3:spacegroup_kinds:I:1:forces:R:3 spacegroup="P 1" unit_cell=conventional occupancy="_JSON {\"0\": {\"In\": 1}, \"1\": {\"In\": 1}, \"2\": {\"In\": 1}, \"3\": {\"In\": 1}, \"4\": {\"In\": 1}, \"5\": {\"In\": 1}, \"6\": {\"In\": 1}, \"7\": {\"In\": 1}, \"8\": {\"O\": 1}, \"9\": {\"O\": 1}, \"10\": {\"O\": 1}, \"11\": {\"O\": 1}, \"12\": {\"O\": 1}, \"13\": {\"O\": 1}, \"14\": {\"O\": 1}, \"15\": {\"O\": 1}, \"16\": {\"O\": 1}, \"17\": {\"O\": 1}, \"18\": {\"O\": 1}, \"19\": {\"O\": 1}}" n_minim_iter=2 energy=-22574.24148528135 stress="-0.0615879595338541 -1.0556551484888043e-13 -2.7130826664415986e-13 -1.0556551484888043e-13 -0.062247338107121616 4.4229278680745724e-13 -2.7130826664415986e-13 4.4229278680745724e-13 -0.06307303576164201" free_energy=-22574.24148528135 pbc="T T T"
In       1.36057718       2.91719106       0.88454560        0       0.07321628      -0.03978540       0.06354469
In       1.35774662       0.16283203       2.97588702        1      -0.07321628      -0.03978540      -0.06354469
In       1.35774662       2.59152700       4.74497823        2      -0.07321628       0.03978540       0.06354469
In       1.36057718       5.34588603       6.83631965        3       0.07321628       0.03978540      -0.06354469
In       4.07607042       2.59152700       6.83631965        4      -0.07321628       0.03978540      -0.06354469
In       4.07890098       5.34588603       4.74497823        5       0.07321628       0.03978540       0.06354469
In       4.07890098       2.91719106       2.97588702        6       0.07321628      -0.03978540      -0.06354469
In       4.07607042       0.16283203       0.88454560        7      -0.07321628      -0.03978540       0.06354469
O        2.10726921       3.32223848       6.56543811        8      -0.01485807      -0.00557186       0.06072236
O        0.61105459       0.56787945       5.01585978        9       0.01485807      -0.00557186      -0.06072236
O        0.61105459       2.18647958       2.70500548       10       0.01485807       0.00557186       0.06072236
O        2.10726921       4.94083861       1.15542715       11      -0.01485807       0.00557186      -0.06072236
O        3.32937839       2.18647958       1.15542715       12       0.01485807       0.00557186      -0.06072236
O        4.82559301       4.94083861       2.70500548       13      -0.01485807       0.00557186       0.06072236
O        4.82559301       3.32223848       5.01585978       14      -0.01485807      -0.00557186      -0.06072236
O        3.32937839       0.56787945       6.56543811       15       0.01485807      -0.00557186       0.06072236
O        5.21213609       4.13153855       0.00000000       16       0.06077360      -0.00000000       0.00000000
O        2.94283531       1.37717952       3.86043263       17      -0.06077360      -0.00000000      -0.00000000
O        0.22451151       1.37717952       0.00000000       18      -0.06077360       0.00000000       0.00000000
O        2.49381229       4.13153855       3.86043263       19       0.06077360       0.00000000      -0.00000000
20
Lattice="5.450078601186999 -6.371258647220125e-60 -2.4881156988059265e-43 3.279152791872223e-60 5.4846919238388585 -4.663133651532251e-17 3.532030728696214e-43 3.8442228316130916e-17 7.735576728839295" Properties=species:S:1:pos:R:3:spacegroup_kinds:I:1:forces:R:3 spacegroup="P 1" unit_cell=conventional occupancy="_JSON {\"0\": {\"In\": 1}, \"1\": {\"In\": 1}, \"2\": {\"In\": 1}, \"3\": {\"In\": 1}, \"4\": {\"In\": 1}, \"5\": {\"In\": 1}, \"6\": {\"In\": 1}, \"7\": {\"In\": 1}, \"8\": {\"O\": 1}, \"9\": {\"O\": 1}, \"10\": {\"O\": 1}, \"11\": {\"O\": 1}, \"12\": {\"O\": 1}, \"13\": {\"O\": 1}, \"14\": {\"O\": 1}, \"15\": {\"O\": 1}, \"16\": {\"O\": 1}, \"17\": {\"O\": 1}, \"18\": {\"O\": 1}, \"19\": {\"O\": 1}}" n_minim_iter=3 energy=-22574.24602221341 stress="-0.05996682129751525 -3.5608334208827407e-13 3.300966648897768e-13 -3.5608334208827407e-13 -0.06310964827907933 6.998126972318229e-13 3.300966648897768e-13 6.998126972318229e-13 -0.05874891886309454" free_energy=-22574.24602221341 pbc="T T T"
In       1.36875764       2.90206288       0.89076638        0      -0.02615916      -0.08314413       0.04685325
In       1.35628166       0.15971691       2.97702199        1       0.02615916      -0.08314413      -0.04685325
In       1.35628166       2.58262905       4.75855474        2       0.02615916       0.08314413       0.04685325
In       1.36875764       5.32497501       6.84481035        3      -0.02615916       0.08314413      -0.04685325
In       4.08132096       2.58262905       6.84481035        4       0.02615916       0.08314413      -0.04685325
In       4.09379694       5.32497501       4.75855474        5      -0.02615916       0.08314413       0.04685325
In       4.09379694       2.90206288       2.97702199        6      -0.02615916      -0.08314413      -0.04685325
In       4.08132096       0.15971691       0.89076638        7       0.02615916      -0.08314413       0.04685325
O        2.11079771       3.30755333       6.58208978        8      -0.02709348      -0.04562744       0.01182713
O        0.61424159       0.56520737       5.02127531        9       0.02709348      -0.04562744      -0.01182713
O        0.61424159       2.17713859       2.71430142       10       0.02709348       0.04562744       0.01182713
O        2.11079771       4.91948455       1.15348694       11      -0.02709348       0.04562744      -0.01182713
O        3.33928089       2.17713859       1.15348694       12       0.02709348       0.04562744      -0.01182713
O        4.83583701       4.91948455       2.71430142       13      -0.02709348       0.04562744       0.01182713
O        4.83583701       3.30755333       5.02127531       14      -0.02709348      -0.04562744      -0.01182713
O        3.33928089       0.56520737       6.58208978       15       0.02709348      -0.04562744       0.01182713
O        5.22919273       4.11351894       0.00000000       16       0.03371632       0.00000000      -0.00000000
O        2.94592517       1.37117298       3.86778836       17      -0.03371632      -0.00000000      -0.00000000
O        0.22088587       1.37117298       0.00000000       18      -0.03371632      -0.00000000      -0.00000000
O        2.50415343       4.11351894       3.86778836       19       0.03371632      -0.00000000      -0.00000000
20
Lattice="5.4505911494930155 -5.30887048340041e-60 -2.43635304548064e-43 7.270743518093002e-60 5.494333863671782 -2.5230472809241607e-17 3.3101280601233233e-43 6.83961569470062e-17 7.721275517882872" Properties=species:S:1:pos:R:3:spacegroup_kinds:I:1:forces:R:3 spacegroup="P 1" unit_cell=conventional occupancy="_JSON {\"0\": {\"In\": 1}, \"1\": {\"In\": 1}, \"2\": {\"In\": 1}, \"3\": {\"In\": 1}, \"4\": {\"In\": 1}, \"5\": {\"In\": 1}, \"6\": {\"In\": 1}, \"7\": {\"In\": 1}, \"8\": {\"O\": 1}, \"9\": {\"O\": 1}, \"10\": {\"O\": 1}, \"11\": {\"O\": 1}, \"12\": {\"O\": 1}, \"13\": {\"O\": 1}, \"14\": {\"O\": 1}, \"15\": {\"O\": 1}, \"16\": {\"O\": 1}, \"17\": {\"O\": 1}, \"18\": {\"O\": 1}, \"19\": {\"O\": 1}}" n_minim_iter=4 energy=-22574.24810073191 stress="-0.05994756678871145 9.372166296855597e-13 -1.1127566870940006e-12 9.372166296855597e-13 -0.05956556124740725 7.694791910562931e-13 -1.1127566870940006e-12 7.694791910562931e-13 -0.06003024666446632" free_energy=-22574.24810073191 pbc="T T T"
In       1.37092294       2.90552755       0.89149306        0      -0.05852131      -0.03643519       0.00322529
In       1.35437263       0.15836062       2.96914470        1       0.05852131      -0.03643519      -0.00322529
In       1.35437263       2.58880632       4.75213082        2       0.05852131       0.03643519       0.00322529
In       1.37092294       5.33597325       6.82978246        3      -0.05852131       0.03643519      -0.00322529
In       4.07966821       2.58880632       6.82978246        4       0.05852131       0.03643519      -0.00322529
In       4.09621852       5.33597325       4.75213082        5      -0.05852131       0.03643519       0.00322529
In       4.09621852       2.90552755       2.96914470        6      -0.05852131      -0.03643519      -0.00322529
In       4.07966821       0.15836062       0.89149306        7       0.05852131      -0.03643519       0.00322529
O        2.11005524       3.31298502       6.57188973        8      -0.03307950      -0.02485589       0.01125188
O        0.61524033       0.56581809       5.01002355        9       0.03307950      -0.02485589      -0.01125188
O        0.61524033       2.18134885       2.71125197       10       0.03307950       0.02485589       0.01125188
O        2.11005524       4.92851578       1.14938579       11      -0.03307950       0.02485589      -0.01125188
O        3.34053591       2.18134885       1.14938579       12       0.03307950       0.02485589      -0.01125188
O        4.83535082       4.92851578       2.71125197       13      -0.03307950       0.02485589       0.01125188
O        4.83535082       3.31298502       5.01002355       14      -0.03307950      -0.02485589      -0.01125188
O        3.34053591       0.56581809       6.57188973       15       0.03307950      -0.02485589       0.01125188
O        5.23181804       4.12075040       0.00000000       16       0.01224671      -0.00000000       0.00000000
O        2.94406868       1.37358347       3.86063776       17      -0.01224671      -0.00000000      -0.00000000
O        0.21877311       1.37358347       0.00000000       18      -0.01224671      -0.00000000      -0.00000000
O        2.50652247       4.12075040       3.86063776       19       0.01224671       0.00000000      -0.00000000
20
Lattice="5.456844857433219 -1.188836323296564e-59 -2.4354837723562294e-43 6.739339097577484e-59 5.479880618921193 -2.5317736636528897e-17 1.0060368803388157e-43 6.814150095770261e-17 7.732768313801272" Properties=species:S:1:pos:R:3:spacegroup_kinds:I:1:forces:R:3 spacegroup="P 1" unit_cell=conventional occupancy="_JSON {\"0\": {\"In\": 1}, \"1\": {\"In\": 1}, \"2\": {\"In\": 1}, \"3\": {\"In\": 1}, \"4\": {\"In\": 1}, \"5\": {\"In\": 1}, \"6\": {\"In\": 1}, \"7\": {\"In\": 1}, \"8\": {\"O\": 1}, \"9\": {\"O\": 1}, \"10\": {\"O\": 1}, \"11\": {\"O\": 1}, \"12\": {\"O\": 1}, \"13\": {\"O\": 1}, \"14\": {\"O\": 1}, \"15\": {\"O\": 1}, \"16\": {\"O\": 1}, \"17\": {\"O\": 1}, \"18\": {\"O\": 1}, \"19\": {\"O\": 1}}" n_minim_iter=5 energy=-22574.25038165833 stress="-0.05864950229406503 2.4174025186610368e-14 9.549227961644669e-14 2.4174025186610368e-14 -0.058933181772224466 -1.6827105237757807e-12 9.549227961644669e-14 -1.6827105237757807e-12 -0.05909454106596882" free_energy=-22574.25038165833 pbc="T T T"
In       1.37051956       2.89350823       0.89564561        0       0.00177945      -0.00054316      -0.02849587
In       1.35790287       0.15356793       2.97073855        1      -0.00177945      -0.00054316       0.02849587
In       1.35790287       2.58637238       4.76202976        2      -0.00177945       0.00054316      -0.02849587
In       1.37051956       5.32631269       6.83712271        3       0.00177945       0.00054316       0.02849587
In       4.08632530       2.58637238       6.83712271        4      -0.00177945       0.00054316       0.02849587
In       4.09894199       5.32631269       4.76202976        5       0.00177945       0.00054316      -0.02849587
In       4.09894199       2.89350823       2.97073855        6       0.00177945      -0.00054316       0.02849587
In       4.08632530       0.15356793       0.89564561        7      -0.00177945      -0.00054316      -0.02849587
O        2.10908541       3.30208779       6.58463755        8       0.00872259      -0.02239285       0.02658976
O        0.61933702       0.56214748       5.01451492        9      -0.00872259      -0.02239285      -0.02658976
O        0.61933702       2.17779283       2.71825339       10      -0.00872259       0.02239285       0.02658976
O        2.10908541       4.91773314       1.14813077       11       0.00872259       0.02239285      -0.02658976
O        3.34775944       2.17779283       1.14813077       12      -0.00872259       0.02239285      -0.02658976
O        4.83750784       4.91773314       2.71825339       13       0.00872259       0.02239285       0.02658976
O        4.83750784       3.30208779       5.01451492       14       0.00872259      -0.02239285      -0.02658976
O        3.34775944       0.56214748       6.58463755       15      -0.00872259      -0.02239285       0.02658976
O        5.24104626       4.10991046       0.00000000       16       0.01302861       0.00000000       0.00000000
O        2.94422103       1.36997015       3.86638416       17      -0.01302861       0.00000000      -0.00000000
O        0.21579860       1.36997015       0.00000000       18      -0.01302861      -0.00000000       0.00000000
O        2.51262383       4.10991046       3.86638416       19       0.01302861       0.00000000       0.00000000
20
Lattice="5.456025700584451 -1.2768813409477343e-59 -2.4941069857234342e-43 6.938970776272154e-59 5.476649123973414 -2.655838953518515e-17 9.662296192026078e-44 6.637255662844773e-17 7.738492698602012" Properties=species:S:1:pos:R:3:spacegroup_kinds:I:1:forces:R:3 spacegroup="P 1" unit_cell=conventional occupancy="_JSON {\"0\": {\"In\": 1}, \"1\": {\"In\": 1}, \"2\": {\"In\": 1}, \"3\": {\"In\": 1}, \"4\": {\"In\": 1}, \"5\": {\"In\": 1}, \"6\": {\"In\": 1}, \"7\": {\"In\": 1}, \"8\": {\"O\": 1}, \"9\": {\"O\": 1}, \"10\": {\"O\": 1}, \"11\": {\"O\": 1}, \"12\": {\"O\": 1}, \"13\": {\"O\": 1}, \"14\": {\"O\": 1}, \"15\": {\"O\": 1}, \"16\": {\"O\": 1}, \"17\": {\"O\": 1}, \"18\": {\"O\": 1}, \"19\": {\"O\": 1}}" n_minim_iter=6 energy=-22574.250805103162 stress="-0.05910859248885367 1.0489843769414316e-12 4.435994564340309e-13 1.0489843769414316e-12 -0.058671415306188475 -7.938008626932031e-13 4.435994564340309e-13 -7.938008626932031e-13 -0.05831773903982362" free_energy=-22574.250805103162 pbc="T T T"
In       1.36953673       2.89041288       0.89595347        0       0.00961235       0.00859710      -0.00869625
In       1.35847612       0.15208832       2.97329288        1      -0.00961235       0.00859710       0.00869625
In       1.35847612       2.58623624       4.76519982        2      -0.00961235      -0.00859710      -0.00869625
In       1.36953673       5.32456081       6.84253923        3       0.00961235      -0.00859710       0.00869625
In       4.08648897       2.58623624       6.84253923        4      -0.00961235      -0.00859710       0.00869625
In       4.09754958       5.32456081       4.76519982        5       0.00961235      -0.00859710      -0.00869625
In       4.09754958       2.89041288       2.97329288        6       0.00961235       0.00859710       0.00869625
In       4.08648897       0.15208832       0.89595347        7      -0.00961235       0.00859710      -0.00869625
O        2.10796262       3.29850308       6.59148441        8       0.00682602      -0.01577576      -0.00027273
O        0.62005023       0.56017852       5.01625464        9      -0.00682602      -0.01577576       0.00027273
O        0.62005023       2.17814604       2.72223806       10      -0.00682602       0.01577576      -0.00027273
O        2.10796262       4.91647060       1.14700829       11       0.00682602       0.01577576       0.00027273
O        3.34806308       2.17814604       1.14700829       12      -0.00682602       0.01577576       0.00027273
O        4.83597547       4.91647060       2.72223806       13       0.00682602       0.01577576      -0.00027273
O        4.83597547       3.29850308       5.01625464       14       0.00682602      -0.01577576       0.00027273
O        3.34806308       0.56017852       6.59148441       15      -0.00682602      -0.01577576      -0.00027273
O        5.24176237       4.10748684       0.00000000       16       0.00801930      -0.00000000      -0.00000000
O        2.94227618       1.36916228       3.86924635       17      -0.00801930       0.00000000       0.00000000
O        0.21426333       1.36916228       0.00000000       18      -0.00801930      -0.00000000       0.00000000
O        2.51374952       4.10748684       3.86924635       19       0.00801930      -0.00000000       0.00000000
20
Lattice="5.457750244385231 -1.3070940854771949e-59 -2.4359506484043304e-43 6.87066241175015e-59 5.476632239185738 -1.823497405156028e-17 8.416567190090989e-44 7.803897920626623e-17 7.736071334880946" Properties=species:S:1:pos:R:3:spacegroup_kinds:I:1:forces:R:3 spacegroup="P 1" unit_cell=conventional occupancy="_JSON {\"0\": {\"In\": 1}, \"1\": {\"In\": 1}, \"2\": {\"In\": 1}, \"3\": {\"In\": 1}, \"4\": {\"In\": 1}, \"5\": {\"In\": 1}, \"6\": {\"In\": 1}, \"7\": {\"In\": 1}, \"8\": {\"O\": 1}, \"9\": {\"O\": 1}, \"10\": {\"O\": 1}, \"11\": {\"O\": 1}, \"12\": {\"O\": 1}, \"13\": {\"O\": 1}, \"14\": {\"O\": 1}, \"15\": {\"O\": 1}, \"16\": {\"O\": 1}, \"17\": {\"O\": 1}, \"18\": {\"O\": 1}, \"19\": {\"O\": 1}}" n_minim_iter=7 energy=-22574.250930288013 stress="-0.058813079708065735 -9.669824094046582e-13 -4.943420136480465e-13 -9.669824094046582e-13 -0.058628786773208146 1.332064768686386e-13 -4.943420136480465e-13 1.332064768686386e-13 -0.05856578115854179" free_energy=-22574.250930288013 pbc="T T T"
In       1.37022670       2.89055260       0.89535355        0       0.00557035       0.00355409      -0.00085719
In       1.35864842       0.15223648       2.97268211        1      -0.00557035       0.00355409       0.00085719
In       1.35864842       2.58607964       4.76338922        2      -0.00557035      -0.00355409      -0.00085719
In       1.37022670       5.32439576       6.84071778        3       0.00557035      -0.00355409       0.00085719
In       4.08752354       2.58607964       6.84071778        4      -0.00557035      -0.00355409       0.00085719
In       4.09910182       5.32439576       4.76338922        5       0.00557035      -0.00355409      -0.00085719
In       4.09910182       2.89055260       2.97268211        6       0.00557035       0.00355409       0.00085719
In       4.08752354       0.15223648       0.89535355        7      -0.00557035       0.00355409      -0.00085719
O        2.10885136       3.29814683       6.58961128        8       0.00445395      -0.01452393      -0.00710694
O        0.62002376       0.55983071       5.01449572        9      -0.00445395      -0.01452393       0.00710694
O        0.62002376       2.17848541       2.72157561       10      -0.00445395       0.01452393      -0.00710694
O        2.10885136       4.91680152       1.14646006       11       0.00445395       0.01452393       0.00710694
O        3.34889888       2.17848541       1.14646006       12      -0.00445395       0.01452393       0.00710694
O        4.83772648       4.91680152       2.72157561       13       0.00445395       0.01452393      -0.00710694
O        4.83772648       3.29814683       5.01449572       14       0.00445395      -0.01452393       0.00710694
O        3.34889888       0.55983071       6.58961128       15      -0.00445395      -0.01452393      -0.00710694
O        5.24362849       4.10747418       0.00000000       16       0.00647809       0.00000000      -0.00000000
O        2.94299688       1.36915806       3.86803567       17      -0.00647809      -0.00000000       0.00000000
O        0.21412176       1.36915806       0.00000000       18      -0.00647809      -0.00000000      -0.00000000
O        2.51475337       4.10747418       3.86803567       19       0.00647809       0.00000000       0.00000000
20
Lattice="5.4595931225207535 -1.46894104164115e-59 -2.667887057100554e-43 6.5781963690982255e-59 5.4758466731464805 -3.030398188903481e-17 -1.5062668658096717e-44 6.109760279780878e-17 7.734569478357211" Properties=species:S:1:pos:R:3:spacegroup_kinds:I:1:forces:R:3 spacegroup="P 1" unit_cell=conventional occupancy="_JSON {\"0\": {\"In\": 1}, \"1\": {\"In\": 1}, \"2\": {\"In\": 1}, \"3\": {\"In\": 1}, \"4\": {\"In\": 1}, \"5\": {\"In\": 1}, \"6\": {\"In\": 1}, \"7\": {\"In\": 1}, \"8\": {\"O\": 1}, \"9\": {\"O\": 1}, \"10\": {\"O\": 1}, \"11\": {\"O\": 1}, \"12\": {\"O\": 1}, \"13\": {\"O\": 1}, \"14\": {\"O\": 1}, \"15\": {\"O\": 1}, \"16\": {\"O\": 1}, \"17\": {\"O\": 1}, \"18\": {\"O\": 1}, \"19\": {\"O\": 1}}" n_minim_iter=8 energy=-22574.25101408538 stress="-0.058568992835198744 3.8482298845800124e-13 -6.865896689006962e-13 3.8482298845800124e-13 -0.05861927996019336 -2.2071763367592265e-14 -6.865896689006962e-13 -2.2071763367592265e-14 -0.05871537253237428" free_energy=-22574.25101408538 pbc="T T T"
In       1.37095091       2.89023390       0.89491385        0       0.00188158      -0.00077856       0.00489867
In       1.35884565       0.15231057       2.97237089        1      -0.00188158      -0.00077856      -0.00489867
In       1.35884565       2.58561277       4.76219859        2      -0.00188158       0.00077856       0.00489867
In       1.37095091       5.32353611       6.83965563        3       0.00188158       0.00077856      -0.00489867
In       4.08864222       2.58561277       6.83965563        4      -0.00188158       0.00077856      -0.00489867
In       4.10074747       5.32353611       4.76219859        5       0.00188158       0.00077856       0.00489867
In       4.10074747       2.89023390       2.97237089        6       0.00188158      -0.00077856      -0.00489867
In       4.08864222       0.15231057       0.89491385        7      -0.00188158      -0.00077856       0.00489867
O        2.10979684       3.29703541       6.58840313        8       0.00105646      -0.01164741      -0.01108598
O        0.61999972       0.55911207       5.01345109        9      -0.00105646      -0.01164741       0.01108598
O        0.61999972       2.17881127       2.72111839       10      -0.00105646       0.01164741      -0.01108598
O        2.10979684       4.91673460       1.14616635       11       0.00105646       0.01164741       0.01108598
O        3.34979628       2.17881127       1.14616635       12      -0.00105646       0.01164741       0.01108598
O        4.83959340       4.91673460       2.72111839       13       0.00105646       0.01164741      -0.01108598
O        4.83959340       3.29703541       5.01345109       14       0.00105646      -0.01164741       0.01108598
O        3.34979628       0.55911207       6.58840313       15      -0.00105646      -0.01164741      -0.01108598
O        5.24575622       4.10688500       0.00000000       16       0.00463715       0.00000000      -0.00000000
O        2.94363347       1.36896167       3.86728474       17      -0.00463715      -0.00000000      -0.00000000
O        0.21383691       1.36896167       0.00000000       18      -0.00463715      -0.00000000      -0.00000000
O        2.51595965       4.10688500       3.86728474       19       0.00463715       0.00000000      -0.00000000
20
Lattice="5.462359964783538 -1.6305460955359963e-59 -2.899691570162224e-43 6.735291953233738e-59 5.473336304832547 -3.8190063732914566e-17 -1.1425942264034967e-43 5.001052136016451e-17 7.734197392038693" Properties=species:S:1:pos:R:3:spacegroup_kinds:I:1:forces:R:3 spacegroup="P 1" unit_cell=conventional occupancy="_JSON {\"0\": {\"In\": 1}, \"1\": {\"In\": 1}, \"2\": {\"In\": 1}, \"3\": {\"In\": 1}, \"4\": {\"In\": 1}, \"5\": {\"In\": 1}, \"6\": {\"In\": 1}, \"7\": {\"In\": 1}, \"8\": {\"O\": 1}, \"9\": {\"O\": 1}, \"10\": {\"O\": 1}, \"11\": {\"O\": 1}, \"12\": {\"O\": 1}, \"13\": {\"O\": 1}, \"14\": {\"O\": 1}, \"15\": {\"O\": 1}, \"16\": {\"O\": 1}, \"17\": {\"O\": 1}, \"18\": {\"O\": 1}, \"19\": {\"O\": 1}}" n_minim_iter=9 energy=-22574.251097566546 stress="-0.058333926045229724 -1.8226064604396397e-12 5.150287078990232e-13 -1.8226064604396397e-12 -0.05857475151629419 -1.9914328920867535e-13 5.150287078990232e-13 -1.9914328920867535e-13 -0.05881074238525402" free_energy=-22574.251097566546 pbc="T T T"
In       1.37201918       2.88885914       0.89467886        0      -0.00155319      -0.00355304       0.00692775
In       1.35916080       0.15219099       2.97241984        1       0.00155319      -0.00355304      -0.00692775
In       1.35916080       2.58447716       4.76177755        2       0.00155319       0.00355304       0.00692775
In       1.37201918       5.32114532       6.83951854        3      -0.00155319       0.00355304      -0.00692775
In       4.09034078       2.58447716       6.83951854        4       0.00155319       0.00355304      -0.00692775
In       4.10319916       5.32114532       4.76177755        5      -0.00155319       0.00355304       0.00692775
In       4.10319916       2.88885914       2.97241984        6      -0.00155319      -0.00355304      -0.00692775
In       4.09034078       0.15219099       0.89467886        7       0.00155319      -0.00355304       0.00692775
O        2.11111602       3.29395459       6.58796525        8      -0.00493705      -0.00340470      -0.00971977
O        0.62006396       0.55728644       5.01333084        9       0.00493705      -0.00340470       0.00971977
O        0.62006396       2.17938171       2.72086655       10       0.00493705       0.00340470      -0.00971977
O        2.11111602       4.91604986       1.14623214       11      -0.00493705       0.00340470       0.00971977
O        3.35124394       2.17938171       1.14623214       12       0.00493705       0.00340470       0.00971977
O        4.84229600       4.91604986       2.72086655       13      -0.00493705       0.00340470      -0.00971977
O        4.84229600       3.29395459       5.01333084       14      -0.00493705      -0.00340470       0.00971977
O        3.35124394       0.55728644       6.58796525       15       0.00493705      -0.00340470      -0.00971977
O        5.24930932       4.10500223       0.00000000       16       0.00068328      -0.00000000       0.00000000
O        2.94423063       1.36833408       3.86709870       17      -0.00068328      -0.00000000       0.00000000
O        0.21305064       1.36833408       0.00000000       18      -0.00068328      -0.00000000       0.00000000
O        2.51812934       4.10500223       3.86709870       19       0.00068328      -0.00000000       0.00000000
20