20
Lattice="5.292301860493516 -9.52205270218501e-59 -7.913803980945832e-44 7.883691745956991e-59 5.176661462239979 -7.90165412555514e-16 1.0366844213529547e-43 1.241402798627531e-15 7.267959916642305" Properties=species:S:1:pos:R:3:spacegroup_kinds:I:1:forces:R:3 spacegroup="P 1" unit_cell=conventional occupancy="_JSON {\"0\": {\"In\": 1}, \"1\": {\"In\": 1}, \"2\": {\"In\": 1}, \"3\": {\"In\": 1}, \"4\": {\"In\": 1}, \"5\": {\"In\": 1}, \"6\": {\"In\": 1}, \"7\": {\"In\": 1}, \"8\": {\"O\": 1}, \"9\": {\"O\": 1}, \"10\": {\"O\": 1}, \"11\": {\"O\": 1}, \"12\": {\"O\": 1}, \"13\": {\"O\": 1}, \"14\": {\"O\": 1}, \"15\": {\"O\": 1}, \"16\": {\"O\": 1}, \"17\": {\"O\": 1}, \"18\": {\"O\": 1}, \"19\": {\"O\": 1}}" n_minim_iter=11 energy=-22570.4384535295 stress="-0.3089420997888651 -6.302589622360282e-13 -8.373211222316277e-13 -6.302589622360282e-13 -0.30902239829841216 -2.9170651276615597e-12 -8.373211222316277e-13 -2.9170651276615597e-12 -0.30894433825329576" free_energy=-22570.4384535295 pbc="T T T"
In       1.33207038       2.72924669       0.85018880        0      -0.00106855      -0.00170003      -0.00374682
In       1.31408055       0.14091595       2.78379116        1       0.00106855      -0.00170003       0.00374682
In       1.31408055       2.44741478       4.48416875        2       0.00106855       0.00170003      -0.00374682
In       1.33207038       5.03574551       6.41777112        3      -0.00106855       0.00170003       0.00374682
In       3.96023148       2.44741478       6.41777112        4       0.00106855       0.00170003       0.00374682
In       3.97822131       5.03574551       4.48416875        5      -0.00106855       0.00170003      -0.00374682
In       3.97822131       2.72924669       2.78379116        6      -0.00106855      -0.00170003       0.00374682
In       3.96023148       0.14091595       0.85018880        7       0.00106855      -0.00170003      -0.00374682
O        2.06698897       3.12589644       6.20618790        8       0.00316681      -0.00304350       0.00172712
O        0.57916196       0.53756570       4.69575198        9      -0.00316681      -0.00304350      -0.00172712
O        0.57916196       2.05076503       2.57220794       10      -0.00316681       0.00304350       0.00172712
O        2.06698897       4.63909576       1.06177202       11       0.00316681       0.00304350      -0.00172712
O        3.22531289       2.05076503       1.06177202       12      -0.00316681       0.00304350      -0.00172712
O        4.71313990       4.63909576       2.57220794       13       0.00316681       0.00304350       0.00172712
O        4.71313990       3.12589644       4.69575198       14       0.00316681      -0.00304350      -0.00172712
O        3.22531289       0.53756570       6.20618790       15      -0.00316681      -0.00304350       0.00172712
O        5.08372814       3.88249610       0.00000000       16      -0.00294564      -0.00000000       0.00000000
O        2.85472465       1.29416537       3.63397996       17       0.00294564       0.00000000      -0.00000000
O        0.20857372       1.29416537       0.00000000       18       0.00294564       0.00000000       0.00000000
O        2.43757721       3.88249610       3.63397996       19      -0.00294564      -0.00000000       0.00000000
