20
Lattice="5.588048959923742 -1.7315508099602435e-62 7.711725448654905e-44 -1.9612276052218295e-64 5.6862513346052355 1.2909727568951548e-18 -1.1158615045025814e-43 -1.835734898332659e-18 8.085724473946618" Properties=species:S:1:pos:R:3:spacegroup_kinds:I:1:forces:R:3 spacegroup="P 1" unit_cell=conventional occupancy="_JSON {\"0\": {\"In\": 1}, \"1\": {\"In\": 1}, \"2\": {\"In\": 1}, \"3\": {\"In\": 1}, \"4\": {\"In\": 1}, \"5\": {\"In\": 1}, \"6\": {\"In\": 1}, \"7\": {\"In\": 1}, \"8\": {\"O\": 1}, \"9\": {\"O\": 1}, \"10\": {\"O\": 1}, \"11\": {\"O\": 1}, \"12\": {\"O\": 1}, \"13\": {\"O\": 1}, \"14\": {\"O\": 1}, \"15\": {\"O\": 1}, \"16\": {\"O\": 1}, \"17\": {\"O\": 1}, \"18\": {\"O\": 1}, \"19\": {\"O\": 1}}" n_minim_iter=1 energy=-22574.958851205593 stress="-0.0004671376406970461 -1.8912593391011343e-12 2.3041380537938276e-13 -1.8912593391011343e-12 -0.00016779279614315742 6.464499240940608e-13 2.3041380537938276e-13 6.464499240940608e-13 -2.8908386509074836e-05" free_energy=-22574.958851205593 pbc="T T T"
In       1.38586679       3.00509573       0.92747798        0      -0.00164947      -0.00220705      -0.00664503
In       1.40815769       0.16197006       3.11538425        1       0.00164947      -0.00220705       0.00664503
In       1.40815769       2.68115561       4.97034022        2       0.00164947       0.00220705      -0.00664503
In       1.38586679       5.52428128       7.15824649        3      -0.00164947       0.00220705       0.00664503
In       4.20218217       2.68115561       7.15824649        4       0.00164947       0.00220705       0.00664503
In       4.17989127       5.52428128       4.97034022        5      -0.00164947       0.00220705      -0.00664503
In       4.17989127       3.00509573       3.11538425        6      -0.00164947      -0.00220705       0.00664503
In       4.20218217       0.16197006       0.92747798        7       0.00164947      -0.00220705      -0.00664503
O        2.18051265       3.43526784       6.86692556        8      -0.00504194      -0.00075505       0.00157972
O        0.61351183       0.59214217       5.26166115        9       0.00504194      -0.00075505      -0.00157972
O        0.61351183       2.25098349       2.82406332       10       0.00504194       0.00075505       0.00157972
O        2.18051265       5.09410916       1.21879892       11      -0.00504194       0.00075505      -0.00157972
O        3.40753631       2.25098349       1.21879892       12       0.00504194       0.00075505      -0.00157972
O        4.97453713       5.09410916       2.82406332       13      -0.00504194       0.00075505       0.00157972
O        4.97453713       3.43526784       5.26166115       14      -0.00504194      -0.00075505      -0.00157972
O        3.40753631       0.59214217       6.86692556       15       0.00504194      -0.00075505       0.00157972
O        5.35356229       4.26468850      -0.00000000       16       0.00117742       0.00000000       0.00000000
O        3.02851114       1.42156283       4.04286224       17      -0.00117742      -0.00000000      -0.00000000
O        0.23448666       1.42156283      -0.00000000       18      -0.00117742      -0.00000000       0.00000000
O        2.55953782       4.26468850       4.04286224       19       0.00117742       0.00000000      -0.00000000
