20
Lattice="5.462793663636935 -6.238160387642017e-60 -1.4619090493358396e-43 5.471572632210997e-60 5.571022579491795 -3.326376610694562e-17 2.089790580085375e-43 4.662659585899353e-17 7.809032131243042" Properties=species:S:1:pos:R:3:spacegroup_kinds:I:1:forces:R:3 spacegroup="P 1" unit_cell=conventional occupancy="_JSON {\"0\": {\"In\": 1}, \"1\": {\"In\": 1}, \"2\": {\"In\": 1}, \"3\": {\"In\": 1}, \"4\": {\"In\": 1}, \"5\": {\"In\": 1}, \"6\": {\"In\": 1}, \"7\": {\"In\": 1}, \"8\": {\"O\": 1}, \"9\": {\"O\": 1}, \"10\": {\"O\": 1}, \"11\": {\"O\": 1}, \"12\": {\"O\": 1}, \"13\": {\"O\": 1}, \"14\": {\"O\": 1}, \"15\": {\"O\": 1}, \"16\": {\"O\": 1}, \"17\": {\"O\": 1}, \"18\": {\"O\": 1}, \"19\": {\"O\": 1}}" n_minim_iter=1 energy=-22574.56817954858 stress="-0.04367041649169469 -4.112455062933218e-13 -5.495007371596458e-13 -4.112455062933218e-13 -0.04309256358795759 -9.951108282806907e-13 -5.495007371596458e-13 -9.951108282806907e-13 -0.04178429983669643" free_energy=-22574.56817954858 pbc="T T T"
In       1.36292510       2.95291556       0.89094662        0       0.04053934       0.01029742       0.01837864
In       1.36847173       0.16740427       3.01356945        1      -0.04053934       0.01029742      -0.01837864
In       1.36847173       2.61810702       4.79546268        2      -0.04053934      -0.01029742       0.01837864
In       1.36292510       5.40361831       6.91808552        3       0.04053934      -0.01029742      -0.01837864
In       4.09986856       2.61810702       6.91808552        4      -0.04053934      -0.01029742      -0.01837864
In       4.09432193       5.40361831       4.79546268        5       0.04053934      -0.01029742       0.01837864
In       4.09432193       2.95291556       3.01356945        6       0.04053934       0.01029742      -0.01837864
In       4.09986856       0.16740427       0.89094662        7      -0.04053934       0.01029742       0.01837864
O        2.12371559       3.36219266       6.63438087        8      -0.03765596       0.00388177       0.04156083
O        0.60768124       0.57668137       5.07916733        9       0.03765596       0.00388177      -0.04156083
O        0.60768124       2.20882992       2.72986480       10       0.03765596      -0.00388177       0.04156083
O        2.12371559       4.99434121       1.17465126       11      -0.03765596      -0.00388177      -0.04156083
O        3.33907807       2.20882992       1.17465126       12       0.03765596      -0.00388177      -0.04156083
O        4.85511242       4.99434121       2.72986480       13      -0.03765596      -0.00388177       0.04156083
O        4.85511242       3.36219266       5.07916733       14      -0.03765596       0.00388177      -0.04156083
O        3.33907807       0.57668137       6.63438087       15       0.03765596       0.00388177       0.04156083
O        5.23192758       4.17826693       0.00000000       16       0.04563331       0.00000000       0.00000000
O        2.96226292       1.39275564       3.90451607       17      -0.04563331      -0.00000000       0.00000000
O        0.23086609       1.39275564       0.00000000       18      -0.04563331      -0.00000000      -0.00000000
O        2.50053075       4.17826693       3.90451607       19       0.04563331       0.00000000      -0.00000000
20
Lattice="5.469089797211367 -6.222308983040062e-60 -1.4662859693424123e-43 5.477592789380926e-60 5.572925190161928 -3.4059057754793607e-17 2.0828258442784572e-43 4.5458163253283705e-17 7.797379251806098" Properties=species:S:1:pos:R:3:spacegroup_kinds:I:1:forces:R:3 spacegroup="P 1" unit_cell=conventional occupancy="_JSON {\"0\": {\"In\": 1}, \"1\": {\"In\": 1}, \"2\": {\"In\": 1}, \"3\": {\"In\": 1}, \"4\": {\"In\": 1}, \"5\": {\"In\": 1}, \"6\": {\"In\": 1}, \"7\": {\"In\": 1}, \"8\": {\"O\": 1}, \"9\": {\"O\": 1}, \"10\": {\"O\": 1}, \"11\": {\"O\": 1}, \"12\": {\"O\": 1}, \"13\": {\"O\": 1}, \"14\": {\"O\": 1}, \"15\": {\"O\": 1}, \"16\": {\"O\": 1}, \"17\": {\"O\": 1}, \"18\": {\"O\": 1}, \"19\": {\"O\": 1}}" n_minim_iter=2 energy=-22574.568640024827 stress="-0.04227249418430495 6.893672575909174e-13 4.351034893693581e-13 6.893672575909174e-13 -0.04260659989151232 -2.971541996117929e-13 4.351034893693581e-13 -2.971541996117929e-13 -0.043192397976918505" free_energy=-22574.568640024827 pbc="T T T"
In       1.36473545       2.95398483       0.88972541        0       0.05142866       0.00713761       0.01482020
In       1.36980945       0.16752224       3.00896421        1      -0.05142866       0.00713761      -0.01482020
In       1.36980945       2.61894036       4.78841504        2      -0.05142866      -0.00713761       0.01482020
In       1.36473545       5.40540295       6.90765384        3       0.05142866      -0.00713761      -0.01482020
In       4.10435435       2.61894036       6.90765384        4      -0.05142866      -0.00713761      -0.01482020
In       4.09928035       5.40540295       4.78841504        5       0.05142866      -0.00713761       0.01482020
In       4.09928035       2.95398483       3.00896421        6       0.05142866       0.00713761      -0.01482020
In       4.10435435       0.16752224       0.88972541        7      -0.05142866       0.00713761       0.01482020
O        2.12594080       3.36336383       6.62472574        8      -0.02428318       0.00282920       0.04721927
O        0.60860410       0.57690124       5.07134314        9       0.02428318       0.00282920      -0.04721927
O        0.60860410       2.20956136       2.72603611       10       0.02428318      -0.00282920       0.04721927
O        2.12594080       4.99602395       1.17265351       11      -0.02428318      -0.00282920      -0.04721927
O        3.34314900       2.20956136       1.17265351       12       0.02428318      -0.00282920      -0.04721927
O        4.86048570       4.99602395       2.72603611       13      -0.02428318      -0.00282920       0.04721927
O        4.86048570       3.36336383       5.07134314       14      -0.02428318       0.00282920      -0.04721927
O        3.34314900       0.57690124       6.62472574       15       0.02428318       0.00282920       0.04721927
O        5.23822723       4.17969389       0.00000000       16       0.04545396       0.00000000      -0.00000000
O        2.96540746       1.39323130       3.89868963       17      -0.04545396      -0.00000000      -0.00000000
O        0.23086256       1.39323130       0.00000000       18      -0.04545396      -0.00000000       0.00000000
O        2.50368234       4.17969389       3.89868963       19       0.04545396       0.00000000       0.00000000
20
Lattice="5.468913307533007 -6.197849749961329e-60 -1.4670061367173396e-43 5.480772961909559e-60 5.575229571372084 -3.498021882846001e-17 2.080933444749482e-43 4.416755442399702e-17 7.794407929408333" Properties=species:S:1:pos:R:3:spacegroup_kinds:I:1:forces:R:3 spacegroup="P 1" unit_cell=conventional occupancy="_JSON {\"0\": {\"In\": 1}, \"1\": {\"In\": 1}, \"2\": {\"In\": 1}, \"3\": {\"In\": 1}, \"4\": {\"In\": 1}, \"5\": {\"In\": 1}, \"6\": {\"In\": 1}, \"7\": {\"In\": 1}, \"8\": {\"O\": 1}, \"9\": {\"O\": 1}, \"10\": {\"O\": 1}, \"11\": {\"O\": 1}, \"12\": {\"O\": 1}, \"13\": {\"O\": 1}, \"14\": {\"O\": 1}, \"15\": {\"O\": 1}, \"16\": {\"O\": 1}, \"17\": {\"O\": 1}, \"18\": {\"O\": 1}, \"19\": {\"O\": 1}}" n_minim_iter=3 energy=-22574.570391126286 stress="-0.042313670908653754 3.8704383903095054e-13 -7.092804028547274e-13 3.8704383903095054e-13 -0.0416521292383058 1.0821983251626262e-13 -7.092804028547274e-13 1.0821983251626262e-13 -0.042248777077481495" free_energy=-22574.570391126286 pbc="T T T"
In       1.36789614       2.95575569       0.89045557        0      -0.01163566      -0.02460961       0.02180620
In       1.36656052       0.16814091       3.00674839        1       0.01163566      -0.02460961      -0.02180620
In       1.36656052       2.61947388       4.78765954        2       0.01163566       0.02460961       0.02180620
In       1.36789614       5.40708867       6.90395236        3      -0.01163566       0.02460961      -0.02180620
In       4.10101717       2.61947388       6.90395236        4       0.01163566       0.02460961      -0.02180620
In       4.10235279       5.40708867       4.78765954        5      -0.01163566       0.02460961       0.02180620
In       4.10235279       2.95575569       3.00674839        6      -0.01163566      -0.02460961      -0.02180620
In       4.10101717       0.16814091       0.89045557        7       0.01163566      -0.02460961       0.02180620
O        2.12394249       3.36496784       6.62522669        8      -0.02555772      -0.01269696      -0.00231402
O        0.61051416       0.57735306       5.06638520        9       0.02555772      -0.01269696       0.00231402
O        0.61051416       2.21026173       2.72802273       10       0.02555772       0.01269696      -0.00231402
O        2.12394249       4.99787651       1.16918124       11      -0.02555772       0.01269696       0.00231402
O        3.34497081       2.21026173       1.16918124       12       0.02555772       0.01269696       0.00231402
O        4.85839915       4.99787651       2.72802273       13      -0.02555772       0.01269696      -0.00231402
O        4.85839915       3.36496784       5.06638520       14      -0.02555772      -0.01269696       0.00231402
O        3.34497081       0.57735306       6.62522669       15       0.02555772      -0.01269696      -0.00231402
O        5.24111117       4.18142218       0.00000000       16      -0.00311033       0.00000000       0.00000000
O        2.96225880       1.39380739       3.89720396       17       0.00311033       0.00000000      -0.00000000
O        0.22780214       1.39380739       0.00000000       18       0.00311033       0.00000000      -0.00000000
O        2.50665451       4.18142218       3.89720396       19      -0.00311033       0.00000000      -0.00000000
20
Lattice="5.473584003960326 -6.201612834764621e-60 -1.4675920838859079e-43 5.472913042432053e-60 5.567641190531601 -3.499800503256758e-17 2.082942885583847e-43 4.4107438473708077e-17 7.798371110170867" Properties=species:S:1:pos:R:3:spacegroup_kinds:I:1:forces:R:3 spacegroup="P 1" unit_cell=conventional occupancy="_JSON {\"0\": {\"In\": 1}, \"1\": {\"In\": 1}, \"2\": {\"In\": 1}, \"3\": {\"In\": 1}, \"4\": {\"In\": 1}, \"5\": {\"In\": 1}, \"6\": {\"In\": 1}, \"7\": {\"In\": 1}, \"8\": {\"O\": 1}, \"9\": {\"O\": 1}, \"10\": {\"O\": 1}, \"11\": {\"O\": 1}, \"12\": {\"O\": 1}, \"13\": {\"O\": 1}, \"14\": {\"O\": 1}, \"15\": {\"O\": 1}, \"16\": {\"O\": 1}, \"17\": {\"O\": 1}, \"18\": {\"O\": 1}, \"19\": {\"O\": 1}}" n_minim_iter=4 energy=-22574.570588899795 stress="-0.041531641911424284 6.203732045793959e-13 -4.861362778129073e-13 6.203732045793959e-13 -0.04256580255455273 1.4178855421159574e-12 -4.861362778129073e-13 1.4178855421159574e-12 -0.04176030684922302" free_energy=-22574.570588899795 pbc="T T T"
In       1.36930257       2.95145092       0.89135476        0      -0.00947959      -0.03802340       0.02523781
In       1.36748943       0.16763032       3.00783080        1       0.00947959      -0.03802340      -0.02523781
In       1.36748943       2.61619027       4.79054031        2       0.00947959       0.03802340       0.02523781
In       1.36930257       5.40001087       6.90701635        3      -0.00947959       0.03802340      -0.02523781
In       4.10428144       2.61619027       6.90701635        4       0.00947959       0.03802340      -0.02523781
In       4.10609457       5.40001087       4.79054031        5      -0.00947959       0.03802340       0.02523781
In       4.10609457       2.95145092       3.00783080        6      -0.00947959      -0.03802340      -0.02523781
In       4.10428144       0.16763032       0.89135476        7       0.00947959      -0.03802340       0.02523781
O        2.12514397       3.36023353       6.62894515        8      -0.01749339      -0.02115758      -0.00466612
O        0.61164803       0.57641293       5.06861152        9       0.01749339      -0.02115758       0.00466612
O        0.61164803       2.20740766       2.72975959       10       0.01749339       0.02115758      -0.00466612
O        2.12514397       4.99122826       1.16942596       11      -0.01749339       0.02115758       0.00466612
O        3.34844003       2.20740766       1.16942596       12       0.01749339       0.02115758       0.00466612
O        4.86193597       4.99122826       2.72975959       13      -0.01749339       0.02115758      -0.00466612
O        4.86193597       3.36023353       5.06861152       14      -0.01749339      -0.02115758       0.00466612
O        3.34844003       0.57641293       6.62894515       15       0.01749339      -0.02115758      -0.00466612
O        5.24592977       4.17573089       0.00000000       16      -0.00104681       0.00000000       0.00000000
O        2.96444624       1.39191030       3.89918556       17       0.00104681      -0.00000000       0.00000000
O        0.22765424       1.39191030       0.00000000       18       0.00104681      -0.00000000       0.00000000
O        2.50913777       4.17573089       3.89918556       19      -0.00104681      -0.00000000       0.00000000
20
Lattice="5.472772623169467 -6.200714737749348e-60 -1.696565576285462e-43 5.102097161643423e-60 5.56613434235202 -3.5012669722818697e-17 2.905321298659756e-43 4.4095501064112965e-17 7.801638744902834" Properties=species:S:1:pos:R:3:spacegroup_kinds:I:1:forces:R:3 spacegroup="P 1" unit_cell=conventional occupancy="_JSON {\"0\": {\"In\": 1}, \"1\": {\"In\": 1}, \"2\": {\"In\": 1}, \"3\": {\"In\": 1}, \"4\": {\"In\": 1}, \"5\": {\"In\": 1}, \"6\": {\"In\": 1}, \"7\": {\"In\": 1}, \"8\": {\"O\": 1}, \"9\": {\"O\": 1}, \"10\": {\"O\": 1}, \"11\": {\"O\": 1}, \"12\": {\"O\": 1}, \"13\": {\"O\": 1}, \"14\": {\"O\": 1}, \"15\": {\"O\": 1}, \"16\": {\"O\": 1}, \"17\": {\"O\": 1}, \"18\": {\"O\": 1}, \"19\": {\"O\": 1}}" n_minim_iter=5 energy=-22574.57136450222 stress="-0.04172540198495517 4.276348436738455e-13 3.568235451353785e-13 4.276348436738455e-13 -0.04144257938628594 -5.980587394497861e-13 3.568235451353785e-13 -5.980587394497861e-13 -0.04159080597918921" free_energy=-22574.57136450222 pbc="T T T"
In       1.36952559       2.94851145       0.89399319        0      -0.00516578      -0.00203574      -0.01403002
In       1.36686072       0.16544428       3.00682619        1       0.00516578      -0.00203574       0.01403002
In       1.36686072       2.61762289       4.79481256        2       0.00516578       0.00203574      -0.01403002
In       1.36952559       5.40069006       6.90764556        3      -0.00516578       0.00203574       0.01403002
In       4.10324703       2.61762289       6.90764556        4       0.00516578       0.00203574       0.01403002
In       4.10591190       5.40069006       4.79481256        5      -0.00516578       0.00203574      -0.01403002
In       4.10591190       2.94851145       3.00682619        6      -0.00516578      -0.00203574       0.01403002
In       4.10324703       0.16544428       0.89399319        7       0.00516578      -0.00203574      -0.01403002
O        2.12225555       3.35814451       6.63268564        8      -0.00269816      -0.00992262       0.01159129
O        0.61413077       0.57507734       5.06977248        9       0.00269816      -0.00992262      -0.01159129
O        0.61413077       2.20798983       2.73186626       10       0.00269816       0.00992262       0.01159129
O        2.12225555       4.99105701       1.16895311       11      -0.00269816       0.00992262      -0.01159129
O        3.35051708       2.20798983       1.16895311       12       0.00269816       0.00992262      -0.01159129
O        4.85864186       4.99105701       2.73186626       13      -0.00269816       0.00992262       0.01159129
O        4.85864186       3.35814451       5.06977248       14      -0.00269816      -0.00992262      -0.01159129
O        3.35051708       0.57507734       6.63268564       15       0.00269816      -0.00992262       0.01159129
O        5.24619722       4.17460076       0.00000000       16      -0.00142070       0.00000000       0.00000000
O        2.96296171       1.39153359       3.90081937       17       0.00142070      -0.00000000       0.00000000
O        0.22657540       1.39153359       0.00000000       18       0.00142070      -0.00000000       0.00000000
O        2.50981091       4.17460076       3.90081937       19      -0.00142070      -0.00000000       0.00000000
20
Lattice="5.475969270710207 -5.94059520704917e-60 -2.5014510564035298e-43 5.140416266516781e-60 5.562115227695253 -3.361515157633226e-17 3.5626424005359003e-43 4.6029387678155045e-17 7.802718541746761" Properties=species:S:1:pos:R:3:spacegroup_kinds:I:1:forces:R:3 spacegroup="P 1" unit_cell=conventional occupancy="_JSON {\"0\": {\"In\": 1}, \"1\": {\"In\": 1}, \"2\": {\"In\": 1}, \"3\": {\"In\": 1}, \"4\": {\"In\": 1}, \"5\": {\"In\": 1}, \"6\": {\"In\": 1}, \"7\": {\"In\": 1}, \"8\": {\"O\": 1}, \"9\": {\"O\": 1}, \"10\": {\"O\": 1}, \"11\": {\"O\": 1}, \"12\": {\"O\": 1}, \"13\": {\"O\": 1}, \"14\": {\"O\": 1}, \"15\": {\"O\": 1}, \"16\": {\"O\": 1}, \"17\": {\"O\": 1}, \"18\": {\"O\": 1}, \"19\": {\"O\": 1}}" n_minim_iter=6 energy=-22574.571472625958 stress="-0.04120387538349166 5.762454978244336e-13 -5.176527664580668e-13 5.762454978244336e-13 -0.0417250012236395 -1.0548696127519788e-12 -5.176527664580668e-13 -1.0548696127519788e-12 -0.04147744053696348" free_energy=-22574.571472625958 pbc="T T T"
In       1.37035324       2.94574473       0.89407530        0      -0.00001881      -0.00329732      -0.00572213
In       1.36763140       0.16468712       3.00728397        1       0.00001881      -0.00329732       0.00572213
In       1.36763140       2.61637050       4.79543457        2       0.00001881       0.00329732      -0.00572213
In       1.37035324       5.39742811       6.90864324        3      -0.00001881       0.00329732       0.00572213
In       4.10561603       2.61637050       6.90864324        4       0.00001881       0.00329732       0.00572213
In       4.10833787       5.39742811       4.79543457        5      -0.00001881       0.00329732      -0.00572213
In       4.10833787       2.94574473       3.00728397        6      -0.00001881      -0.00329732       0.00572213
In       4.10561603       0.16468712       0.89407530        7       0.00001881      -0.00329732      -0.00572213
O        2.12270960       3.35495707       6.63449974        8       0.00341720      -0.01056917       0.00211456
O        0.61527503       0.57389945       5.06957808        9      -0.00341720      -0.01056917      -0.00211456
O        0.61527503       2.20715816       2.73314047       10      -0.00341720       0.01056917       0.00211456
O        2.12270960       4.98821578       1.16821880       11       0.00341720       0.01056917      -0.00211456
O        3.35325967       2.20715816       1.16821880       12      -0.00341720       0.01056917      -0.00211456
O        4.86069424       4.98821578       2.73314047       13       0.00341720       0.01056917       0.00211456
O        4.86069424       3.35495707       5.06957808       14       0.00341720      -0.01056917      -0.00211456
O        3.35325967       0.57389945       6.63449974       15      -0.00341720      -0.01056917       0.00211456
O        5.24959316       4.17158642       0.00000000       16       0.00261670      -0.00000000       0.00000000
O        2.96436074       1.39052881       3.90135927       17      -0.00261670       0.00000000       0.00000000
O        0.22637611       1.39052881       0.00000000       18      -0.00261670       0.00000000      -0.00000000
O        2.51160853       4.17158642       3.90135927       19       0.00261670      -0.00000000      -0.00000000
20
Lattice="5.47432737451004 -5.825301911597076e-60 -2.3860104890236673e-43 5.461119288246353e-60 5.563812317315584 -2.901221977164324e-17 3.5624026560660435e-43 5.2495833549945356e-17 7.802678063412923" Properties=species:S:1:pos:R:3:spacegroup_kinds:I:1:forces:R:3 spacegroup="P 1" unit_cell=conventional occupancy="_JSON {\"0\": {\"In\": 1}, \"1\": {\"In\": 1}, \"2\": {\"In\": 1}, \"3\": {\"In\": 1}, \"4\": {\"In\": 1}, \"5\": {\"In\": 1}, \"6\": {\"In\": 1}, \"7\": {\"In\": 1}, \"8\": {\"O\": 1}, \"9\": {\"O\": 1}, \"10\": {\"O\": 1}, \"11\": {\"O\": 1}, \"12\": {\"O\": 1}, \"13\": {\"O\": 1}, \"14\": {\"O\": 1}, \"15\": {\"O\": 1}, \"16\": {\"O\": 1}, \"17\": {\"O\": 1}, \"18\": {\"O\": 1}, \"19\": {\"O\": 1}}" n_minim_iter=7 energy=-22574.571529235738 stress="-0.041537517657069284 -2.8146442401203416e-13 1.3580483302064233e-12 -2.8146442401203416e-13 -0.041492957566535725 -7.132541674141831e-13 1.3580483302064233e-12 -7.132541674141831e-13 -0.041503487606229184" free_energy=-22574.571529235738 pbc="T T T"
In       1.36971240       2.94648656       0.89357939        0       0.00122953       0.00338256       0.00055606
In       1.36745128       0.16458041       3.00775964        1      -0.00122953       0.00338256      -0.00055606
In       1.36745128       2.61732575       4.79491842        2      -0.00122953      -0.00338256       0.00055606
In       1.36971240       5.39923191       6.90909868        3       0.00122953      -0.00338256      -0.00055606
In       4.10461497       2.61732575       6.90909868        4      -0.00122953      -0.00338256      -0.00055606
In       4.10687609       5.39923191       4.79491842        5       0.00122953      -0.00338256       0.00055606
In       4.10687609       2.94648656       3.00775964        6       0.00122953       0.00338256      -0.00055606
In       4.10461497       0.16458041       0.89357939        7      -0.00122953       0.00338257       0.00055606
O        2.12208648       3.35545072       6.63472565        8      -0.00042540      -0.00493878      -0.00393874
O        0.61507721       0.57354456       5.06929144        9       0.00042540      -0.00493878       0.00393874
O        0.61507721       2.20836159       2.73338662       10       0.00042540       0.00493878      -0.00393874
O        2.12208648       4.99026775       1.16795241       11      -0.00042540       0.00493878       0.00393874
O        3.35224090       2.20836159       1.16795241       12       0.00042540       0.00493878       0.00393874
O        4.85925017       4.99026775       2.73338662       13      -0.00042540       0.00493878      -0.00393874
O        4.85925017       3.35545072       5.06929144       14      -0.00042540      -0.00493878       0.00393874
O        3.35224090       0.57354456       6.63472565       15       0.00042540      -0.00493878      -0.00393874
O        5.24797607       4.17285924       0.00000000       16       0.00431558      -0.00000000       0.00000000
O        2.96351499       1.39095308       3.90133903       17      -0.00431558      -0.00000000       0.00000000
O        0.22635130       1.39095308       0.00000000       18      -0.00431558      -0.00000000      -0.00000000
O        2.51081238       4.17285924       3.90133903       19       0.00431558       0.00000000      -0.00000000
