20
Lattice="5.686802841507594 -3.918591198930333e-60 8.006543438117059e-43 -5.626013145007458e-60 5.921946700208371 6.894325395971392e-17 -1.288933956556664e-42 -1.0658131045464006e-16 9.15490354022969" Properties=species:S:1:pos:R:3:spacegroup_kinds:I:1:forces:R:3 spacegroup="P 1" unit_cell=conventional occupancy="_JSON {\"0\": {\"In\": 1}, \"1\": {\"In\": 1}, \"2\": {\"In\": 1}, \"3\": {\"In\": 1}, \"4\": {\"In\": 1}, \"5\": {\"In\": 1}, \"6\": {\"In\": 1}, \"7\": {\"In\": 1}, \"8\": {\"O\": 1}, \"9\": {\"O\": 1}, \"10\": {\"O\": 1}, \"11\": {\"O\": 1}, \"12\": {\"O\": 1}, \"13\": {\"O\": 1}, \"14\": {\"O\": 1}, \"15\": {\"O\": 1}, \"16\": {\"O\": 1}, \"17\": {\"O\": 1}, \"18\": {\"O\": 1}, \"19\": {\"O\": 1}}" n_minim_iter=1 energy=-22572.426765756107 stress="0.09555114620819917 -1.418328281933013e-13 1.1989829937135559e-13 -1.418328281933013e-13 0.09721311684807885 -3.4385497881814236e-13 1.1989829937135559e-13 -3.4385497881814236e-13 0.0973578878780595" free_energy=-22572.426765756107 pbc="T T T"
In       1.35865684       3.14298705       1.13667897        0      -0.01504904       0.04114143       0.05636224
In       1.48474458       0.18201370       3.44077280        1       0.01504904       0.04114143      -0.05636224
In       1.48474458       2.77895965       5.71413074        2       0.01504904      -0.04114143       0.05636224
In       1.35865684       5.73993300       8.01822457        3      -0.01504904      -0.04114143      -0.05636224
In       4.32814601       2.77895965       8.01822457        4       0.01504904      -0.04114143      -0.05636224
In       4.20205826       5.73993300       5.71413074        5      -0.01504904      -0.04114143       0.05636224
In       4.20205826       3.14298705       3.44077280        6      -0.01504904       0.04114143      -0.05636224
In       4.32814601       0.18201370       1.13667897        7       0.01504904       0.04114143       0.05636224
O        2.26060339       3.58053671       7.64476461        8       0.03183151      -0.01817158      -0.04785516
O        0.58279803       0.61956336       6.08759070        9      -0.03183151      -0.01817158       0.04785516
O        0.58279803       2.34140999       3.06731284       10      -0.03183151       0.01817158      -0.04785516
O        2.26060339       5.30238334       1.51013893       11       0.03183151       0.01817158       0.04785516
O        3.42619945       2.34140999       1.51013893       12      -0.03183151       0.01817158       0.04785516
O        5.10400481       5.30238334       3.06731284       13       0.03183151       0.01817158      -0.04785516
O        5.10400481       3.58053671       6.08759070       14       0.03183151      -0.01817158       0.04785516
O        3.42619945       0.61956336       7.64476461       15      -0.03183151      -0.01817158      -0.04785516
O        5.43113456       4.44146003       0.00000000       16      -0.04212961      -0.00000000      -0.00000000
O        3.09906970       1.48048668       4.57745177       17       0.04212961      -0.00000000       0.00000000
O        0.25566828       1.48048668       0.00000000       18       0.04212961      -0.00000000       0.00000000
O        2.58773314       4.44146003       4.57745177       19      -0.04212961       0.00000000      -0.00000000
20
Lattice="5.699005936735936 -4.062797593259233e-60 8.079082322041756e-43 -5.547540764429272e-60 5.916396973034691 6.762787305085444e-17 -1.2824498162559566e-42 -1.0838645524253692e-16 9.14386958287119" Properties=species:S:1:pos:R:3:spacegroup_kinds:I:1:forces:R:3 spacegroup="P 1" unit_cell=conventional occupancy="_JSON {\"0\": {\"In\": 1}, \"1\": {\"In\": 1}, \"2\": {\"In\": 1}, \"3\": {\"In\": 1}, \"4\": {\"In\": 1}, \"5\": {\"In\": 1}, \"6\": {\"In\": 1}, \"7\": {\"In\": 1}, \"8\": {\"O\": 1}, \"9\": {\"O\": 1}, \"10\": {\"O\": 1}, \"11\": {\"O\": 1}, \"12\": {\"O\": 1}, \"13\": {\"O\": 1}, \"14\": {\"O\": 1}, \"15\": {\"O\": 1}, \"16\": {\"O\": 1}, \"17\": {\"O\": 1}, \"18\": {\"O\": 1}, \"19\": {\"O\": 1}}" n_minim_iter=2 energy=-22572.427576647497 stress="0.09705116942762387 -4.1395649377648637e-13 -1.4164012680242444e-14 -4.1395649377648637e-13 0.09646944750187195 3.945265284527527e-13 -1.4164012680242444e-14 3.945265284527527e-13 0.09642547586885507" free_energy=-22572.427576647497 pbc="T T T"
In       1.36148164       3.14028877       1.13564749        0      -0.00174343       0.03569728       0.05064555
In       1.48802133       0.18209029       3.43628730        1       0.00174343       0.03569728      -0.05064555
In       1.48802133       2.77610820       5.70758228        2       0.00174343      -0.03569728       0.05064555
In       1.36148164       5.73430668       8.00822209        3      -0.00174343      -0.03569728      -0.05064555
In       4.33752430       2.77610820       8.00822209        4       0.00174343      -0.03569728      -0.05064555
In       4.21098461       5.73430668       5.70758228        5      -0.00174343      -0.03569728       0.05064555
In       4.21098461       3.14028877       3.43628730        6      -0.00174343       0.03569728      -0.05064555
In       4.33752430       0.18209029       1.13564749        7       0.00174343       0.03569728       0.05064555
O        2.26564615       3.57707206       7.63526334        8       0.03795308      -0.01459320      -0.03614231
O        0.58385681       0.61887358       6.08054103        9      -0.03795308      -0.01459320       0.03614231
O        0.58385681       2.33932491       3.06332855       10      -0.03795308       0.01459320      -0.03614231
O        2.26564615       5.29752340       1.50860624       11       0.03795308       0.01459320       0.03614231
O        3.43335978       2.33932491       1.50860624       12      -0.03795308       0.01459320       0.03614231
O        5.11514912       5.29752340       3.06332855       13       0.03795308       0.01459320      -0.03614231
O        5.11514912       3.57707206       6.08054103       14       0.03795308      -0.01459320       0.03614231
O        3.43335978       0.61887358       7.63526334       15      -0.03795308      -0.01459320      -0.03614231
O        5.44253515       4.43729773       0.00000000       16      -0.03919406       0.00000000       0.00000000
O        3.10597375       1.47909924       4.57193479       17       0.03919406      -0.00000000       0.00000000
O        0.25647078       1.47909924       0.00000000       18       0.03919406      -0.00000000       0.00000000
O        2.59303219       4.43729773       4.57193479       19      -0.03919406      -0.00000000       0.00000000
20
Lattice="5.693682517738351 -4.07197791120885e-60 8.066103991586078e-43 -5.568715104475322e-60 5.919234908727004 6.765864901863336e-17 -1.2838005895195646e-42 -1.08438445295148e-16 9.148030758181932" Properties=species:S:1:pos:R:3:spacegroup_kinds:I:1:forces:R:3 spacegroup="P 1" unit_cell=conventional occupancy="_JSON {\"0\": {\"In\": 1}, \"1\": {\"In\": 1}, \"2\": {\"In\": 1}, \"3\": {\"In\": 1}, \"4\": {\"In\": 1}, \"5\": {\"In\": 1}, \"6\": {\"In\": 1}, \"7\": {\"In\": 1}, \"8\": {\"O\": 1}, \"9\": {\"O\": 1}, \"10\": {\"O\": 1}, \"11\": {\"O\": 1}, \"12\": {\"O\": 1}, \"13\": {\"O\": 1}, \"14\": {\"O\": 1}, \"15\": {\"O\": 1}, \"16\": {\"O\": 1}, \"17\": {\"O\": 1}, \"18\": {\"O\": 1}, \"19\": {\"O\": 1}}" n_minim_iter=3 energy=-22572.431292463767 stress="0.09586095594099417 -1.1396042946797134e-12 -1.2781074986346662e-13 -1.1396042946797134e-12 0.09632742496392491 7.811848597728881e-13 -1.2781074986346662e-13 7.811848597728881e-13 0.09527594038070415" free_energy=-22572.431292463767 pbc="T T T"
In       1.35974917       3.14526060       1.14103392        0      -0.01416322       0.03456375      -0.00446168
In       1.48709209       0.18564315       3.43298146        1       0.01416322       0.03456375       0.00446168
In       1.48709209       2.77397431       5.71504930        2       0.01416322      -0.03456375      -0.00446168
In       1.35974917       5.73359176       8.00699684        3      -0.01416322      -0.03456375       0.00446168
In       4.33393335       2.77397431       8.00699684        4       0.01416322      -0.03456375       0.00446168
In       4.20659042       5.73359176       5.71504930        5      -0.01416322      -0.03456375      -0.00446168
In       4.20659042       3.14526060       3.43298146        6      -0.01416322       0.03456375       0.00446168
In       4.33393335       0.18564315       1.14103392        7       0.01416322       0.03456375      -0.00446168
O        2.26696326       3.57734105       7.63509297        8       0.02563036      -0.00083019       0.00579676
O        0.57987800       0.61772360       6.08695317        9      -0.02563036      -0.00083019      -0.00579676
O        0.57987800       2.34189386       3.06107759       10      -0.02563036       0.00083019       0.00579676
O        2.26696326       5.30151131       1.51293779       11       0.02563036       0.00083019      -0.00579676
O        3.42671926       2.34189386       1.51293779       12      -0.02563036       0.00083019      -0.00579676
O        5.11380452       5.30151131       3.06107759       13       0.02563036       0.00083019       0.00579676
O        5.11380452       3.57734105       6.08695317       14       0.02563036      -0.00083019      -0.00579676
O        3.42671926       0.61772360       7.63509297       15      -0.02563036      -0.00083019       0.00579676
O        5.43369915       4.43942618       0.00000000       16      -0.00145111      -0.00000000       0.00000000
O        3.10682462       1.47980873       4.57401538       17       0.00145111      -0.00000000      -0.00000000
O        0.25998337       1.47980873       0.00000000       18       0.00145111       0.00000000      -0.00000000
O        2.58685789       4.43942618       4.57401538       19      -0.00145111       0.00000000       0.00000000
20
Lattice="5.693186363669119 -3.9822849448040575e-60 8.089037709065806e-43 -5.484825687175089e-60 5.913593024141344 6.834231594495193e-17 -1.2734398523699058e-42 -1.0738889253886328e-16 9.15755646970697" Properties=species:S:1:pos:R:3:spacegroup_kinds:I:1:forces:R:3 spacegroup="P 1" unit_cell=conventional occupancy="_JSON {\"0\": {\"In\": 1}, \"1\": {\"In\": 1}, \"2\": {\"In\": 1}, \"3\": {\"In\": 1}, \"4\": {\"In\": 1}, \"5\": {\"In\": 1}, \"6\": {\"In\": 1}, \"7\": {\"In\": 1}, \"8\": {\"O\": 1}, \"9\": {\"O\": 1}, \"10\": {\"O\": 1}, \"11\": {\"O\": 1}, \"12\": {\"O\": 1}, \"13\": {\"O\": 1}, \"14\": {\"O\": 1}, \"15\": {\"O\": 1}, \"16\": {\"O\": 1}, \"17\": {\"O\": 1}, \"18\": {\"O\": 1}, \"19\": {\"O\": 1}}" n_minim_iter=4 energy=-22572.431632827094 stress="0.09568472027646464 4.839620614133994e-13 3.6433153171000885e-13 4.839620614133994e-13 0.095179051536831 2.249548168762484e-13 3.6433153171000885e-13 2.249548168762484e-13 0.09598842696243887" free_energy=-22572.431632827094 pbc="T T T"
In       1.35945700       3.14308860       1.14305427        0      -0.01785029       0.03032624      -0.00563034
In       1.48713618       0.18629209       3.43572397        1       0.01785029       0.03032624       0.00563034
In       1.48713618       2.77050443       5.72183250        2       0.01785029      -0.03032624      -0.00563034
In       1.35945700       5.72730094       8.01450220        3      -0.01785029      -0.03032624       0.00563034
In       4.33372936       2.77050443       8.01450220        4       0.01785029      -0.03032624       0.00563034
In       4.20605018       5.72730094       5.72183250        5      -0.01785029      -0.03032624      -0.00563034
In       4.20605018       3.14308860       3.43572397        6      -0.01785029       0.03032624       0.00563034
In       4.33372936       0.18629209       1.14305427        7       0.01785029       0.03032624      -0.00563034
O        2.26752794       3.57367058       7.64243327        8       0.01887615      -0.00043530       0.00965556
O        0.57906524       0.61687407       6.09390144        9      -0.01887615      -0.00043530      -0.00965556
O        0.57906524       2.33992245       3.06365503       10      -0.01887615       0.00043530       0.00965556
O        2.26752794       5.29671896       1.51512320       11       0.01887615       0.00043530      -0.00965556
O        3.42565842       2.33992245       1.51512320       12      -0.01887615       0.00043530      -0.00965556
O        5.11412113       5.29671896       3.06365503       13       0.01887615       0.00043530       0.00965556
O        5.11412113       3.57367058       6.09390144       14       0.01887615      -0.00043530      -0.00965556
O        3.42565842       0.61687407       7.64243327       15      -0.01887615      -0.00043530       0.00965556
O        5.43255524       4.43519477       0.00000000       16       0.00279096       0.00000000      -0.00000000
O        3.10722430       1.47839826       4.57877823       17      -0.00279096      -0.00000000      -0.00000000
O        0.26063112       1.47839826       0.00000000       18      -0.00279096       0.00000000      -0.00000000
O        2.58596206       4.43519477       4.57877823       19       0.00279096      -0.00000000       0.00000000
20
Lattice="5.691478744766297 -3.4617539842430753e-60 8.480643797334455e-43 -5.622583622288627e-60 5.9163904983840885 7.138737135198473e-17 -1.3044122329208754e-42 -1.0271339659546328e-16 9.155972709817654" Properties=species:S:1:pos:R:3:spacegroup_kinds:I:1:forces:R:3 spacegroup="P 1" unit_cell=conventional occupancy="_JSON {\"0\": {\"In\": 1}, \"1\": {\"In\": 1}, \"2\": {\"In\": 1}, \"3\": {\"In\": 1}, \"4\": {\"In\": 1}, \"5\": {\"In\": 1}, \"6\": {\"In\": 1}, \"7\": {\"In\": 1}, \"8\": {\"O\": 1}, \"9\": {\"O\": 1}, \"10\": {\"O\": 1}, \"11\": {\"O\": 1}, \"12\": {\"O\": 1}, \"13\": {\"O\": 1}, \"14\": {\"O\": 1}, \"15\": {\"O\": 1}, \"16\": {\"O\": 1}, \"17\": {\"O\": 1}, \"18\": {\"O\": 1}, \"19\": {\"O\": 1}}" n_minim_iter=5 energy=-22572.432070039933 stress="0.09529149082533737 4.557485832084612e-13 -4.21741600559019e-13 4.557485832084612e-13 0.09534408236718164 6.196279062549955e-13 -4.21741600559019e-13 6.196279062549955e-13 0.09535113816352418" free_energy=-22572.432070039933 pbc="T T T"
In       1.35851011       3.14639029       1.14422786        0      -0.01913821       0.02682410      -0.02055383
In       1.48722926       0.18819504       3.43375850        1       0.01913821       0.02682410       0.02055383
In       1.48722926       2.77000021       5.72221421        2       0.01913821      -0.02682410      -0.02055383
In       1.35851011       5.72819545       8.01174485        3      -0.01913821      -0.02682410       0.02055383
In       4.33296863       2.77000021       8.01174485        4       0.01913821      -0.02682410       0.02055383
In       4.20424948       5.72819545       5.72221421        5      -0.01913821      -0.02682410      -0.02055383
In       4.20424948       3.14639029       3.43375850        6      -0.01913821       0.02682410       0.02055383
In       4.33296863       0.18819504       1.14422786        7       0.01913821       0.02682410      -0.02055383
O        2.26839913       3.57490265       7.64017975        8       0.01392878       0.00255226       0.02028816
O        0.57734025       0.61670740       6.09377932        9      -0.01392878       0.00255226      -0.02028816
O        0.57734025       2.34148785       3.06219339       10      -0.01392878      -0.00255226       0.02028816
O        2.26839913       5.29968310       1.51579296       11       0.01392878      -0.00255226      -0.02028816
O        3.42307962       2.34148785       1.51579296       12      -0.01392878      -0.00255226      -0.02028816
O        5.11413850       5.29968310       3.06219339       13       0.01392878      -0.00255226       0.02028816
O        5.11413850       3.57490265       6.09377932       14       0.01392878       0.00255226      -0.02028816
O        3.42307962       0.61670740       7.64017975       15      -0.01392878       0.00255226       0.02028816
O        5.42980470       4.43729287       0.00000000       16       0.01702688       0.00000000      -0.00000000
O        3.10741341       1.47909762       4.57798635       17      -0.01702688       0.00000000       0.00000000
O        0.26167404       1.47909762       0.00000000       18      -0.01702688       0.00000000      -0.00000000
O        2.58406533       4.43729287       4.57798635       19       0.01702688       0.00000000       0.00000000
20
Lattice="5.688967045473696 -3.4713221805851416e-60 8.677616187842333e-43 -6.605413723825546e-60 5.921283429830894 7.135987359348239e-17 -1.4293162840371747e-42 -1.027983419026311e-16 9.15244591338769" Properties=species:S:1:pos:R:3:spacegroup_kinds:I:1:forces:R:3 spacegroup="P 1" unit_cell=conventional occupancy="_JSON {\"0\": {\"In\": 1}, \"1\": {\"In\": 1}, \"2\": {\"In\": 1}, \"3\": {\"In\": 1}, \"4\": {\"In\": 1}, \"5\": {\"In\": 1}, \"6\": {\"In\": 1}, \"7\": {\"In\": 1}, \"8\": {\"O\": 1}, \"9\": {\"O\": 1}, \"10\": {\"O\": 1}, \"11\": {\"O\": 1}, \"12\": {\"O\": 1}, \"13\": {\"O\": 1}, \"14\": {\"O\": 1}, \"15\": {\"O\": 1}, \"16\": {\"O\": 1}, \"17\": {\"O\": 1}, \"18\": {\"O\": 1}, \"19\": {\"O\": 1}}" n_minim_iter=6 energy=-22572.43290949897 stress="0.09479062913984 -2.217561805430057e-13 5.365714717291396e-13 -2.217561805430057e-13 0.09529086829585541 -9.45775300368363e-14 5.365714717291396e-13 -9.45775300368363e-14 0.09444032725855847" free_energy=-22572.43290949897 pbc="T T T"
In       1.35551873       3.15431219       1.14475161        0      -0.01317731       0.00530494      -0.01712696
In       1.48896479       0.19367047       3.43147134        1       0.01317731       0.00530494       0.01712696
In       1.48896479       2.76697124       5.72097457        2       0.01317731      -0.00530494      -0.01712696
In       1.35551873       5.72761296       8.00769430        3      -0.01317731      -0.00530494       0.01712696
In       4.33344831       2.76697124       8.00769430        4       0.01317731      -0.00530494       0.01712696
In       4.20000226       5.72761296       5.72097457        5      -0.01317731      -0.00530494      -0.01712696
In       4.20000226       3.15431219       3.43147134        6      -0.01317731       0.00530494       0.01712696
In       4.33344831       0.19367047       1.14475161        7       0.01317731       0.00530494      -0.01712696
O        2.27129171       3.57722090       7.63706273        8      -0.00090134      -0.00202347       0.01622763
O        0.57319181       0.61657918       6.09160614        9       0.00090134      -0.00202347      -0.01622763
O        0.57319181       2.34406253       3.06083977       10       0.00090134       0.00202347       0.01622763
O        2.27129171       5.30470425       1.51538318       11      -0.00090134       0.00202347      -0.01622763
O        3.41767534       2.34406253       1.51538318       12       0.00090134       0.00202347      -0.01622763
O        5.11577523       5.30470425       3.06083977       13      -0.00090134       0.00202347       0.01622763
O        5.11577523       3.57722090       6.09160614       14      -0.00090134      -0.00202347      -0.01622763
O        3.41767534       0.61657918       7.63706273       15       0.00090134      -0.00202347       0.01622763
O        5.42660896       4.44096257       0.00000000       16       0.03976251      -0.00000000      -0.00000000
O        3.10684161       1.48032086       4.57622296       17      -0.03976251       0.00000000      -0.00000000
O        0.26235809       1.48032086       0.00000000       18      -0.03976251       0.00000000       0.00000000
O        2.58212544       4.44096257       4.57622296       19       0.03976251      -0.00000000       0.00000000
20
Lattice="5.68907295375843 -3.4047107456547706e-60 8.478871901258556e-43 -6.117706233896838e-60 5.919899331040478 7.182976417944974e-17 -1.3670119583930586e-42 -1.0207163425982641e-16 9.15441537336677" Properties=species:S:1:pos:R:3:spacegroup_kinds:I:1:forces:R:3 spacegroup="P 1" unit_cell=conventional occupancy="_JSON {\"0\": {\"In\": 1}, \"1\": {\"In\": 1}, \"2\": {\"In\": 1}, \"3\": {\"In\": 1}, \"4\": {\"In\": 1}, \"5\": {\"In\": 1}, \"6\": {\"In\": 1}, \"7\": {\"In\": 1}, \"8\": {\"O\": 1}, \"9\": {\"O\": 1}, \"10\": {\"O\": 1}, \"11\": {\"O\": 1}, \"12\": {\"O\": 1}, \"13\": {\"O\": 1}, \"14\": {\"O\": 1}, \"15\": {\"O\": 1}, \"16\": {\"O\": 1}, \"17\": {\"O\": 1}, \"18\": {\"O\": 1}, \"19\": {\"O\": 1}}" n_minim_iter=7 energy=-22572.433373390504 stress="0.09501018173235933 7.938338635711609e-14 -6.691813144830444e-13 7.938338635711609e-14 0.09491481913284917 1.7758682973567117e-13 -6.691813144830444e-13 1.7758682973567117e-13 0.09502013474500158" free_energy=-22572.433373390504 pbc="T T T"
In       1.35459334       3.15419574       1.14333276        0      -0.00660575      -0.00355878       0.01140226
In       1.48994313       0.19424608       3.43387492        1       0.00660575      -0.00355878      -0.01140226
In       1.48994313       2.76570359       5.72054045        2       0.00660575       0.00355878       0.01140226
In       1.35459334       5.72565325       8.01108261        3      -0.00660575       0.00355878      -0.01140226
In       4.33447961       2.76570359       8.01108261        4       0.00660575       0.00355878      -0.01140226
In       4.19912982       5.72565325       5.72054045        5      -0.00660575       0.00355878       0.01140226
In       4.19912982       3.15419574       3.43387492        6      -0.00660575      -0.00355878      -0.01140226
In       4.33447961       0.19424608       1.14333276        7       0.00660575      -0.00355878       0.01140226
O        2.27136077       3.57658929       7.64024459        8      -0.00231249      -0.01097902      -0.00584299
O        0.57317570       0.61663963       6.09137847        9       0.00231249      -0.01097902       0.00584299
O        0.57317570       2.34331004       3.06303690       10       0.00231249       0.01097902      -0.00584299
O        2.27136077       5.30325970       1.51417078       11      -0.00231249       0.01097902       0.00584299
O        3.41771218       2.34331004       1.51417078       12       0.00231249       0.01097902       0.00584299
O        5.11589725       5.30325970       3.06303690       13      -0.00231249       0.01097902      -0.00584299
O        5.11589725       3.57658929       6.09137847       14      -0.00231249      -0.01097902       0.00584299
O        3.41771218       0.61663963       7.64024459       15       0.00231249      -0.01097902      -0.00584299
O        5.42871049       4.43992450       0.00000000       16       0.02713394       0.00000000      -0.00000000
O        3.10489894       1.47997483       4.57720769       17      -0.02713394       0.00000000       0.00000000
O        0.26036246       1.47997483       0.00000000       18      -0.02713394       0.00000000      -0.00000000
O        2.58417402       4.43992450       4.57720769       19       0.02713394       0.00000000      -0.00000000
20
Lattice="5.683969611510089 -3.4947033637792337e-60 8.462701303187239e-43 -6.148046246935152e-60 5.922626068992115 7.130016650557626e-17 -1.3692925285827098e-42 -1.0298591342537196e-16 9.15841623280039" Properties=species:S:1:pos:R:3:spacegroup_kinds:I:1:forces:R:3 spacegroup="P 1" unit_cell=conventional occupancy="_JSON {\"0\": {\"In\": 1}, \"1\": {\"In\": 1}, \"2\": {\"In\": 1}, \"3\": {\"In\": 1}, \"4\": {\"In\": 1}, \"5\": {\"In\": 1}, \"6\": {\"In\": 1}, \"7\": {\"In\": 1}, \"8\": {\"O\": 1}, \"9\": {\"O\": 1}, \"10\": {\"O\": 1}, \"11\": {\"O\": 1}, \"12\": {\"O\": 1}, \"13\": {\"O\": 1}, \"14\": {\"O\": 1}, \"15\": {\"O\": 1}, \"16\": {\"O\": 1}, \"17\": {\"O\": 1}, \"18\": {\"O\": 1}, \"19\": {\"O\": 1}}" n_minim_iter=8 energy=-22572.433959850154 stress="0.09452931098888163 3.450968790204282e-13 6.606392840472551e-14 3.450968790204282e-13 0.09474467208762051 -5.51389211132166e-13 6.606392840472551e-14 -5.51389211132166e-13 0.09464807550901842" free_energy=-22572.433959850154 pbc="T T T"
In       1.35034507       3.15776521       1.14553423        0       0.00318160      -0.00175147      -0.00411287
In       1.49163974       0.19645217       3.43367389        1      -0.00318160      -0.00175147       0.00411287
In       1.49163974       2.76486086       5.72474234        2      -0.00318160       0.00175147      -0.00411287
In       1.35034507       5.72617390       8.01288201        3       0.00318160       0.00175147       0.00411287
In       4.33362454       2.76486086       8.01288201        4      -0.00318160       0.00175147       0.00411287
In       4.19232987       5.72617390       5.72474234        5       0.00318160       0.00175147      -0.00411287
In       4.19232987       3.15776521       3.43367389        6       0.00318160      -0.00175147       0.00411287
In       4.33362454       0.19645217       1.14553423        7      -0.00318160      -0.00175147      -0.00411287
O        2.27065921       3.57582777       7.64325256        8       0.00742859      -0.01006397      -0.00059701
O        0.57132559       0.61451474       6.09437179        9      -0.00742859      -0.01006397       0.00059701
O        0.57132559       2.34679829       3.06404444       10      -0.00742859       0.01006397      -0.00059701
O        2.27065921       5.30811133       1.51516367       11       0.00742859       0.01006397       0.00059701
O        3.41331040       2.34679829       1.51516367       12      -0.00742859       0.01006397       0.00059701
O        5.11264402       5.30811133       3.06404444       13       0.00742859       0.01006397      -0.00059701
O        5.11264402       3.57582777       6.09437179       14       0.00742859      -0.01006397       0.00059701
O        3.41331040       0.61451474       7.64325256       15      -0.00742859      -0.01006397      -0.00059701
O        5.43034418       4.44196955       0.00000000       16      -0.00281794      -0.00000000       0.00000000
O        3.09561024       1.48065652       4.57920812       17       0.00281794       0.00000000      -0.00000000
O        0.25362543       1.48065652       0.00000000       18       0.00281794      -0.00000000       0.00000000
O        2.58835937       4.44196955       4.57920812       19      -0.00281794      -0.00000000      -0.00000000
20
Lattice="5.685346988170448 -3.477410151932315e-60 8.3795771102619e-43 -6.204532139451872e-60 5.921388865207379 7.139520582898799e-17 -1.3770461971177679e-42 -1.0281379299536658e-16 9.158110521769181" Properties=species:S:1:pos:R:3:spacegroup_kinds:I:1:forces:R:3 spacegroup="P 1" unit_cell=conventional occupancy="_JSON {\"0\": {\"In\": 1}, \"1\": {\"In\": 1}, \"2\": {\"In\": 1}, \"3\": {\"In\": 1}, \"4\": {\"In\": 1}, \"5\": {\"In\": 1}, \"6\": {\"In\": 1}, \"7\": {\"In\": 1}, \"8\": {\"O\": 1}, \"9\": {\"O\": 1}, \"10\": {\"O\": 1}, \"11\": {\"O\": 1}, \"12\": {\"O\": 1}, \"13\": {\"O\": 1}, \"14\": {\"O\": 1}, \"15\": {\"O\": 1}, \"16\": {\"O\": 1}, \"17\": {\"O\": 1}, \"18\": {\"O\": 1}, \"19\": {\"O\": 1}}" n_minim_iter=9 energy=-22572.434002533086 stress="0.09463146594357963 -3.7877985777588817e-13 -3.6643086166718016e-13 -3.7877985777588817e-13 0.09439812761351082 1.9875498077657679e-13 -3.6643086166718016e-13 1.9875498077657679e-13 0.0945143105998795" free_energy=-22572.434002533086 pbc="T T T"
In       1.35034794       3.15785763       1.14580097        0       0.00384361      -0.00458655      -0.00532460
In       1.49232555       0.19716320       3.43325429        1      -0.00384361      -0.00458655       0.00532460
In       1.49232555       2.76353123       5.72485623        2      -0.00384361       0.00458655      -0.00532460
In       1.35034794       5.72422567       8.01230955        3       0.00384361       0.00458655       0.00532460
In       4.33499905       2.76353123       8.01230955        4      -0.00384361       0.00458655       0.00532460
In       4.19302144       5.72422567       5.72485623        5       0.00384361       0.00458655      -0.00532460
In       4.19302144       3.15785763       3.43325429        6       0.00384361      -0.00458655       0.00532460
In       4.33499905       0.19716320       1.14580097        7      -0.00384361      -0.00458655      -0.00532460
O        2.27207432       3.57449113       7.64277804        8       0.00426237      -0.00852334       0.00180277
O        0.57059917       0.61379669       6.09438774        9      -0.00426237      -0.00852334      -0.00180277
O        0.57059917       2.34689774       3.06372278       10      -0.00426237       0.00852334       0.00180277
O        2.27207432       5.30759217       1.51533248       11       0.00426237       0.00852334      -0.00180277
O        3.41327266       2.34689774       1.51533248       12      -0.00426237       0.00852334      -0.00180277
O        5.11474782       5.30759217       3.06372278       13       0.00426237       0.00852334       0.00180277
O        5.11474782       3.57449113       6.09438774       14       0.00426237      -0.00852334      -0.00180277
O        3.41327266       0.61379669       7.64277804       15      -0.00426237      -0.00852334       0.00180277
O        5.43170502       4.44104165       0.00000000       16       0.00001060      -0.00000000      -0.00000000
O        3.09631546       1.48034722       4.57905526       17      -0.00001060      -0.00000000       0.00000000
O        0.25364197       1.48034722       0.00000000       18      -0.00001060      -0.00000000      -0.00000000
O        2.58903153       4.44104165       4.57905526       19       0.00001060       0.00000000       0.00000000
