40
Lattice="5.540017546010225 1.369129798573593e-43 0.0 -1.414116109358603e-43 5.722049192198099 0.0 0.0 0.0 16.02458958732541" Properties=species:S:1:pos:R:3:spacegroup_kinds:I:1:forces:R:3 spacegroup="P 1" unit_cell=conventional occupancy="_JSON {\"0\": {\"In\": 1}, \"1\": {\"In\": 1}, \"2\": {\"In\": 1}, \"3\": {\"In\": 1}, \"4\": {\"In\": 1}, \"5\": {\"In\": 1}, \"6\": {\"In\": 1}, \"7\": {\"In\": 1}, \"8\": {\"In\": 1}, \"9\": {\"In\": 1}, \"10\": {\"In\": 1}, \"11\": {\"In\": 1}, \"12\": {\"In\": 1}, \"13\": {\"In\": 1}, \"14\": {\"In\": 1}, \"15\": {\"In\": 1}, \"16\": {\"O\": 1}, \"17\": {\"O\": 1}, \"18\": {\"O\": 1}, \"19\": {\"O\": 1}, \"20\": {\"O\": 1}, \"21\": {\"O\": 1}, \"22\": {\"O\": 1}, \"23\": {\"O\": 1}, \"24\": {\"O\": 1}, \"25\": {\"O\": 1}, \"26\": {\"O\": 1}, \"27\": {\"O\": 1}, \"28\": {\"O\": 1}, \"29\": {\"O\": 1}, \"30\": {\"O\": 1}, \"31\": {\"O\": 1}, \"32\": {\"O\": 1}, \"33\": {\"O\": 1}, \"34\": {\"O\": 1}, \"35\": {\"O\": 1}, \"36\": {\"O\": 1}, \"37\": {\"O\": 1}, \"38\": {\"O\": 1}, \"39\": {\"O\": 1}}" n_minim_iter=1 energy=-45150.200341365366 stress="-0.015343437750065872 -1.2818442743376652e-13 2.1439057431930888e-13 -1.2818442743376652e-13 -0.01603714106989323 6.812697794607242e-13 2.1439057431930888e-13 6.812697794607242e-13 -0.01417051260361997" free_energy=-45150.200341365366 pbc="T T T"
In       2.75947860       4.58277566       9.15008437        0      -0.00044309       0.03189271       0.01370849
In      -0.01053017       4.00029813       6.87450522        1      -0.00044309      -0.03189271      -0.01370849
In       2.78053895       1.72175106      14.88680002        2       0.00044309       0.03189271      -0.01370849
In       5.55054772       1.13927353       1.13778957        3       0.00044309      -0.03189271       0.01370849
In       2.78053895       1.13927353       6.87450522        4       0.00044309      -0.03189271      -0.01370849
In       5.55054772       1.72175106       9.15008437        5       0.00044309       0.03189271       0.01370849
In       2.75947860       4.00029813       1.13778957        6      -0.00044309      -0.03189271       0.01370849
In      -0.01053017       4.58277566      14.88680002        7      -0.00044309       0.03189271      -0.01370849
In       2.74879742       4.28587788      13.10950456        8       0.02194907      -0.02048331      -0.00615318
In       5.51880620       4.29719591       2.91508503        9       0.02194907       0.02048331       0.00615318
In       2.79122012       1.42485328      10.92737982       10      -0.02194907      -0.02048331       0.00615318
In       0.02121135       1.43617131       5.09720976       11      -0.02194907       0.02048331      -0.00615318
In       2.79122012       1.43617131       2.91508503       12      -0.02194907       0.02048331       0.00615318
In       0.02121135       1.42485328      13.10950456       13      -0.02194907      -0.02048331      -0.00615318
In       2.74879742       4.29719591       5.09720976       14       0.02194907       0.02048331      -0.00615318
In       5.51880620       4.28587788      10.92737982       15       0.02194907      -0.02048331       0.00615318
O        4.75170555       5.05865526      12.79123593       16       0.00539432       0.03824902       0.02560941
O        1.98169677       3.52441853       3.23335366       17       0.00539432      -0.03824902      -0.02560941
O        0.78831200       2.19763066      11.24564846       18      -0.00539432       0.03824902      -0.02560941
O        3.55832077       0.66339393       4.77894113       19      -0.00539432      -0.03824902       0.02560941
O        0.78831200       0.66339393       3.23335366       20      -0.00539432      -0.03824902      -0.02560941
O        3.55832077       2.19763066      12.79123593       21      -0.00539432       0.03824902       0.02560941
O        4.75170555       3.52441853       4.77894113       22       0.00539432      -0.03824902       0.02560941
O        1.98169677       5.05865526      11.24564846       23       0.00539432       0.03824902      -0.02560941
O        3.91394541       3.02901360      10.00826245       24       0.03069303      -0.01699774       0.01027391
O        1.14393663       5.55406019       6.01632714       25       0.03069303       0.01699774      -0.01027391
O        1.62607214       0.16798900      14.02862193       26      -0.03069303      -0.01699774      -0.01027391
O        4.39608091       2.69303559       1.99596765       27      -0.03069303       0.01699774       0.01027391
O        1.62607214       2.69303559       6.01632714       28      -0.03069303       0.01699774      -0.01027391
O        4.39608091       0.16798900      10.00826245       29      -0.03069303      -0.01699774       0.01027391
O        3.91394541       5.55406019       1.99596765       30       0.03069303       0.01699774       0.01027391
O        1.14393663       3.02901360      14.02862193       31       0.03069303      -0.01699774      -0.01027391
O        3.57292585       3.79203407      15.19112265       32      -0.02932426      -0.00415191      -0.03541927
O        0.80291707       4.79103971       0.83346694       33      -0.02932426       0.00415191       0.03541927
O        1.96709170       0.93100948       8.84576173       34       0.02932426      -0.00415191       0.03541927
O        4.73710047       1.93001512       7.17882785       35       0.02932426       0.00415191      -0.03541927
O        1.96709170       1.93001512       0.83346694       36       0.02932426       0.00415191       0.03541927
O        4.73710047       0.93100948      15.19112265       37       0.02932426      -0.00415191      -0.03541927
O        3.57292585       4.79103971       7.17882785       38      -0.02932426       0.00415191      -0.03541927
O        0.80291707       3.79203407       8.84576173       39      -0.02932426      -0.00415191       0.03541927
40
Lattice="5.541260505035965 1.3695250888290802e-43 0.0 -1.4157202085524747e-43 5.728911473081921 0.0 0.0 0.0 16.001804633564586" Properties=species:S:1:pos:R:3:spacegroup_kinds:I:1:forces:R:3 spacegroup="P 1" unit_cell=conventional occupancy="_JSON {\"0\": {\"In\": 1}, \"1\": {\"In\": 1}, \"2\": {\"In\": 1}, \"3\": {\"In\": 1}, \"4\": {\"In\": 1}, \"5\": {\"In\": 1}, \"6\": {\"In\": 1}, \"7\": {\"In\": 1}, \"8\": {\"In\": 1}, \"9\": {\"In\": 1}, \"10\": {\"In\": 1}, \"11\": {\"In\": 1}, \"12\": {\"In\": 1}, \"13\": {\"In\": 1}, \"14\": {\"In\": 1}, \"15\": {\"In\": 1}, \"16\": {\"O\": 1}, \"17\": {\"O\": 1}, \"18\": {\"O\": 1}, \"19\": {\"O\": 1}, \"20\": {\"O\": 1}, \"21\": {\"O\": 1}, \"22\": {\"O\": 1}, \"23\": {\"O\": 1}, \"24\": {\"O\": 1}, \"25\": {\"O\": 1}, \"26\": {\"O\": 1}, \"27\": {\"O\": 1}, \"28\": {\"O\": 1}, \"29\": {\"O\": 1}, \"30\": {\"O\": 1}, \"31\": {\"O\": 1}, \"32\": {\"O\": 1}, \"33\": {\"O\": 1}, \"34\": {\"O\": 1}, \"35\": {\"O\": 1}, \"36\": {\"O\": 1}, \"37\": {\"O\": 1}, \"38\": {\"O\": 1}, \"39\": {\"O\": 1}}" n_minim_iter=2 energy=-45150.20105212887 stress="-0.014882561908347336 3.470562518278428e-13 -1.72961085174603e-13 3.470562518278428e-13 -0.015079238513974769 5.67073194724004e-13 -1.72961085174603e-13 5.67073194724004e-13 -0.015329858810629496" free_energy=-45150.20105212887 pbc="T T T"
In       2.76009649       4.58835992       9.13711194        0      -0.00753243       0.02898563       0.03020938
In      -0.01053376       4.00500729       6.86469269        1      -0.00753243      -0.02898563      -0.03020938
In       2.78116401       1.72390418      14.86559501        2       0.00753243       0.02898563      -0.03020938
In       5.55179427       1.14055156       1.13620962        3       0.00753243      -0.02898563       0.03020938
In       2.78116401       1.14055156       6.86469269        4       0.00753243      -0.02898563      -0.03020938
In       5.55179427       1.72390418       9.13711194        5       0.00753243       0.02898563       0.03020938
In       2.76009649       4.00500729       1.13620962        6      -0.00753243      -0.02898563       0.03020938
In      -0.01053376       4.58835992      14.86559501        7      -0.00753243       0.02898563      -0.03020938
In       2.74947484       4.29096111      13.09084750        8       0.02841414      -0.02468864       0.00290175
In       5.52010509       4.30240610       2.91095713        9       0.02841414       0.02468864      -0.00290175
In       2.79178567       1.42650537      10.91185945       10      -0.02841414      -0.02468864      -0.00290175
In       0.02115541       1.43795036       5.08994518       11      -0.02841414       0.02468864       0.00290175
In       2.79178567       1.43795036       2.91095713       12      -0.02841414       0.02468864      -0.00290175
In       0.02115541       1.42650537      13.09084750       13      -0.02841414      -0.02468864       0.00290175
In       2.74947484       4.30240610       5.08994518       14       0.02841414       0.02468864       0.00290175
In       5.52010509       4.29096111      10.91185945       15       0.02841414      -0.02468864      -0.00290175
O        4.75278655       5.06482782      12.77311909       16      -0.00115895       0.04037962       0.03277950
O        1.98215630       3.52853939       3.22868554       17      -0.00115895      -0.04037962      -0.03277950
O        0.78847395       2.20037208      11.22958786       18       0.00115895       0.04037962      -0.03277950
O        3.55910420       0.66408365       4.77221678       19       0.00115895      -0.04037962       0.03277950
O        0.78847395       0.66408365       3.22868554       20       0.00115895      -0.04037962      -0.03277950
O        3.55910420       2.20037208      12.77311909       21       0.00115895       0.04037962       0.03277950
O        4.75278655       3.52853939       4.77221678       22      -0.00115895      -0.04037962       0.03277950
O        1.98215630       5.06482782      11.22958786       23      -0.00115895       0.04037962      -0.03277950
O        3.91490841       3.03259916       9.99406032       24       0.02445571      -0.01334675       0.00806116
O        1.14427816       5.56076805       6.00774431       25       0.02445571       0.01334675      -0.00806116
O        1.62635209       0.16814342      14.00864663       26      -0.02445571      -0.01334675      -0.00806116
O        4.39698235       2.69631232       1.99315800       27      -0.02445571       0.01334675       0.00806116
O        1.62635209       2.69631232       6.00774431       28      -0.02445571       0.01334675      -0.00806116
O        4.39698235       0.16814342       9.99406032       29      -0.02445571      -0.01334675       0.00806116
O        3.91490841       5.56076805       1.99315800       30       0.02445571       0.01334675       0.00806116
O        1.14427816       3.03259916      14.00864663       31       0.02445571      -0.01334675      -0.00806116
O        3.57364638       3.79657025      15.16942500       32      -0.02036684      -0.00664779      -0.04542256
O        0.80301613       4.79679695       0.83237964       33      -0.02036684       0.00664779       0.04542256
O        1.96761412       0.93211452       8.83328195       34       0.02036684      -0.00664779       0.04542256
O        4.73824438       1.93234122       7.16852268       35       0.02036684       0.00664779      -0.04542256
O        1.96761412       1.93234122       0.83237964       36       0.02036684       0.00664779       0.04542256
O        4.73824438       0.93211452      15.16942500       37       0.02036684      -0.00664779      -0.04542256
O        3.57364638       4.79679695       7.16852268       38      -0.02036684       0.00664779      -0.04542256
O        0.80301613       3.79657025       8.83328195       39      -0.02036684      -0.00664779       0.04542256
40
Lattice="5.534052554666996 1.3676936901985442e-43 0.0 -1.4173371433988513e-43 5.73524293875287 0.0 0.0 0.0 16.004958217244422" Properties=species:S:1:pos:R:3:spacegroup_kinds:I:1:forces:R:3 spacegroup="P 1" unit_cell=conventional occupancy="_JSON {\"0\": {\"In\": 1}, \"1\": {\"In\": 1}, \"2\": {\"In\": 1}, \"3\": {\"In\": 1}, \"4\": {\"In\": 1}, \"5\": {\"In\": 1}, \"6\": {\"In\": 1}, \"7\": {\"In\": 1}, \"8\": {\"In\": 1}, \"9\": {\"In\": 1}, \"10\": {\"In\": 1}, \"11\": {\"In\": 1}, \"12\": {\"In\": 1}, \"13\": {\"In\": 1}, \"14\": {\"In\": 1}, \"15\": {\"In\": 1}, \"16\": {\"O\": 1}, \"17\": {\"O\": 1}, \"18\": {\"O\": 1}, \"19\": {\"O\": 1}, \"20\": {\"O\": 1}, \"21\": {\"O\": 1}, \"22\": {\"O\": 1}, \"23\": {\"O\": 1}, \"24\": {\"O\": 1}, \"25\": {\"O\": 1}, \"26\": {\"O\": 1}, \"27\": {\"O\": 1}, \"28\": {\"O\": 1}, \"29\": {\"O\": 1}, \"30\": {\"O\": 1}, \"31\": {\"O\": 1}, \"32\": {\"O\": 1}, \"33\": {\"O\": 1}, \"34\": {\"O\": 1}, \"35\": {\"O\": 1}, \"36\": {\"O\": 1}, \"37\": {\"O\": 1}, \"38\": {\"O\": 1}, \"39\": {\"O\": 1}}" n_minim_iter=3 energy=-45150.20171168156 stress="-0.01587751762690652 -9.69986729447077e-13 -4.12858985624231e-13 -9.69986729447077e-13 -0.014327175279749277 -1.4329269192696497e-13 -4.12858985624231e-13 -1.4329269192696497e-13 -0.014764389398903817" free_energy=-45150.20171168156 pbc="T T T"
In       2.75639920       4.59393055       9.13937500        0       0.00747024       0.02940020       0.02634857
In      -0.01062708       4.00893386       6.86558321        1       0.00747024      -0.02940020      -0.02634857
In       2.77765336       1.72630908      14.86806232        2      -0.00747024       0.02940020      -0.02634857
In       5.54467964       1.14131239       1.13689590        3      -0.00747024      -0.02940020       0.02634857
In       2.77765336       1.14131239       6.86558321        4      -0.00747024      -0.02940020      -0.02634857
In       5.54467964       1.72630908       9.13937500        5      -0.00747024       0.02940020       0.02634857
In       2.75639920       4.00893386       1.13689590        6       0.00747024      -0.02940020       0.02634857
In      -0.01062708       4.59393055      14.86806232        7       0.00747024       0.02940020      -0.02634857
In       2.74635970       4.29529683      13.09345060        8       0.01057041      -0.02220144       0.00121773
In       5.51338598       4.30756758       2.91150762        9       0.01057041       0.02220144      -0.00121773
In       2.78769285       1.42767536      10.91398673       10      -0.01057041      -0.02220144      -0.00121773
In       0.02066657       1.43994611       5.09097149       11      -0.01057041       0.02220144       0.00121773
In       2.78769285       1.43994611       2.91150762       12      -0.01057041       0.02220144      -0.00121773
In       0.02066657       1.42767536      13.09345060       13      -0.01057041      -0.02220144       0.00121773
In       2.74635970       4.30756758       5.09097149       14       0.01057041       0.02220144       0.00121773
In       5.51338598       4.29529683      10.91398673       15       0.01057041      -0.02220144      -0.00121773
O        4.74660329       5.07110384      12.77616856       16       0.00278276       0.03755504       0.01917016
O        1.97957701       3.53176057       3.22878966       17       0.00278276      -0.03755504      -0.01917016
O        0.78744927       2.20348237      11.23126877       18      -0.00278276       0.03755504      -0.01917016
O        3.55447555       0.66413910       4.77368945       19      -0.00278276      -0.03755504       0.01917016
O        0.78744927       0.66413910       3.22878966       20      -0.00278276      -0.03755504      -0.01917016
O        3.55447555       2.20348237      12.77616856       21      -0.00278276       0.03755504       0.01917016
O        4.74660329       3.53176057       4.77368945       22       0.00278276      -0.03755504       0.01917016
O        1.97957701       5.07110384      11.23126877       23       0.00278276       0.03755504      -0.01917016
O        3.91024657       3.03571404       9.99617208       24       0.01103662      -0.00983184       0.00646001
O        1.14322029       5.56715037       6.00878613       25       0.01103662       0.00983184      -0.00646001
O        1.62380599       0.16809257      14.01126524       26      -0.01103662      -0.00983183      -0.00646001
O        4.39083227       2.69952890       1.99369297       27      -0.01103662       0.00983184       0.00646001
O        1.62380599       2.69952890       6.00878613       28      -0.01103662       0.00983184      -0.00646001
O        4.39083227       0.16809257       9.99617208       29      -0.01103662      -0.00983184       0.00646001
O        3.91024657       5.56715037       1.99369297       30       0.01103662       0.00983184       0.00646001
O        1.14322029       3.03571404      14.01126524       31       0.01103662      -0.00983184      -0.00646001
O        3.56862858       3.80066055      15.17167729       32      -0.02308594      -0.00979797      -0.02890089
O        0.80160230       4.80220385       0.83328093       33      -0.02308594       0.00979797       0.02890089
O        1.96542397       0.93303909       8.83576004       34       0.02308594      -0.00979797       0.02890089
O        4.73245025       1.93458238       7.16919818       35       0.02308594       0.00979797      -0.02890089
O        1.96542397       1.93458238       0.83328093       36       0.02308594       0.00979797       0.02890089
O        4.73245025       0.93303909      15.17167729       37       0.02308594      -0.00979797      -0.02890089
O        3.56862858       4.80220385       7.16919818       38      -0.02308594       0.00979797      -0.02890089
O        0.80160230       3.80066055       8.83576004       39      -0.02308594      -0.00979797       0.02890089
40
Lattice="5.539867754000941 1.3692300233258214e-43 0.0 -1.4165255848088735e-43 5.732375367965613 0.0 0.0 0.0 15.99615574867993" Properties=species:S:1:pos:R:3:spacegroup_kinds:I:1:forces:R:3 spacegroup="P 1" unit_cell=conventional occupancy="_JSON {\"0\": {\"In\": 1}, \"1\": {\"In\": 1}, \"2\": {\"In\": 1}, \"3\": {\"In\": 1}, \"4\": {\"In\": 1}, \"5\": {\"In\": 1}, \"6\": {\"In\": 1}, \"7\": {\"In\": 1}, \"8\": {\"In\": 1}, \"9\": {\"In\": 1}, \"10\": {\"In\": 1}, \"11\": {\"In\": 1}, \"12\": {\"In\": 1}, \"13\": {\"In\": 1}, \"14\": {\"In\": 1}, \"15\": {\"In\": 1}, \"16\": {\"O\": 1}, \"17\": {\"O\": 1}, \"18\": {\"O\": 1}, \"19\": {\"O\": 1}, \"20\": {\"O\": 1}, \"21\": {\"O\": 1}, \"22\": {\"O\": 1}, \"23\": {\"O\": 1}, \"24\": {\"O\": 1}, \"25\": {\"O\": 1}, \"26\": {\"O\": 1}, \"27\": {\"O\": 1}, \"28\": {\"O\": 1}, \"29\": {\"O\": 1}, \"30\": {\"O\": 1}, \"31\": {\"O\": 1}, \"32\": {\"O\": 1}, \"33\": {\"O\": 1}, \"34\": {\"O\": 1}, \"35\": {\"O\": 1}, \"36\": {\"O\": 1}, \"37\": {\"O\": 1}, \"38\": {\"O\": 1}, \"39\": {\"O\": 1}}" n_minim_iter=4 energy=-45150.20337782095 stress="-0.014783780336854903 -5.455895739439339e-15 -6.715252898082854e-14 -5.455895739439339e-15 -0.014784443025453212 -2.054040331285996e-13 -6.715252898082854e-14 -2.054040331285996e-13 -0.014726162323344257" free_energy=-45150.20337782095 pbc="T T T"
In       2.75910833       4.59309924       9.13569603        0       0.00782848      -0.01040218       0.00274099
In      -0.01082555       4.00546381       6.86045971        1       0.00782848       0.01040218      -0.00274099
In       2.78075943       1.72691156      14.85853759        2      -0.00782848      -0.01040218      -0.00274099
In       5.55069330       1.13927613       1.13761816        3      -0.00782848       0.01040218       0.00274099
In       2.78075943       1.13927613       6.86045971        4      -0.00782848       0.01040218      -0.00274099
In       5.55069330       1.72691156       9.13569603        5      -0.00782848      -0.01040218       0.00274099
In       2.75910833       4.00546381       1.13761816        6       0.00782848       0.01040218       0.00274099
In      -0.01082555       4.59309924      14.85853759        7       0.00782848      -0.01040218      -0.00274099
In       2.75044657       4.29197231      13.08631653        8      -0.00115326       0.00785893      -0.01857371
In       5.52038044       4.30659074       2.90983921        9      -0.00115326      -0.00785893       0.01857371
In       2.78942119       1.42578462      10.90791709       10       0.00115326       0.00785893       0.01857371
In       0.01948731       1.44040306       5.08823866       11       0.00115326      -0.00785893      -0.01857371
In       2.78942119       1.44040306       2.90983921       12       0.00115326      -0.00785893       0.01857371
In       0.01948731       1.42578462      13.08631653       13       0.00115326       0.00785893      -0.01857371
In       2.75044657       4.30659074       5.08823866       14      -0.00115326      -0.00785893      -0.01857371
In       5.52038044       4.29197231      10.90791709       15      -0.00115326       0.00785893       0.01857371
O        4.75161408       5.07053679      12.77058936       16      -0.00041895       0.02087690      -0.00931367
O        1.98168020       3.52802626       3.22556639       17      -0.00041895      -0.02087690       0.00931367
O        0.78825368       2.20434911      11.22364426       18       0.00041895       0.02087690       0.00931367
O        3.55818755       0.66183858       4.77251148       19       0.00041895      -0.02087690      -0.00931367
O        0.78825368       0.66183858       3.22556639       20       0.00041895      -0.02087690       0.00931367
O        3.55818755       2.20434911      12.77058936       21       0.00041895       0.02087690      -0.00931367
O        4.75161408       3.52802626       4.77251148       22      -0.00041895      -0.02087690      -0.00931367
O        1.98168020       5.07053679      11.22364426       23      -0.00041895       0.02087690       0.00931367
O        3.91548650       3.03354016       9.99107313       24      -0.01104409      -0.00227587       0.00659632
O        1.14555262       5.56502289       6.00508262       25      -0.01104409       0.00227587      -0.00659632
O        1.62438125       0.16735248      14.00316049       26       0.01104409      -0.00227587      -0.00659632
O        4.39431513       2.69883520       1.99299526       27       0.01104409       0.00227587       0.00659632
O        1.62438125       2.69883520       6.00508262       28       0.01104409       0.00227587      -0.00659632
O        4.39431513       0.16735248       9.99107313       29       0.01104409      -0.00227587       0.00659632
O        3.91548650       5.56502289       1.99299526       30      -0.01104409       0.00227587       0.00659632
O        1.14555262       3.03354016      14.00316049       31      -0.01104409      -0.00227587      -0.00659632
O        3.57128290       3.79841709      15.16130624       32      -0.00588586       0.00939864      -0.00067971
O        0.80134902       4.80014596       0.83484951       33      -0.00588586      -0.00939864       0.00067971
O        1.96858485       0.93222940       8.83292738       34       0.00588586       0.00939864       0.00067971
O        4.73851873       1.93395828       7.16322837       35       0.00588586      -0.00939864      -0.00067971
O        1.96858485       1.93395828       0.83484951       36       0.00588586      -0.00939864       0.00067971
O        4.73851873       0.93222940      15.16130624       37       0.00588586       0.00939864      -0.00067971
O        3.57128290       4.80014596       7.16322837       38      -0.00588586      -0.00939864      -0.00067971
O        0.80134902       3.79841709       8.83292738       39      -0.00588586       0.00939864       0.00067971
40
Lattice="5.54149808801175 1.3500967324171712e-43 0.0 -1.401464528045826e-43 5.733086036200038 0.0 0.0 0.0 15.98946732086636" Properties=species:S:1:pos:R:3:spacegroup_kinds:I:1:forces:R:3 spacegroup="P 1" unit_cell=conventional occupancy="_JSON {\"0\": {\"In\": 1}, \"1\": {\"In\": 1}, \"2\": {\"In\": 1}, \"3\": {\"In\": 1}, \"4\": {\"In\": 1}, \"5\": {\"In\": 1}, \"6\": {\"In\": 1}, \"7\": {\"In\": 1}, \"8\": {\"In\": 1}, \"9\": {\"In\": 1}, \"10\": {\"In\": 1}, \"11\": {\"In\": 1}, \"12\": {\"In\": 1}, \"13\": {\"In\": 1}, \"14\": {\"In\": 1}, \"15\": {\"In\": 1}, \"16\": {\"O\": 1}, \"17\": {\"O\": 1}, \"18\": {\"O\": 1}, \"19\": {\"O\": 1}, \"20\": {\"O\": 1}, \"21\": {\"O\": 1}, \"22\": {\"O\": 1}, \"23\": {\"O\": 1}, \"24\": {\"O\": 1}, \"25\": {\"O\": 1}, \"26\": {\"O\": 1}, \"27\": {\"O\": 1}, \"28\": {\"O\": 1}, \"29\": {\"O\": 1}, \"30\": {\"O\": 1}, \"31\": {\"O\": 1}, \"32\": {\"O\": 1}, \"33\": {\"O\": 1}, \"34\": {\"O\": 1}, \"35\": {\"O\": 1}, \"36\": {\"O\": 1}, \"37\": {\"O\": 1}, \"38\": {\"O\": 1}, \"39\": {\"O\": 1}}" n_minim_iter=5 energy=-45150.20419086965 stress="-0.01436429471945581 -9.781884399209263e-14 1.7654494874883442e-13 -9.781884399209263e-14 -0.014461568608135 -1.3996530255107241e-13 1.7654494874883442e-13 -1.3996530255107241e-13 -0.014945768256771002" free_energy=-45150.20419086965 pbc="T T T"
In       2.76092433       4.59284412       9.13300061        0      -0.01288451       0.00790204      -0.01289691
In      -0.00982471       4.00678493       6.85646671        1      -0.01288451      -0.00790204       0.01289691
In       2.78057375       1.72630111      14.85120037        2       0.01288451       0.00790204       0.01289691
In       5.55132280       1.14024191       1.13826695        3       0.01288451      -0.00790204      -0.01289691
In       2.78057375       1.14024191       6.85646671        4       0.01288451      -0.00790204       0.01289691
In       5.55132280       1.72630111       9.13300061        5       0.01288451       0.00790204      -0.01289691
In       2.76092433       4.00678493       1.13826695        6      -0.01288451      -0.00790204      -0.01289691
In      -0.00982471       4.59284412      14.85120037        7      -0.01288451       0.00790204       0.01289691
In       2.75172715       4.29306499      13.07820482        8      -0.00032295       0.00254262       0.00733324
In       5.52247619       4.30656406       2.91126250        9      -0.00032295      -0.00254262      -0.00733324
In       2.78977094       1.42652197      10.90599616       10       0.00032295       0.00254262      -0.00733324
In       0.01902189       1.44002105       5.08347116       11       0.00032295      -0.00254262       0.00733324
In       2.78977094       1.44002105       2.91126250       12       0.00032295      -0.00254262      -0.00733324
In       0.01902189       1.42652197      13.07820482       13       0.00032295       0.00254262       0.00733324
In       2.75172715       4.30656406       5.08347116       14      -0.00032295      -0.00254262       0.00733324
In       5.52247619       4.29306499      10.90599616       15      -0.00032295       0.00254262      -0.00733324
O        4.75293158       5.07520763      12.76464643       16      -0.00796518       0.01203989       0.00148366
O        1.98218254       3.52442142       3.22482089       17      -0.00796518      -0.01203989      -0.00148366
O        0.78856651       2.20866461      11.21955455       18       0.00796518       0.01203989      -0.00148366
O        3.55931555       0.65787840       4.76991277       19       0.00796518      -0.01203989       0.00148366
O        0.78856651       0.65787840       3.22482089       20       0.00796518      -0.01203989      -0.00148366
O        3.55931555       2.20866461      12.76464643       21       0.00796518       0.01203989       0.00148366
O        4.75293158       3.52442142       4.76991277       22      -0.00796518      -0.01203989       0.00148366
O        1.98218254       5.07520763      11.21955455       23      -0.00796518       0.01203989      -0.00148366
O        3.91557289       3.03326904       9.98804669       24       0.00044968      -0.00167783       0.01102949
O        1.14482384       5.56636002       6.00142063       25       0.00044968       0.00167783      -0.01102949
O        1.62592520       0.16672602      13.99615429       26      -0.00044968      -0.00167783      -0.01102949
O        4.39667425       2.69981700       1.99331303       27      -0.00044968       0.00167783       0.01102949
O        1.62592520       2.69981700       6.00142063       28      -0.00044968       0.00167783      -0.01102949
O        4.39667425       0.16672602       9.98804669       29      -0.00044968      -0.00167783       0.01102949
O        3.91557289       5.56636002       1.99331303       30       0.00044968       0.00167783       0.01102949
O        1.14482384       3.03326904      13.99615429       31       0.00044968      -0.00167783      -0.01102949
O        3.57097433       3.80009775      15.15381466       32       0.00375013       0.00894029       0.00174266
O        0.80022528       4.79953131       0.83565266       33       0.00375013      -0.00894029      -0.00174266
O        1.97052376       0.93355473       8.83038633       34      -0.00375013       0.00894029      -0.00174266
O        4.74127281       1.93298829       7.15908100       35      -0.00375013      -0.00894029       0.00174266
O        1.97052376       1.93298829       0.83565266       36      -0.00375013      -0.00894029      -0.00174266
O        4.74127281       0.93355473      15.15381466       37      -0.00375013       0.00894029       0.00174266
O        3.57097433       4.79953131       7.15908100       38       0.00375013      -0.00894029       0.00174266
O        0.80022528       3.80009775       8.83038633       39       0.00375013       0.00894029      -0.00174266
40