40
Lattice="5.382626201576546 -5.278757290629738e-43 0.0 -5.4929895505785524e-43 5.4044554773936095 0.0 0.0 0.0 15.223614857665853" Properties=species:S:1:pos:R:3:spacegroup_kinds:I:1:forces:R:3 spacegroup="P 1" unit_cell=conventional occupancy="_JSON {\"0\": {\"In\": 1}, \"1\": {\"In\": 1}, \"2\": {\"In\": 1}, \"3\": {\"In\": 1}, \"4\": {\"In\": 1}, \"5\": {\"In\": 1}, \"6\": {\"In\": 1}, \"7\": {\"In\": 1}, \"8\": {\"In\": 1}, \"9\": {\"In\": 1}, \"10\": {\"In\": 1}, \"11\": {\"In\": 1}, \"12\": {\"In\": 1}, \"13\": {\"In\": 1}, \"14\": {\"In\": 1}, \"15\": {\"In\": 1}, \"16\": {\"O\": 1}, \"17\": {\"O\": 1}, \"18\": {\"O\": 1}, \"19\": {\"O\": 1}, \"20\": {\"O\": 1}, \"21\": {\"O\": 1}, \"22\": {\"O\": 1}, \"23\": {\"O\": 1}, \"24\": {\"O\": 1}, \"25\": {\"O\": 1}, \"26\": {\"O\": 1}, \"27\": {\"O\": 1}, \"28\": {\"O\": 1}, \"29\": {\"O\": 1}, \"30\": {\"O\": 1}, \"31\": {\"O\": 1}, \"32\": {\"O\": 1}, \"33\": {\"O\": 1}, \"34\": {\"O\": 1}, \"35\": {\"O\": 1}, \"36\": {\"O\": 1}, \"37\": {\"O\": 1}, \"38\": {\"O\": 1}, \"39\": {\"O\": 1}}" n_minim_iter=27 energy=-45147.402451353155 stress="-0.10126845032356636 1.0186580046358817e-13 -8.066594452246683e-13 1.0186580046358817e-13 -0.10125631784753143 -4.2530635021375964e-13 -8.066594452246683e-13 -4.2530635021375964e-13 -0.10131205016225052" free_energy=-45147.402451353155 pbc="T T T"
In       2.70070097       4.20331433       8.64576462        0      -0.00240717      -0.00209196       0.00328945
In       0.00938787       3.90336889       6.57785024        1      -0.00240717       0.00209196      -0.00328945
In       2.68192523       1.50108659      14.18965767        2       0.00240717      -0.00209196      -0.00328945
In       5.37323833       1.20114115       1.03395719        3       0.00240717       0.00209196       0.00328945
In       2.68192523       1.20114115       6.57785024        4       0.00240717       0.00209196      -0.00328945
In       5.37323833       1.50108659       8.64576462        5       0.00240717      -0.00209196       0.00328945
In       2.70070097       3.90336889       1.03395719        6      -0.00240717       0.00209196       0.00328945
In       0.00938787       4.20331433      14.18965767        7      -0.00240717      -0.00209196      -0.00328945
In       2.68955081       3.91166771      12.39842122        8      -0.00200103       0.00065517       0.00172865
In       5.38086391       4.19501550       2.82519364        9      -0.00200103      -0.00065517      -0.00172865
In       2.69307539       1.20943998      10.43700106       10       0.00200103       0.00065517      -0.00172865
In       0.00176229       1.49278776       4.78661379       11       0.00200103      -0.00065517       0.00172865
In       2.69307539       1.49278776       2.82519364       12       0.00200103      -0.00065517      -0.00172865
In       0.00176229       1.20943998      12.39842122       13       0.00200103       0.00065517       0.00172865
In       2.68955081       4.19501550       4.78661379       14      -0.00200103      -0.00065517       0.00172865
In       5.38086391       3.91166771      10.43700106       15      -0.00200103       0.00065517      -0.00172865
O        4.62446051       4.65102152      12.19017060       16      -0.00187123      -0.00074634      -0.00482571
O        1.93314741       3.45566169       3.03344425       17      -0.00187123       0.00074634       0.00482571
O        0.75816569       1.94879378      10.64525168       18       0.00187123      -0.00074634       0.00482571
O        3.44947879       0.75343396       4.57836318       19       0.00187123       0.00074634      -0.00482571
O        0.75816569       0.75343396       3.03344425       20       0.00187123       0.00074634       0.00482571
O        3.44947879       1.94879378      12.19017060       21       0.00187123      -0.00074634      -0.00482571
O        4.62446051       3.45566169       4.57836318       22      -0.00187123       0.00074634      -0.00482571
O        1.93314741       4.65102152      10.64525168       23      -0.00187123      -0.00074634       0.00482571
O        3.81268473       2.72689285       9.55607963       24      -0.00163689      -0.00121901      -0.00091579
O        1.12137162       5.37979036       5.66753523       25      -0.00163689       0.00121901       0.00091579
O        1.56994148       0.02466511      13.27934266       26       0.00163689      -0.00121901       0.00091579
O        4.26125458       2.67756262       1.94427220       27       0.00163689       0.00121901      -0.00091579
O        1.56994148       2.67756262       5.66753523       28       0.00163689       0.00121901       0.00091579
O        4.26125458       0.02466511       9.55607963       29       0.00163689      -0.00121901      -0.00091579
O        3.81268473       5.37979036       1.94427220       30      -0.00163689       0.00121901      -0.00091579
O        1.12137162       2.72689285      13.27934266       31      -0.00163689      -0.00121901       0.00091579
O        3.45240957       3.52419564      14.37763222       32      -0.00248829      -0.00364567       0.00095528
O        0.76109647       4.58248757       0.84598263       33      -0.00248829       0.00364567      -0.00095528
O        1.93021663       0.82196790       8.45779006       34       0.00248829      -0.00364567      -0.00095528
O        4.62152973       1.88025983       6.76582479       35       0.00248829       0.00364567       0.00095528
O        1.93021663       1.88025983       0.84598263       36       0.00248829       0.00364567      -0.00095528
O        4.62152973       0.82196790      14.37763222       37       0.00248829      -0.00364567       0.00095528
O        3.45240957       4.58248757       6.76582479       38      -0.00248829       0.00364567       0.00095528
O        0.76109647       3.52419564       8.45779006       39      -0.00248829      -0.00364567      -0.00095528
