40
Lattice="5.918729928029548 -2.4661072581401617e-42 0.0 2.6347154821558103e-42 6.323394623086623 0.0 0.0 0.0 17.401081091142856" Properties=species:S:1:pos:R:3:spacegroup_kinds:I:1:forces:R:3 spacegroup="P 1" unit_cell=conventional occupancy="_JSON {\"0\": {\"In\": 1}, \"1\": {\"In\": 1}, \"2\": {\"In\": 1}, \"3\": {\"In\": 1}, \"4\": {\"In\": 1}, \"5\": {\"In\": 1}, \"6\": {\"In\": 1}, \"7\": {\"In\": 1}, \"8\": {\"In\": 1}, \"9\": {\"In\": 1}, \"10\": {\"In\": 1}, \"11\": {\"In\": 1}, \"12\": {\"In\": 1}, \"13\": {\"In\": 1}, \"14\": {\"In\": 1}, \"15\": {\"In\": 1}, \"16\": {\"O\": 1}, \"17\": {\"O\": 1}, \"18\": {\"O\": 1}, \"19\": {\"O\": 1}, \"20\": {\"O\": 1}, \"21\": {\"O\": 1}, \"22\": {\"O\": 1}, \"23\": {\"O\": 1}, \"24\": {\"O\": 1}, \"25\": {\"O\": 1}, \"26\": {\"O\": 1}, \"27\": {\"O\": 1}, \"28\": {\"O\": 1}, \"29\": {\"O\": 1}, \"30\": {\"O\": 1}, \"31\": {\"O\": 1}, \"32\": {\"O\": 1}, \"33\": {\"O\": 1}, \"34\": {\"O\": 1}, \"35\": {\"O\": 1}, \"36\": {\"O\": 1}, \"37\": {\"O\": 1}, \"38\": {\"O\": 1}, \"39\": {\"O\": 1}}" n_minim_iter=1 energy=-45145.28610976252 stress="0.08272021756541008 2.6004267564673772e-14 1.5151114370766811e-13 2.6004267564673772e-14 0.07879936212541866 -4.080063648442573e-13 1.5151114370766811e-13 -4.080063648442573e-13 0.08020511616138934" free_energy=-45145.28610976252 pbc="T T T"
In       2.71507763       5.27222613      10.03044244        0       0.06813347       0.07601173      -0.00898630
In      -0.24428733       4.21286580       7.37063866        1       0.06813347      -0.07601173       0.00898630
In       3.20365230       2.11052882      16.07117920        2      -0.06813347       0.07601173       0.00898630
In       6.16301726       1.05116849       1.32990189        3      -0.06813347      -0.07601173      -0.00898630
In       3.20365230       1.05116849       7.37063866        4      -0.06813347      -0.07601173       0.00898630
In       6.16301726       2.11052882      10.03044244        5      -0.06813347       0.07601173      -0.00898630
In       2.71507763       4.21286580       1.32990189        6       0.06813347      -0.07601173      -0.00898630
In      -0.24428733       5.27222613      16.07117920        7       0.06813347       0.07601173       0.00898630
In       2.71841613       5.03944081      14.16142564        8       0.02298643       0.01127150      -0.02121933
In       5.67778110       4.44565112       3.23965545        9       0.02298643      -0.01127150       0.02121933
In       3.20031380       1.87774350      11.94019600       10      -0.02298643       0.01127150       0.02121933
In       0.24094883       1.28395381       5.46088509       11      -0.02298643      -0.01127150      -0.02121933
In       3.20031380       1.28395381       3.23965545       12      -0.02298643      -0.01127150       0.02121933
In       0.24094883       1.87774350      14.16142564       13      -0.02298643       0.01127150      -0.02121933
In       2.71841613       4.44565112       5.46088509       14       0.02298643      -0.01127150      -0.02121933
In       5.67778110       5.03944081      11.94019600       15       0.02298643       0.01127150       0.02121933
O        4.84671451       5.63803424      13.93119932       16       0.01296106      -0.08477620       0.01750117
O        1.88734955       3.84705770       3.46988178       17       0.01296106       0.08477620      -0.01750117
O        1.07201542       2.47633692      12.17042232       18      -0.01296106      -0.08477620      -0.01750117
O        4.03138038       0.68536039       5.23065877       19      -0.01296106       0.08477620       0.01750117
O        1.07201542       0.68536039       3.46988178       20      -0.01296106       0.08477620      -0.01750117
O        4.03138038       2.47633692      13.93119932       21      -0.01296106      -0.08477620       0.01750117
O        4.84671451       3.84705770       5.23065877       22       0.01296106       0.08477620       0.01750117
O        1.88734955       5.63803424      12.17042232       23       0.01296106      -0.08477620      -0.01750117
O        4.08828317       3.77218939      11.04143880       24      -0.02512062       0.12720310       0.06633647
O        1.12891821       5.71290254       6.35964229       25      -0.02512062      -0.12720310      -0.06633647
O        1.83044676       0.61049208      15.06018284       26       0.02512062       0.12720310      -0.06633647
O        4.78981172       2.55120523       2.34089825       27       0.02512062      -0.12720310       0.06633647
O        1.83044676       2.55120523       6.35964229       28       0.02512062      -0.12720310      -0.06633647
O        4.78981172       0.61049208      11.04143880       29       0.02512062       0.12720310       0.06633647
O        4.08828317       5.71290254       2.34089825       30      -0.02512062      -0.12720310       0.06633647
O        1.12891821       3.77218939      15.06018284       31      -0.02512062       0.12720310      -0.06633647
O        3.74396028       4.20550265      16.69799657       32      -0.06413900      -0.09811672       0.03937641
O        0.78459531       5.27958929       0.70308452       33      -0.06413900       0.09811672      -0.03937641
O        2.17476965       1.04380534       9.40362507       34       0.06413900      -0.09811672      -0.03937641
O        5.13413462       2.11789198       7.99745602       35       0.06413900       0.09811672       0.03937641
O        2.17476965       2.11789198       0.70308452       36       0.06413900       0.09811672      -0.03937641
O        5.13413462       1.04380534      16.69799657       37       0.06413900      -0.09811672       0.03937641
O        3.74396028       5.27958929       7.99745602       38      -0.06413900       0.09811672       0.03937641
O        0.78459531       4.20550265       9.40362507       39      -0.06413900      -0.09811672      -0.03937641
40
Lattice="5.903414257219381 -2.4662106359660468e-42 0.0 2.6331993675960545e-42 6.336969120701439 0.0 0.0 0.0 17.408854252049363" Properties=species:S:1:pos:R:3:spacegroup_kinds:I:1:forces:R:3 spacegroup="P 1" unit_cell=conventional occupancy="_JSON {\"0\": {\"In\": 1}, \"1\": {\"In\": 1}, \"2\": {\"In\": 1}, \"3\": {\"In\": 1}, \"4\": {\"In\": 1}, \"5\": {\"In\": 1}, \"6\": {\"In\": 1}, \"7\": {\"In\": 1}, \"8\": {\"In\": 1}, \"9\": {\"In\": 1}, \"10\": {\"In\": 1}, \"11\": {\"In\": 1}, \"12\": {\"In\": 1}, \"13\": {\"In\": 1}, \"14\": {\"In\": 1}, \"15\": {\"In\": 1}, \"16\": {\"O\": 1}, \"17\": {\"O\": 1}, \"18\": {\"O\": 1}, \"19\": {\"O\": 1}, \"20\": {\"O\": 1}, \"21\": {\"O\": 1}, \"22\": {\"O\": 1}, \"23\": {\"O\": 1}, \"24\": {\"O\": 1}, \"25\": {\"O\": 1}, \"26\": {\"O\": 1}, \"27\": {\"O\": 1}, \"28\": {\"O\": 1}, \"29\": {\"O\": 1}, \"30\": {\"O\": 1}, \"31\": {\"O\": 1}, \"32\": {\"O\": 1}, \"33\": {\"O\": 1}, \"34\": {\"O\": 1}, \"35\": {\"O\": 1}, \"36\": {\"O\": 1}, \"37\": {\"O\": 1}, \"38\": {\"O\": 1}, \"39\": {\"O\": 1}}" n_minim_iter=2 energy=-45145.28964646481 stress="0.07975017326589427 -3.4443764042783243e-13 -7.982083760762511e-14 -3.4443764042783243e-13 0.08025543515908273 -1.5207583498159936e-13 -7.982083760762511e-14 -1.5207583498159936e-13 0.08020998375502184" free_energy=-45145.28964646481 pbc="T T T"
In       2.70817796       5.28368534      10.03490642        0       0.07282203       0.09565862      -0.02016278
In      -0.24352917       4.22176834       7.37394783        1       0.07282203      -0.09565862       0.02016278
In       3.19523630       2.11520078      16.07837496        2      -0.07282203       0.09565862       0.02016278
In       6.14694343       1.05328378       1.33047929        3      -0.07282203      -0.09565862      -0.02016278
In       3.19523630       1.05328378       7.37394783        4      -0.07282203      -0.09565862       0.02016278
In       6.14694343       2.11520078      10.03490642        5      -0.07282203       0.09565862      -0.02016278
In       2.70817796       4.22176834       1.33047929        6       0.07282203      -0.09565862      -0.02016278
In      -0.24352917       5.28368534      16.07837496        7       0.07282203       0.09565862       0.02016278
In       2.71142431       5.05027998      14.16771226        8       0.00273841       0.00323649      -0.01616540
In       5.66313144       4.45517370       3.24114199        9       0.00273841      -0.00323649       0.01616540
In       3.19198995       1.88179542      11.94556912       10      -0.00273841       0.00323649       0.01616540
In       0.24028282       1.28668914       5.46328513       11      -0.00273841      -0.00323649      -0.01616540
In       3.19198995       1.28668914       3.24114199       12      -0.00273841      -0.00323649       0.01616540
In       0.24028282       1.88179542      14.16771226       13      -0.00273841       0.00323649      -0.01616540
In       2.71142431       4.45517370       5.46328513       14       0.00273841      -0.00323649      -0.01616540
In       5.66313144       5.05027998      11.94556912       15       0.00273841       0.00323649       0.01616540
O        4.83419683       5.64997991      13.93745493       16       0.02599823      -0.08582761       0.01347138
O        1.88248970       3.85547377       3.47139932       17       0.02599823       0.08582761      -0.01347138
O        1.06921743       2.48149535      12.17582645       18      -0.02599823      -0.08582761      -0.01347138
O        4.02092456       0.68698921       5.23302781       19      -0.02599823       0.08582761       0.01347138
O        1.06921743       0.68698921       3.47139932       20      -0.02599823       0.08582761      -0.01347138
O        4.02092456       2.48149535      13.93745493       21      -0.02599823      -0.08582761       0.01347138
O        4.83419683       3.85547377       5.23302781       22       0.02599823       0.08582761       0.01347138
O        1.88248970       5.64997991      12.17582645       23       0.02599823      -0.08582761      -0.01347138
O        4.07765761       3.78052359      11.04649414       24      -0.02290503       0.12353428       0.07529664
O        1.12595048       5.72493009       6.36236011       25      -0.02290503      -0.12353428      -0.07529664
O        1.82575665       0.61203903      15.06678723       26       0.02290503       0.12353428      -0.07529664
O        4.77746377       2.55644553       2.34206702       27       0.02290503      -0.12353428       0.07529664
O        1.82575665       2.55644553       6.36236011       28       0.02290503      -0.12353428      -0.07529664
O        4.77746377       0.61203903      11.04649414       29       0.02290503       0.12353428       0.07529664
O        4.07765761       5.72493009       2.34206702       30      -0.02290503      -0.12353428       0.07529664
O        1.12595048       3.78052359      15.06678723       31      -0.02290503       0.12353428      -0.07529664
O        3.73415354       4.21434830      16.70552871       32      -0.06523551      -0.11058097       0.04198678
O        0.78244641       5.29110538       0.70332554       33      -0.06523551       0.11058097      -0.04198678
O        2.16926072       1.04586374       9.40775267       34       0.06523551      -0.11058097      -0.04198678
O        5.12096785       2.12262082       8.00110159       35       0.06523551       0.11058097       0.04198678
O        2.16926072       2.12262082       0.70332554       36       0.06523551       0.11058097      -0.04198678
O        5.12096785       1.04586374      16.70552871       37       0.06523551      -0.11058097       0.04198678
O        3.73415354       5.29110538       8.00110159       38      -0.06523551       0.11058097       0.04198678
O        0.78244641       4.21434830       9.40775267       39      -0.06523551      -0.11058097      -0.04198678
40
Lattice="5.904835611972125 -2.1262159151335573e-42 0.0 2.703394291143174e-42 6.359425966687329 0.0 0.0 0.0 17.343203205866196" Properties=species:S:1:pos:R:3:spacegroup_kinds:I:1:forces:R:3 spacegroup="P 1" unit_cell=conventional occupancy="_JSON {\"0\": {\"In\": 1}, \"1\": {\"In\": 1}, \"2\": {\"In\": 1}, \"3\": {\"In\": 1}, \"4\": {\"In\": 1}, \"5\": {\"In\": 1}, \"6\": {\"In\": 1}, \"7\": {\"In\": 1}, \"8\": {\"In\": 1}, \"9\": {\"In\": 1}, \"10\": {\"In\": 1}, \"11\": {\"In\": 1}, \"12\": {\"In\": 1}, \"13\": {\"In\": 1}, \"14\": {\"In\": 1}, \"15\": {\"In\": 1}, \"16\": {\"O\": 1}, \"17\": {\"O\": 1}, \"18\": {\"O\": 1}, \"19\": {\"O\": 1}, \"20\": {\"O\": 1}, \"21\": {\"O\": 1}, \"22\": {\"O\": 1}, \"23\": {\"O\": 1}, \"24\": {\"O\": 1}, \"25\": {\"O\": 1}, \"26\": {\"O\": 1}, \"27\": {\"O\": 1}, \"28\": {\"O\": 1}, \"29\": {\"O\": 1}, \"30\": {\"O\": 1}, \"31\": {\"O\": 1}, \"32\": {\"O\": 1}, \"33\": {\"O\": 1}, \"34\": {\"O\": 1}, \"35\": {\"O\": 1}, \"36\": {\"O\": 1}, \"37\": {\"O\": 1}, \"38\": {\"O\": 1}, \"39\": {\"O\": 1}}" n_minim_iter=3 energy=-45145.30954577588 stress="0.07791874317668716 5.3947834127759414e-15 -2.492016260242875e-13 5.3947834127759414e-15 0.07918829278629737 -2.048282283369992e-13 -2.492016260242875e-13 -2.048282283369992e-13 0.0738717131451072" free_energy=-45145.30954577588 pbc="T T T"
In       2.71455498       5.30988330       9.99557646        0      -0.00280943       0.01686930       0.02179706
In      -0.23786283       4.22925565       7.34762675        1      -0.00280943      -0.01686930      -0.02179706
In       3.19028064       2.13017032      16.01922835        2       0.00280943       0.01686930      -0.02179706
In       6.14269844       1.04954267       1.32397486        3       0.00280943      -0.01686930       0.02179706
In       3.19028064       1.04954267       7.34762675        4       0.00280943      -0.01686930      -0.02179706
In       6.14269844       2.13017032       9.99557646        5       0.00280943       0.01686930       0.02179706
In       2.71455498       4.22925565       1.32397486        6      -0.00280943      -0.01686930       0.02179706
In      -0.23786283       5.30988330      16.01922835        7      -0.00280943       0.01686930      -0.02179706
In       2.71250097       5.06851949      14.11294880        8       0.02678834      -0.00223587       0.00813921
In       5.66491877       4.47061946       3.23025440        9       0.02678834       0.00223587      -0.00813921
In       3.19233465       1.88880651      11.90185601       10      -0.02678834      -0.00223587      -0.00813921
In       0.23991684       1.29090647       5.44134720       11      -0.02678834       0.00223587       0.00813921
In       3.19233465       1.29090647       3.23025440       12      -0.02678834       0.00223587      -0.00813921
In       0.23991684       1.88880651      14.11294880       13      -0.02678834      -0.00223587       0.00813921
In       2.71250097       4.47061946       5.44134720       14       0.02678834       0.00223587       0.00813921
In       5.66491877       5.06851949      11.90185601       15       0.02678834      -0.00223587      -0.00813921
O        4.83728859       5.66312595      13.88600579       16       0.01504726      -0.03747590       0.02686365
O        1.88487079       3.87601300       3.45719741       17       0.01504726       0.03747590      -0.02686365
O        1.06754702       2.48341297      12.12879902       18      -0.01504726      -0.03747590      -0.02686365
O        4.01996482       0.69630001       5.21440419       19      -0.01504726       0.03747590       0.02686365
O        1.06754702       0.69630001       3.45719741       20      -0.01504726       0.03747590      -0.02686365
O        4.01996482       2.48341297      13.88600579       21      -0.01504726      -0.03747590       0.02686365
O        4.83728859       3.87601300       5.21440419       22       0.01504726       0.03747590       0.02686365
O        1.88487079       5.66312595      12.12879902       23       0.01504726      -0.03747590      -0.02686365
O        4.07680100       3.80387150      11.01072395       24      -0.00028101       0.07985812       0.05480637
O        1.12438319       5.73526745       6.33247925       25      -0.00028101      -0.07985812      -0.05480637
O        1.82803461       0.62415852      15.00408085       26       0.00028101       0.07985812      -0.05480637
O        4.78045242       2.55555447       2.33912235       27       0.00028101      -0.07985812       0.05480637
O        1.82803461       2.55555447       6.33247925       28       0.00028101      -0.07985812      -0.05480637
O        4.78045242       0.62415852      11.01072395       29       0.00028101       0.07985812       0.05480637
O        4.07680100       5.73526745       2.33912235       30      -0.00028101      -0.07985812       0.05480637
O        1.12438319       3.80387150      15.00408085       31      -0.00028101       0.07985812      -0.05480637
O        3.72989236       4.22053796      16.64583735       32       0.02503236      -0.02325270       0.00259398
O        0.77747455       5.31860099       0.69736585       33       0.02503236       0.02325270      -0.00259398
O        2.17494325       1.04082498       9.36896746       34      -0.02503236      -0.02325270      -0.00259398
O        5.12736106       2.13888800       7.97423575       35      -0.02503236       0.02325270       0.00259398
O        2.17494325       2.13888800       0.69736585       36      -0.02503236       0.02325270      -0.00259398
O        5.12736106       1.04082498      16.64583735       37      -0.02503236      -0.02325270       0.00259398
O        3.72989236       5.31860099       7.97423575       38       0.02503236       0.02325270       0.00259398
O        0.77747455       4.22053796       9.36896746       39       0.02503236      -0.02325270      -0.00259398
40
Lattice="5.89534145279271 -2.1232857074246524e-42 0.0 2.697995195236272e-42 6.346407438347349 0.0 0.0 0.0 17.40676738378728" Properties=species:S:1:pos:R:3:spacegroup_kinds:I:1:forces:R:3 spacegroup="P 1" unit_cell=conventional occupancy="_JSON {\"0\": {\"In\": 1}, \"1\": {\"In\": 1}, \"2\": {\"In\": 1}, \"3\": {\"In\": 1}, \"4\": {\"In\": 1}, \"5\": {\"In\": 1}, \"6\": {\"In\": 1}, \"7\": {\"In\": 1}, \"8\": {\"In\": 1}, \"9\": {\"In\": 1}, \"10\": {\"In\": 1}, \"11\": {\"In\": 1}, \"12\": {\"In\": 1}, \"13\": {\"In\": 1}, \"14\": {\"In\": 1}, \"15\": {\"In\": 1}, \"16\": {\"O\": 1}, \"17\": {\"O\": 1}, \"18\": {\"O\": 1}, \"19\": {\"O\": 1}, \"20\": {\"O\": 1}, \"21\": {\"O\": 1}, \"22\": {\"O\": 1}, \"23\": {\"O\": 1}, \"24\": {\"O\": 1}, \"25\": {\"O\": 1}, \"26\": {\"O\": 1}, \"27\": {\"O\": 1}, \"28\": {\"O\": 1}, \"29\": {\"O\": 1}, \"30\": {\"O\": 1}, \"31\": {\"O\": 1}, \"32\": {\"O\": 1}, \"33\": {\"O\": 1}, \"34\": {\"O\": 1}, \"35\": {\"O\": 1}, \"36\": {\"O\": 1}, \"37\": {\"O\": 1}, \"38\": {\"O\": 1}, \"39\": {\"O\": 1}}" n_minim_iter=4 energy=-45145.31827707076 stress="0.07554597316481257 -4.775165790630434e-13 -5.76931223657259e-14 -4.775165790630434e-13 0.07573655259926125 -6.210925531348054e-13 -5.76931223657259e-14 -6.210925531348054e-13 0.07560769133179407" free_energy=-45145.31827707076 pbc="T T T"
In       2.71262998       5.30224870      10.03162915        0      -0.01918087      -0.01652099       0.00963565
In      -0.23504075       4.21736245       7.37513823        1      -0.01918087       0.01652099      -0.00963565
In       3.18271147       2.12904498      16.07852193        2       0.01918087      -0.01652099      -0.00963565
In       6.13038220       1.04415874       1.32824546        3       0.01918087       0.01652099       0.00963565
In       3.18271147       1.04415874       7.37513823        4       0.01918087       0.01652099      -0.00963565
In       6.13038220       2.12904498      10.03162915        5       0.01918087      -0.01652099       0.00963565
In       2.71262998       4.21736245       1.32824546        6      -0.01918087       0.01652099       0.00963565
In      -0.23504075       5.30224870      16.07852193        7      -0.01918087      -0.01652099      -0.00963565
In       2.70839146       5.05828488      14.16412052        8       0.01954639       0.01153971      -0.02075540
In       5.65606218       4.46132628       3.24264686        9       0.01954639      -0.01153971       0.02075540
In       3.18695000       1.88508116      11.94603055       10      -0.01954639       0.01153971       0.02075540
In       0.23927927       1.28812256       5.46073683       11      -0.01954639      -0.01153971      -0.02075540
In       3.18695000       1.28812256       3.24264686       12      -0.01954639      -0.01153971       0.02075540
In       0.23927927       1.88508116      14.16412052       13      -0.01954639       0.01153971      -0.02075540
In       2.70839146       4.46132628       5.46073683       14       0.01954639      -0.01153971      -0.02075540
In       5.65606218       5.05828488      11.94603055       15       0.01954639       0.01153971       0.02075540
O        4.83037232       5.64849726      13.93744591       16       0.01624856      -0.02420960       0.00284092
O        1.88270159       3.87111390       3.46932147       17       0.01624856       0.02420960      -0.00284092
O        1.06496913       2.47529354      12.17270517       18      -0.01624856      -0.02420960      -0.00284092
O        4.01263986       0.69791018       5.23406222       19      -0.01624856       0.02420960       0.00284092
O        1.06496913       0.69791018       3.46932147       20      -0.01624856       0.02420960      -0.00284092
O        4.01263986       2.47529354      13.93744591       21      -0.01624856      -0.02420960       0.00284092
O        4.83037232       3.87111390       5.23406222       22       0.01624856       0.02420960       0.00284092
O        1.88270159       5.64849726      12.17270517       23       0.01624856      -0.02420960      -0.00284092
O        4.06945927       3.80054450      11.05374926       24       0.00805744       0.04571451       0.04733928
O        1.12178854       5.71906666       6.35301813       25       0.00805744      -0.04571451      -0.04733927
O        1.82588219       0.62734078      15.05640182       26      -0.00805744       0.04571451      -0.04733928
O        4.77355291       2.54586294       2.35036557       27      -0.00805744      -0.04571451       0.04733928
O        1.82588219       2.54586294       6.35301813       28      -0.00805744      -0.04571451      -0.04733927
O        4.77355291       0.62734078      11.05374926       29      -0.00805744       0.04571451       0.04733927
O        4.06945927       5.71906666       2.35036557       30       0.00805744      -0.04571451       0.04733928
O        1.12178854       3.80054450      15.05640182       31       0.00805744       0.04571451      -0.04733927
O        3.72175360       4.20810206      16.70827332       32       0.05670811       0.04605531      -0.00001601
O        0.77408287       5.31150910       0.69849407       33       0.05670811      -0.04605531       0.00001601
O        2.17358785       1.03489834       9.40187776       34      -0.05670811       0.04605531       0.00001601
O        5.12125858       2.13830538       8.00488963       35      -0.05670811      -0.04605531      -0.00001601
O        2.17358785       2.13830538       0.69849407       36      -0.05670811      -0.04605531       0.00001601
O        5.12125858       1.03489834      16.70827332       37      -0.05670811       0.04605531      -0.00001601
O        3.72175360       5.31150910       8.00488963       38       0.05670811      -0.04605531      -0.00001601
O        0.77408287       4.20810206       9.40187776       39       0.05670811       0.04605531       0.00001601
40
Lattice="5.897682852401677 -2.6361875978943908e-42 0.0 3.482706958366902e-42 6.341486059498637 0.0 0.0 0.0 17.413360186638243" Properties=species:S:1:pos:R:3:spacegroup_kinds:I:1:forces:R:3 spacegroup="P 1" unit_cell=conventional occupancy="_JSON {\"0\": {\"In\": 1}, \"1\": {\"In\": 1}, \"2\": {\"In\": 1}, \"3\": {\"In\": 1}, \"4\": {\"In\": 1}, \"5\": {\"In\": 1}, \"6\": {\"In\": 1}, \"7\": {\"In\": 1}, \"8\": {\"In\": 1}, \"9\": {\"In\": 1}, \"10\": {\"In\": 1}, \"11\": {\"In\": 1}, \"12\": {\"In\": 1}, \"13\": {\"In\": 1}, \"14\": {\"In\": 1}, \"15\": {\"In\": 1}, \"16\": {\"O\": 1}, \"17\": {\"O\": 1}, \"18\": {\"O\": 1}, \"19\": {\"O\": 1}, \"20\": {\"O\": 1}, \"21\": {\"O\": 1}, \"22\": {\"O\": 1}, \"23\": {\"O\": 1}, \"24\": {\"O\": 1}, \"25\": {\"O\": 1}, \"26\": {\"O\": 1}, \"27\": {\"O\": 1}, \"28\": {\"O\": 1}, \"29\": {\"O\": 1}, \"30\": {\"O\": 1}, \"31\": {\"O\": 1}, \"32\": {\"O\": 1}, \"33\": {\"O\": 1}, \"34\": {\"O\": 1}, \"35\": {\"O\": 1}, \"36\": {\"O\": 1}, \"37\": {\"O\": 1}, \"38\": {\"O\": 1}, \"39\": {\"O\": 1}}" n_minim_iter=5 energy=-45145.32325771399 stress="0.0753254484003061 -1.6839136406831645e-13 2.0723155439884934e-13 -1.6839136406831645e-13 0.0746304047822542 1.763244027937552e-13 2.0723155439884934e-13 1.763244027937552e-13 0.0753308549188496" free_energy=-45145.32325771399 pbc="T T T"
In       2.71348460       5.29840224      10.03584422        0      -0.00420824      -0.00526576       0.00109827
In      -0.23535683       4.21382685       7.37751597        1      -0.00420824       0.00526576      -0.00109827
In       3.18419825       2.12765921      16.08419606        2       0.00420824      -0.00526576      -0.00109827
In       6.13303968       1.04308382       1.32916413        3       0.00420824       0.00526576       0.00109827
In       3.18419825       1.04308382       7.37751597        4       0.00420824       0.00526576      -0.00109827
In       6.13303968       2.12765921      10.03584422        5       0.00420824      -0.00526576       0.00109827
In       2.71348460       4.21382685       1.32916413        6      -0.00420824       0.00526576       0.00109827
In      -0.23535683       5.29840224      16.08419606        7      -0.00420824      -0.00526576      -0.00109827
In       2.71100695       5.05529897      14.16768094        8       0.01993168       0.01652301      -0.01796742
In       5.65984838       4.45693012       3.24567925        9       0.01993168      -0.01652301       0.01796742
In       3.18667590       1.88455594      11.95235934       10      -0.01993168       0.01652301       0.01796742
In       0.23783448       1.28618709       5.46100085       11      -0.01993168      -0.01652301      -0.01796742
In       3.18667590       1.28618709       3.24567925       12      -0.01993168      -0.01652301       0.01796742
In       0.23783448       1.88455594      14.16768094       13      -0.01993168       0.01652301      -0.01796742
In       2.71100695       4.45693012       5.46100085       14       0.01993168      -0.01652301      -0.01796742
In       5.65984838       5.05529897      11.95235934       15       0.01993168       0.01652301       0.01796742
O        4.83382523       5.64094924      13.94316141       16       0.00421306      -0.00120089       0.00275920
O        1.88498380       3.87127985       3.47019878       17       0.00421306       0.00120089      -0.00275920
O        1.06385762       2.47020621      12.17687887       18      -0.00421306      -0.00120089      -0.00275920
O        4.01269905       0.70053682       5.23648132       19      -0.00421306       0.00120089       0.00275920
O        1.06385762       0.70053682       3.47019878       20      -0.00421306       0.00120089      -0.00275920
O        4.01269905       2.47020621      13.94316141       21      -0.00421306      -0.00120089       0.00275920
O        4.83382523       3.87127985       5.23648132       22       0.00421306       0.00120089       0.00275920
O        1.88498380       5.64094924      12.17687887       23       0.00421306      -0.00120089      -0.00275920
O        4.07127582       3.80296845      11.06256266       24       0.01663798       0.01124615       0.02093619
O        1.12243440       5.70926064       6.35079752       25       0.01663798      -0.01124615      -0.02093619
O        1.82640703       0.63222542      15.05747762       26      -0.01663798       0.01124615      -0.02093619
O        4.77524846       2.53851761       2.35588257       27      -0.01663798      -0.01124615       0.02093619
O        1.82640703       2.53851761       6.35079752       28      -0.01663798      -0.01124615      -0.02093619
O        4.77524846       0.63222542      11.06256266       29      -0.01663798       0.01124615       0.02093619
O        4.07127582       5.70926064       2.35588257       30       0.01663798      -0.01124615       0.02093619
O        1.12243440       3.80296845      15.05747762       31       0.01663798       0.01124615      -0.02093619
O        3.72626830       4.20646451      16.71527517       32       0.02693362       0.02677988       0.00701499
O        0.77742688       5.30576458       0.69808501       33       0.02693362      -0.02677988      -0.00701499
O        2.17141455       1.03572148       9.40476511       34      -0.02693362       0.02677988      -0.00701499
O        5.12025598       2.13502155       8.00859508       35      -0.02693362      -0.02677988       0.00701499
O        2.17141455       2.13502155       0.69808501       36      -0.02693362      -0.02677988      -0.00701499
O        5.12025598       1.03572148      16.71527517       37      -0.02693362       0.02677988       0.00701499
O        3.72626830       5.30576458       8.00859508       38       0.02693362      -0.02677988       0.00701499
O        0.77742688       4.20646451       9.40476511       39       0.02693362       0.02677988      -0.00701499
40