40
Lattice="5.404812399483285 -2.3182542335961786e-43 0.0 -5.095072847780399e-43 5.573789322780094 0.0 0.0 0.0 15.565259407517456" Properties=species:S:1:pos:R:3:spacegroup_kinds:I:1:forces:R:3 spacegroup="P 1" unit_cell=conventional occupancy="_JSON {\"0\": {\"In\": 1}, \"1\": {\"In\": 1}, \"2\": {\"In\": 1}, \"3\": {\"In\": 1}, \"4\": {\"In\": 1}, \"5\": {\"In\": 1}, \"6\": {\"In\": 1}, \"7\": {\"In\": 1}, \"8\": {\"In\": 1}, \"9\": {\"In\": 1}, \"10\": {\"In\": 1}, \"11\": {\"In\": 1}, \"12\": {\"In\": 1}, \"13\": {\"In\": 1}, \"14\": {\"In\": 1}, \"15\": {\"In\": 1}, \"16\": {\"O\": 1}, \"17\": {\"O\": 1}, \"18\": {\"O\": 1}, \"19\": {\"O\": 1}, \"20\": {\"O\": 1}, \"21\": {\"O\": 1}, \"22\": {\"O\": 1}, \"23\": {\"O\": 1}, \"24\": {\"O\": 1}, \"25\": {\"O\": 1}, \"26\": {\"O\": 1}, \"27\": {\"O\": 1}, \"28\": {\"O\": 1}, \"29\": {\"O\": 1}, \"30\": {\"O\": 1}, \"31\": {\"O\": 1}, \"32\": {\"O\": 1}, \"33\": {\"O\": 1}, \"34\": {\"O\": 1}, \"35\": {\"O\": 1}, \"36\": {\"O\": 1}, \"37\": {\"O\": 1}, \"38\": {\"O\": 1}, \"39\": {\"O\": 1}}" n_minim_iter=27 energy=-45149.43445034781 stress="-0.04982651545280469 -7.289045330492654e-13 4.4359082576318943e-13 -7.289045330492654e-13 -0.05008881870231106 -3.1964464745213164e-13 4.4359082576318943e-13 -3.1964464745213164e-13 -0.049839612158126205" free_energy=-45149.43445034781 pbc="T T T"
In       2.61746727       4.53540418       8.91908825        0      -0.00309193      -0.00683226      -0.00110151
In      -0.08493893       3.82527980       6.64617115        1      -0.00309193       0.00683226       0.00110151
In       2.78734513       1.74850952      14.42880086        2       0.00309193      -0.00683226       0.00110151
In       5.48975133       1.03838514       1.13645855        3       0.00309193       0.00683226      -0.00110151
In       2.78734513       1.03838514       6.64617115        4       0.00309193       0.00683226       0.00110151
In       5.48975133       1.74850952       8.91908825        5       0.00309193      -0.00683226      -0.00110151
In       2.61746727       3.82527980       1.13645855        6      -0.00309193       0.00683226      -0.00110151
In      -0.08493893       4.53540418      14.42880086        7      -0.00309193      -0.00683226       0.00110151
In       2.60883304       4.23596384      12.69015692        8      -0.00404632       0.00510481      -0.00129247
In       5.31123924       4.12472014       2.87510249        9      -0.00404632      -0.00510481       0.00129247
In       2.79597936       1.44906918      10.65773219       10       0.00404632       0.00510481       0.00129247
In       0.09357316       1.33782548       4.90752722       11       0.00404632      -0.00510481      -0.00129247
In       2.79597936       1.33782548       2.87510249       12       0.00404632      -0.00510481       0.00129247
In       0.09357316       1.44906918      12.69015692       13       0.00404632       0.00510481      -0.00129247
In       2.60883304       4.12472014       4.90752722       14      -0.00404632      -0.00510481      -0.00129247
In       5.31123924       4.23596384      10.65773219       15      -0.00404632       0.00510481       0.00129247
O        4.53835438       5.09291790      12.42013582       16       0.00156554      -0.00186130      -0.00269135
O        1.83594818       3.26776609       3.14512359       17       0.00156554       0.00186130       0.00269135
O        0.86645802       2.30602323      10.92775330       18      -0.00156554      -0.00186130       0.00269135
O        3.56886422       0.48087143       4.63750611       19      -0.00156554       0.00186130      -0.00269135
O        0.86645802       0.48087143       3.14512359       20      -0.00156554       0.00186130       0.00269135
O        3.56886422       2.30602323      12.42013582       21      -0.00156554      -0.00186130      -0.00269135
O        4.53835438       3.26776609       4.63750611       22       0.00156554       0.00186130      -0.00269135
O        1.83594818       5.09291790      10.92775330       23       0.00156554      -0.00186130       0.00269135
O        3.81362188       3.02378362       9.70812336       24       0.00375884       0.00225728      -0.00017913
O        1.11121568       5.33690037       5.85713605       25       0.00375884      -0.00225728       0.00017913
O        1.59119052       0.23688896      13.63976575       26      -0.00375884       0.00225728       0.00017913
O        4.29359671       2.55000571       1.92549365       27      -0.00375884      -0.00225728      -0.00017913
O        1.59119052       2.55000571       5.85713605       28      -0.00375884      -0.00225728       0.00017913
O        4.29359671       0.23688896       9.70812336       29      -0.00375884       0.00225728      -0.00017913
O        3.81362188       5.33690037       1.92549365       30       0.00375884      -0.00225728      -0.00017913
O        1.11121568       3.02378362      13.63976575       31       0.00375884       0.00225728       0.00017913
O        3.39041360       3.81767006      14.76150826       32       0.00071008      -0.00023562      -0.00002998
O        0.68800740       4.54301392       0.80375115       33       0.00071008       0.00023562       0.00002998
O        2.01439880       1.03077540       8.58638085       34      -0.00071008      -0.00023562       0.00002998
O        4.71680499       1.75611926       6.97887856       35      -0.00071008       0.00023562      -0.00002998
O        2.01439880       1.75611926       0.80375115       36      -0.00071008       0.00023562       0.00002998
O        4.71680499       1.03077540      14.76150826       37      -0.00071008      -0.00023562      -0.00002998
O        3.39041360       4.54301392       6.97887856       38       0.00071008       0.00023562      -0.00002998
O        0.68800740       3.81767006       8.58638085       39       0.00071008      -0.00023562       0.00002998
