40
Lattice="5.779388472574184 -1.2000187016469394e-42 0.0 -3.603855593589138e-43 5.950025621910027 0.0 0.0 0.0 16.66621533960703" Properties=species:S:1:pos:R:3:spacegroup_kinds:I:1:forces:R:3 spacegroup="P 1" unit_cell=conventional occupancy="_JSON {\"0\": {\"In\": 1}, \"1\": {\"In\": 1}, \"2\": {\"In\": 1}, \"3\": {\"In\": 1}, \"4\": {\"In\": 1}, \"5\": {\"In\": 1}, \"6\": {\"In\": 1}, \"7\": {\"In\": 1}, \"8\": {\"In\": 1}, \"9\": {\"In\": 1}, \"10\": {\"In\": 1}, \"11\": {\"In\": 1}, \"12\": {\"In\": 1}, \"13\": {\"In\": 1}, \"14\": {\"In\": 1}, \"15\": {\"In\": 1}, \"16\": {\"O\": 1}, \"17\": {\"O\": 1}, \"18\": {\"O\": 1}, \"19\": {\"O\": 1}, \"20\": {\"O\": 1}, \"21\": {\"O\": 1}, \"22\": {\"O\": 1}, \"23\": {\"O\": 1}, \"24\": {\"O\": 1}, \"25\": {\"O\": 1}, \"26\": {\"O\": 1}, \"27\": {\"O\": 1}, \"28\": {\"O\": 1}, \"29\": {\"O\": 1}, \"30\": {\"O\": 1}, \"31\": {\"O\": 1}, \"32\": {\"O\": 1}, \"33\": {\"O\": 1}, \"34\": {\"O\": 1}, \"35\": {\"O\": 1}, \"36\": {\"O\": 1}, \"37\": {\"O\": 1}, \"38\": {\"O\": 1}, \"39\": {\"O\": 1}}" n_minim_iter=10 energy=-45149.072612297765 stress="0.0451380877165372 1.2388324053530609e-13 -1.950294496424928e-13 1.2388324053530609e-13 0.045140362388890846 3.9250576565926427e-13 -1.950294496424928e-13 3.9250576565926427e-13 0.04514055386792862" free_energy=-45149.072612297765 pbc="T T T"
In       2.86406589       4.77579193       9.53694709        0      -0.00752115       0.00353477      -0.00139385
In      -0.02562835       4.14924651       7.12926825        1      -0.00752115      -0.00353477       0.00139385
In       2.91532259       1.80077912      15.46237592        2       0.00752115       0.00353477       0.00139385
In       5.80501682       1.17423369       1.20383942        3       0.00752115      -0.00353477      -0.00139385
In       2.91532259       1.17423369       7.12926825        4       0.00752115      -0.00353477       0.00139385
In       5.80501682       1.80077912       9.53694709        5       0.00752115       0.00353477      -0.00139385
In       2.86406589       4.14924651       1.20383942        6      -0.00752115      -0.00353477      -0.00139385
In      -0.02562835       4.77579193      15.46237592        7      -0.00752115       0.00353477       0.00139385
In       2.84442683       4.41345252      13.62604472        8      -0.00202697       0.00207190       0.00219201
In       5.73412107       4.51158591       3.04017062        9      -0.00202697      -0.00207190      -0.00219201
In       2.93496164       1.43843971      11.37327829       10       0.00202697       0.00207190      -0.00219201
In       0.04526740       1.53657310       5.29293705       11       0.00202697      -0.00207190       0.00219201
In       2.93496164       1.53657310       3.04017062       12       0.00202697      -0.00207190      -0.00219201
In       0.04526740       1.43843971      13.62604472       13       0.00202697       0.00207190       0.00219201
In       2.84442683       4.51158591       5.29293705       14      -0.00202697      -0.00207190       0.00219201
In       5.73412107       4.41345252      11.37327829       15      -0.00202697       0.00207190      -0.00219201
O        4.94052360       5.18280677      13.30662721       16       0.00068885       0.00581799       0.00313154
O        2.05082936       3.74223167       3.35958813       17       0.00068885      -0.00581799      -0.00313154
O        0.83886488       2.20779395      11.69269580       18      -0.00068885       0.00581799      -0.00313154
O        3.72855911       0.76721886       4.97351954       19      -0.00068885      -0.00581799       0.00313154
O        0.83886488       0.76721886       3.35958813       20      -0.00068885      -0.00581799      -0.00313154
O        3.72855911       2.20779395      13.30662721       21      -0.00068885       0.00581799       0.00313154
O        4.94052360       3.74223167       4.97351954       22       0.00068885      -0.00581799       0.00313154
O        2.05082936       5.18280677      11.69269580       23       0.00068885       0.00581799      -0.00313154
O        4.06088309       3.13910181      10.42190871       24       0.00278803      -0.00202018      -0.00048613
O        1.17118886       5.78593662       6.24430663       25       0.00278803       0.00202018       0.00048613
O        1.71850538       0.16408900      14.57741430       26      -0.00278803      -0.00202018       0.00048613
O        4.60819962       2.81092381       2.08880104       27      -0.00278803       0.00202018      -0.00048613
O        1.71850538       2.81092381       6.24430663       28      -0.00278803       0.00202018       0.00048613
O        4.60819962       0.16408900      10.42190871       29      -0.00278803      -0.00202018      -0.00048613
O        4.06088309       5.78593662       2.08880104       30       0.00278803       0.00202018      -0.00048613
O        1.17118886       3.13910181      14.57741430       31       0.00278803      -0.00202018       0.00048613
O        3.73644711       3.92837469      15.81666736       32      -0.00070264       0.00052617      -0.00089274
O        0.84675287       4.99666374       0.84954797       33      -0.00070264      -0.00052617       0.00089274
O        2.04294136       0.95336188       9.18265564       34       0.00070264       0.00052617       0.00089274
O        4.93263560       2.02165093       7.48355969       35       0.00070264      -0.00052617      -0.00089274
O        2.04294136       2.02165093       0.84954797       36       0.00070264      -0.00052617       0.00089274
O        4.93263560       0.95336188      15.81666736       37       0.00070264       0.00052617      -0.00089274
O        3.73644711       4.99666374       7.48355969       38      -0.00070264      -0.00052617      -0.00089274
O        0.84675287       3.92837469       9.18265564       39      -0.00070264       0.00052617       0.00089274
