40
Lattice="5.246011771945416 -1.47739623550139e-42 1.791506558825323e-83 4.0683250522938015e-43 5.549685652917439 4.0734383884539995e-41 5.2114048567151115e-87 2.6633018412496553e-40 13.869125701431923" Properties=species:S:1:pos:R:3:spacegroup_kinds:I:1:forces:R:3 spacegroup="P 1" unit_cell=conventional occupancy="_JSON {\"0\": {\"In\": 1}, \"1\": {\"In\": 1}, \"2\": {\"In\": 1}, \"3\": {\"In\": 1}, \"4\": {\"In\": 1}, \"5\": {\"In\": 1}, \"6\": {\"In\": 1}, \"7\": {\"In\": 1}, \"8\": {\"In\": 1}, \"9\": {\"In\": 1}, \"10\": {\"In\": 1}, \"11\": {\"In\": 1}, \"12\": {\"In\": 1}, \"13\": {\"In\": 1}, \"14\": {\"In\": 1}, \"15\": {\"In\": 1}, \"16\": {\"O\": 1}, \"17\": {\"O\": 1}, \"18\": {\"O\": 1}, \"19\": {\"O\": 1}, \"20\": {\"O\": 1}, \"21\": {\"O\": 1}, \"22\": {\"O\": 1}, \"23\": {\"O\": 1}, \"24\": {\"O\": 1}, \"25\": {\"O\": 1}, \"26\": {\"O\": 1}, \"27\": {\"O\": 1}, \"28\": {\"O\": 1}, \"29\": {\"O\": 1}, \"30\": {\"O\": 1}, \"31\": {\"O\": 1}, \"32\": {\"O\": 1}, \"33\": {\"O\": 1}, \"34\": {\"O\": 1}, \"35\": {\"O\": 1}, \"36\": {\"O\": 1}, \"37\": {\"O\": 1}, \"38\": {\"O\": 1}, \"39\": {\"O\": 1}}" n_minim_iter=35 energy=-45141.7926297303 stress="-0.21438635025079752 4.251736401540128e-13 -3.15944767764398e-14 4.251736401540128e-13 -0.21428401336767705 -4.926012409908849e-13 -3.15944767764398e-14 -4.926012409908849e-13 -0.21422984054770278" free_energy=-45141.7926297303 pbc="T T T"
In       2.85968556       3.89881865       7.58484967        0       0.00156913      -0.00136976      -0.00137185
In       0.23667967       4.42570983       6.28427603        1       0.00156913       0.00136976       0.00137185
In       2.38632622       1.12397583      13.21883888        2      -0.00156913      -0.00136976       0.00137185
In       5.00933210       1.65086700       0.65028682        3      -0.00156913       0.00136976      -0.00137185
In       2.38632622       1.65086700       6.28427603        4      -0.00156913       0.00136976       0.00137185
In       5.00933210       1.12397583       7.58484967        5      -0.00156913      -0.00136976      -0.00137185
In       2.85968556       4.42570983       0.65028682        6       0.00156913       0.00136976      -0.00137185
In       0.23667967       3.89881865      13.21883888        7       0.00156913      -0.00136976       0.00137185
In       2.77045138       3.21497406      11.24898692        8       0.00108105       0.00417466       0.00357075
In       5.39345726       5.10955442       2.62013878        9       0.00108105      -0.00417466      -0.00357075
In       2.47556039       0.44013124       9.55470163       10      -0.00108105       0.00417466      -0.00357075
In      -0.14744549       2.33471159       4.31442407       11      -0.00108105      -0.00417466       0.00357075
In       2.47556039       2.33471159       2.62013878       12      -0.00108105      -0.00417466      -0.00357075
In      -0.14744549       0.44013124      11.24898692       13      -0.00108105       0.00417466       0.00357075
In       2.77045138       5.10955442       4.31442407       14       0.00108105      -0.00417466       0.00357075
In       5.39345726       3.21497406       9.55470163       15       0.00108105       0.00417466      -0.00357075
O        4.65244188       4.00844731      11.23118412       16       0.00177689       0.00055067       0.00153455
O        2.02943599       4.31608117       2.63794158       17       0.00177689      -0.00055067      -0.00153455
O        0.59356989       1.23360448       9.57250443       18      -0.00177689       0.00055067      -0.00153455
O        3.21657578       1.54123835       4.29662127       19      -0.00177689      -0.00055067       0.00153455
O        0.59356989       1.54123835       2.63794158       20      -0.00177689      -0.00055067      -0.00153455
O        3.21657578       1.23360448      11.23118412       21      -0.00177689       0.00055067       0.00153455
O        4.65244188       4.31608117       4.29662127       22       0.00177689      -0.00055067       0.00153455
O        2.02943599       4.00844731       9.57250443       23       0.00177689       0.00055067      -0.00153455
O        3.40716780       2.05410718       8.62863015       24      -0.00313155      -0.00128012       0.00378079
O        0.78416192       6.27042130       5.24049555       25      -0.00313155       0.00128012      -0.00378079
O        1.83884397      -0.72073564      12.17505840       26       0.00313155      -0.00128012      -0.00378079
O        4.46184986       3.49557847       1.69406730       27       0.00313155       0.00128012       0.00378079
O        1.83884397       3.49557847       5.24049555       28       0.00313155       0.00128012      -0.00378079
O        4.46184986      -0.72073564       8.62863015       29       0.00313155      -0.00128012       0.00378079
O        3.40716780       6.27042130       1.69406730       30      -0.00313155       0.00128012       0.00378079
O        0.78416192       2.05410718      12.17505840       31      -0.00313155      -0.00128012      -0.00378079
O        3.62992278       2.87674922      13.23022578       32       0.00155177      -0.00204926      -0.00401448
O        1.00691689       5.44777926       0.63889992       33       0.00155177       0.00204926       0.00401448
O        1.61608899       0.10190639       7.57346277       34      -0.00155177      -0.00204926       0.00401448
O        4.23909488       2.67293644       6.29566293       35      -0.00155177       0.00204926      -0.00401448
O        1.61608899       2.67293644       0.63889992       36      -0.00155177       0.00204926       0.00401448
O        4.23909488       0.10190639      13.23022578       37      -0.00155177      -0.00204926      -0.00401448
O        3.62992278       5.44777926       6.29566293       38       0.00155177       0.00204926      -0.00401448
O        1.00691689       2.87674922       7.57346277       39       0.00155177      -0.00204926       0.00401448
