40
Lattice="5.732181301538558 -9.888931149558821e-43 0.0 9.125503934719843e-43 5.896870706933756 0.0 0.0 0.0 16.569597828100296" Properties=species:S:1:pos:R:3:spacegroup_kinds:I:1:forces:R:3 spacegroup="P 1" unit_cell=conventional occupancy="_JSON {\"0\": {\"In\": 1}, \"1\": {\"In\": 1}, \"2\": {\"In\": 1}, \"3\": {\"In\": 1}, \"4\": {\"In\": 1}, \"5\": {\"In\": 1}, \"6\": {\"In\": 1}, \"7\": {\"In\": 1}, \"8\": {\"In\": 1}, \"9\": {\"In\": 1}, \"10\": {\"In\": 1}, \"11\": {\"In\": 1}, \"12\": {\"In\": 1}, \"13\": {\"In\": 1}, \"14\": {\"In\": 1}, \"15\": {\"In\": 1}, \"16\": {\"O\": 1}, \"17\": {\"O\": 1}, \"18\": {\"O\": 1}, \"19\": {\"O\": 1}, \"20\": {\"O\": 1}, \"21\": {\"O\": 1}, \"22\": {\"O\": 1}, \"23\": {\"O\": 1}, \"24\": {\"O\": 1}, \"25\": {\"O\": 1}, \"26\": {\"O\": 1}, \"27\": {\"O\": 1}, \"28\": {\"O\": 1}, \"29\": {\"O\": 1}, \"30\": {\"O\": 1}, \"31\": {\"O\": 1}, \"32\": {\"O\": 1}, \"33\": {\"O\": 1}, \"34\": {\"O\": 1}, \"35\": {\"O\": 1}, \"36\": {\"O\": 1}, \"37\": {\"O\": 1}, \"38\": {\"O\": 1}, \"39\": {\"O\": 1}}" n_minim_iter=11 energy=-45149.97640100046 stress="0.024175394776018138 -6.268739811194694e-13 -3.6019834942968247e-13 -6.268739811194694e-13 0.024252312670642227 -3.8099055611002485e-14 -3.6019834942968247e-13 -3.8099055611002485e-14 0.024221022379163796" free_energy=-45149.97640100046 pbc="T T T"
In       2.85824867       4.71013261       9.45896155        0      -0.00243740       0.00178582       0.00441873
In      -0.00784198       4.13517345       7.11063628        1      -0.00243740      -0.00178582      -0.00441873
In       2.87393263       1.76169726      15.39543519        2       0.00243740       0.00178582      -0.00441873
In       5.74002329       1.18673810       1.17416263        3       0.00243740      -0.00178582       0.00441873
In       2.87393263       1.18673810       7.11063628        4       0.00243740      -0.00178582      -0.00441873
In       5.74002329       1.76169726       9.45896155        5       0.00243740       0.00178582       0.00441873
In       2.85824867       4.13517345       1.17416263        6      -0.00243740      -0.00178582       0.00441873
In      -0.00784198       4.71013261      15.39543519        7      -0.00243740       0.00178582      -0.00441873
In       2.84201782       4.39302701      13.55544970        8       0.00370130      -0.00281497       0.00186410
In       5.70810848       4.45227905       3.01414812        9       0.00370130       0.00281497      -0.00186410
In       2.89016348       1.44459166      11.29894704       10      -0.00370130      -0.00281497      -0.00186410
In       0.02407283       1.50384370       5.27065079       11      -0.00370130       0.00281497       0.00186410
In       2.89016348       1.50384370       3.01414812       12      -0.00370130       0.00281497      -0.00186410
In       0.02407283       1.44459166      13.55544970       13      -0.00370130      -0.00281497       0.00186410
In       2.84201782       4.45227905       5.27065079       14       0.00370130       0.00281497       0.00186410
In       5.70810848       4.39302701      11.29894704       15       0.00370130      -0.00281497      -0.00186410
O        4.91809185       5.16832663      13.22373183       16       0.00435515       0.00400510       0.00535294
O        2.05200120       3.67697943       3.34586600       17       0.00435515      -0.00400510      -0.00535294
O        0.81408945       2.21989128      11.63066491       18      -0.00435515       0.00400510      -0.00535294
O        3.68018010       0.72854408       4.93893292       19      -0.00435515      -0.00400510       0.00535294
O        0.81408945       0.72854408       3.34586600       20      -0.00435515      -0.00400510      -0.00535294
O        3.68018010       2.21989128      13.22373183       21      -0.00435515       0.00400510       0.00535294
O        4.91809185       3.67697943       4.93893292       22       0.00435515      -0.00400510       0.00535294
O        2.05200120       5.16832663      11.63066491       23       0.00435515       0.00400510      -0.00535294
O        4.04254869       3.10713821      10.34759050       24      -0.00356175      -0.00725487      -0.00317644
O        1.17645804       5.73816786       6.22200732       25      -0.00356175       0.00725487       0.00317644
O        1.68963261       0.15870285      14.50680624       26       0.00356175      -0.00725487       0.00317644
O        4.55572326       2.78973250       2.06279159       27       0.00356175       0.00725487      -0.00317644
O        1.68963261       2.78973250       6.22200732       28       0.00356175       0.00725487       0.00317644
O        4.55572326       0.15870285      10.34759050       29       0.00356175      -0.00725487      -0.00317644
O        4.04254869       5.73816786       2.06279159       30      -0.00356175       0.00725487      -0.00317644
O        1.17645804       3.10713821      14.50680624       31      -0.00356175      -0.00725487       0.00317644
O        3.70725057       3.89338500      15.71152948       32       0.00353475       0.00090567      -0.00413042
O        0.84115992       4.95192106       0.85806835       33       0.00353475      -0.00090567       0.00413042
O        2.02493073       0.94494965       9.14286726       34      -0.00353475       0.00090567       0.00413042
O        4.89102138       2.00348570       7.42673056       35      -0.00353475      -0.00090567      -0.00413042
O        2.02493073       2.00348570       0.85806835       36      -0.00353475      -0.00090567       0.00413042
O        4.89102138       0.94494965      15.71152948       37      -0.00353475       0.00090567      -0.00413042
O        3.70725057       4.95192106       7.42673056       38       0.00353475      -0.00090567      -0.00413042
O        0.84115992       3.89338500       9.14286726       39       0.00353475       0.00090567       0.00413042
