40
Lattice="5.301824596827696 -1.4931143964507696e-42 1.810566569780291e-83 4.111608354653541e-43 5.608729293489201 4.116776092089999e-41 5.266849495290643e-87 2.6916369662429403e-40 14.016680666554938" Properties=species:S:1:pos:R:3:spacegroup_kinds:I:1:forces:R:3 spacegroup="P 1" unit_cell=conventional occupancy="_JSON {\"0\": {\"In\": 1}, \"1\": {\"In\": 1}, \"2\": {\"In\": 1}, \"3\": {\"In\": 1}, \"4\": {\"In\": 1}, \"5\": {\"In\": 1}, \"6\": {\"In\": 1}, \"7\": {\"In\": 1}, \"8\": {\"In\": 1}, \"9\": {\"In\": 1}, \"10\": {\"In\": 1}, \"11\": {\"In\": 1}, \"12\": {\"In\": 1}, \"13\": {\"In\": 1}, \"14\": {\"In\": 1}, \"15\": {\"In\": 1}, \"16\": {\"O\": 1}, \"17\": {\"O\": 1}, \"18\": {\"O\": 1}, \"19\": {\"O\": 1}, \"20\": {\"O\": 1}, \"21\": {\"O\": 1}, \"22\": {\"O\": 1}, \"23\": {\"O\": 1}, \"24\": {\"O\": 1}, \"25\": {\"O\": 1}, \"26\": {\"O\": 1}, \"27\": {\"O\": 1}, \"28\": {\"O\": 1}, \"29\": {\"O\": 1}, \"30\": {\"O\": 1}, \"31\": {\"O\": 1}, \"32\": {\"O\": 1}, \"33\": {\"O\": 1}, \"34\": {\"O\": 1}, \"35\": {\"O\": 1}, \"36\": {\"O\": 1}, \"37\": {\"O\": 1}, \"38\": {\"O\": 1}, \"39\": {\"O\": 1}}" n_minim_iter=35 energy=-45141.7926297303 stress="-0.21438635025079752 4.251736401540128e-13 -3.15944767764398e-14 4.251736401540128e-13 -0.21428401336767705 -4.926012409908849e-13 -3.15944767764398e-14 -4.926012409908849e-13 -0.21422984054770278" free_energy=-45141.7926297303 pbc="T T T"
In       2.89011003       3.94029856       7.66554562        0       0.00156913      -0.00136976      -0.00137185
In       0.23919773       4.47279538       6.35113505        1       0.00156913       0.00136976       0.00137185
In       2.41171457       1.13593391      13.35947538        2      -0.00156913      -0.00136976       0.00137185
In       5.06262687       1.66843073       0.65720528        3      -0.00156913       0.00136976      -0.00137185
In       2.41171457       1.66843073       6.35113505        4      -0.00156913       0.00136976       0.00137185
In       5.06262687       1.13593391       7.66554562        5      -0.00156913      -0.00136976      -0.00137185
In       2.89011003       4.47279538       0.65720528        6       0.00156913       0.00136976      -0.00137185
In       0.23919773       3.94029856      13.35947538        7       0.00156913      -0.00136976       0.00137185
In       2.79992648       3.24917848      11.36866598        8       0.00108105       0.00417466       0.00357075
In       5.45083878       5.16391546       2.64801469        9       0.00108105      -0.00417466      -0.00357075
In       2.50189812       0.44481384       9.65635502       10      -0.00108105       0.00417466      -0.00357075
In      -0.14901418       2.35955081       4.36032564       11      -0.00108105      -0.00417466       0.00357075
In       2.50189812       2.35955081       2.64801469       12      -0.00108105      -0.00417466      -0.00357075
In      -0.14901418       0.44481384      11.36866598       13      -0.00108105       0.00417466       0.00357075
In       2.79992648       5.16391546       4.36032564       14       0.00108105      -0.00417466       0.00357075
In       5.45083878       3.24917848       9.65635502       15       0.00108105       0.00417466      -0.00357075
O        4.70193966       4.05109356      11.35067377       16       0.00177689       0.00055067       0.00153455
O        2.05102736       4.36200038       2.66600689       17       0.00177689      -0.00055067      -0.00153455
O        0.59988494       1.24672892       9.67434722       18      -0.00177689       0.00055067      -0.00153455
O        3.25079724       1.55763573       4.34233344       19      -0.00177689      -0.00055067       0.00153455
O        0.59988494       1.55763573       2.66600689       20      -0.00177689      -0.00055067      -0.00153455
O        3.25079724       1.24672892      11.35067377       21      -0.00177689       0.00055067       0.00153455
O        4.70193966       4.36200038       4.34233344       22       0.00177689      -0.00055067       0.00153455
O        2.05102736       4.05109356       9.67434722       23       0.00177689       0.00055067      -0.00153455
O        3.44341699       2.07596103       8.72043098       24      -0.00313155      -0.00128012       0.00378079
O        0.79250469       6.33713291       5.29624969       25      -0.00313155       0.00128012      -0.00378079
O        1.85840761      -0.72840362      12.30459002       26       0.00313155      -0.00128012      -0.00378079
O        4.50931991       3.53276827       1.71209065       27       0.00313155       0.00128012       0.00378079
O        1.85840761       3.53276827       5.29624969       28       0.00313155       0.00128012      -0.00378079
O        4.50931991      -0.72840362       8.72043098       29       0.00313155      -0.00128012       0.00378079
O        3.44341699       6.33713291       1.71209065       30      -0.00313155       0.00128012       0.00378079
O        0.79250469       2.07596103      12.30459002       31      -0.00313155      -0.00128012      -0.00378079
O        3.66854188       2.90735523      13.37098343       32       0.00155177      -0.00204926      -0.00401448
O        1.01762958       5.50573871       0.64569724       33       0.00155177       0.00204926       0.00401448
O        1.63328272       0.10299058       7.65403757       34      -0.00155177      -0.00204926       0.00401448
O        4.28419502       2.70137406       6.36264309       35      -0.00155177       0.00204926      -0.00401448
O        1.63328272       2.70137406       0.64569724       36      -0.00155177       0.00204926       0.00401448
O        4.28419502       0.10299058      13.37098343       37      -0.00155177      -0.00204926      -0.00401448
O        3.66854188       5.50573871       6.36264309       38       0.00155177       0.00204926      -0.00401448
O        1.01762958       2.90735523       7.65403757       39       0.00155177      -0.00204926       0.00401448
