40
Lattice="5.383940099642497 -9.297047710522489e-43 -2.5996882866487826e-85 9.019823441777991e-43 5.223398936085996 -1.1453187549330665e-42 1.2768299433054383e-84 3.249786083570458e-42 14.82113961577538" Properties=species:S:1:pos:R:3:spacegroup_kinds:I:1:forces:R:3 spacegroup="P 1" unit_cell=conventional occupancy="_JSON {\"0\": {\"In\": 1}, \"1\": {\"In\": 1}, \"2\": {\"In\": 1}, \"3\": {\"In\": 1}, \"4\": {\"In\": 1}, \"5\": {\"In\": 1}, \"6\": {\"In\": 1}, \"7\": {\"In\": 1}, \"8\": {\"In\": 1}, \"9\": {\"In\": 1}, \"10\": {\"In\": 1}, \"11\": {\"In\": 1}, \"12\": {\"In\": 1}, \"13\": {\"In\": 1}, \"14\": {\"In\": 1}, \"15\": {\"In\": 1}, \"16\": {\"O\": 1}, \"17\": {\"O\": 1}, \"18\": {\"O\": 1}, \"19\": {\"O\": 1}, \"20\": {\"O\": 1}, \"21\": {\"O\": 1}, \"22\": {\"O\": 1}, \"23\": {\"O\": 1}, \"24\": {\"O\": 1}, \"25\": {\"O\": 1}, \"26\": {\"O\": 1}, \"27\": {\"O\": 1}, \"28\": {\"O\": 1}, \"29\": {\"O\": 1}, \"30\": {\"O\": 1}, \"31\": {\"O\": 1}, \"32\": {\"O\": 1}, \"33\": {\"O\": 1}, \"34\": {\"O\": 1}, \"35\": {\"O\": 1}, \"36\": {\"O\": 1}, \"37\": {\"O\": 1}, \"38\": {\"O\": 1}, \"39\": {\"O\": 1}}" n_minim_iter=1 energy=-45140.366508398336 stress="-0.3300773265475406 5.215195605837368e-13 1.7233338861520985e-14 5.215195605837368e-13 -0.3133405483727388 -5.048718225551107e-13 1.7233338861520985e-14 -5.048718225551107e-13 -0.3131042168373145" free_energy=-45140.366508398336 pbc="T T T"
In       2.80373240       3.83182559       8.33486167        0      -0.06533423      -0.01135372      -0.09339708
In       0.11176235       4.00327281       6.48627794        1      -0.06533423       0.01135372       0.09339708
In       2.58020770       1.22012613      13.89684775        2       0.06533423      -0.01135372       0.09339708
In       5.27217775       1.39157334       0.92429186        3       0.06533423       0.01135372      -0.09339708
In       2.58020770       1.39157334       6.48627794        4       0.06533423       0.01135372       0.09339708
In       5.27217775       1.22012613       8.33486167        5       0.06533423      -0.01135372      -0.09339708
In       2.80373240       4.00327281       0.92429186        6      -0.06533423       0.01135372      -0.09339708
In       0.11176235       3.83182559      13.89684775        7      -0.06533423      -0.01135372       0.09339708
In       2.76766986       3.56146141      12.08983364        8      -0.01855097      -0.15162190       0.20877462
In       5.45963991       4.27363699       2.73130598        9      -0.01855097       0.15162190      -0.20877462
In       2.61627024       0.94976194      10.14187579       10       0.01855097      -0.15162190      -0.20877462
In      -0.07569981       1.66193752       4.67926383       11       0.01855097       0.15162190       0.20877462
In       2.61627024       1.66193752       2.73130598       12       0.01855097       0.15162190      -0.20877462
In      -0.07569981       0.94976194      12.08983364       13       0.01855097      -0.15162190       0.20877462
In       2.76766986       4.27363699       4.67926383       14      -0.01855097       0.15162190       0.20877462
In       5.45963991       3.56146141      10.14187579       15      -0.01855097      -0.15162190      -0.20877462
O        4.70055321       4.19306716      11.90502520       16      -0.04066994       0.01426287      -0.12068016
O        2.00858316       3.64203125       2.91611442       17      -0.04066994      -0.01426287       0.12068016
O        0.68338689       1.58136769      10.32668423       18       0.04066994       0.01426287       0.12068016
O        3.37535694       1.03033178       4.49445539       19       0.04066994      -0.01426287      -0.12068016
O        0.68338689       1.03033178       2.91611442       20       0.04066994      -0.01426287       0.12068016
O        3.37535694       1.58136769      11.90502520       21       0.04066994       0.01426287      -0.12068016
O        4.70055321       3.64203125       4.49445539       22      -0.04066994      -0.01426287      -0.12068016
O        2.00858316       4.19306716      10.32668423       23      -0.04066994       0.01426287       0.12068016
O        3.82806964       2.41694970       9.35468146       24      -0.10724234       0.00846659      -0.02498405
O        1.13609959       5.41814870       5.46645815       25      -0.10724234      -0.00846659       0.02498405
O        1.55587046      -0.19474976      12.87702796       26       0.10724234       0.00846659       0.02498405
O        4.24784051       2.80644923       1.94411166       27       0.10724234      -0.00846659      -0.02498405
O        1.55587046       2.80644923       5.46645815       28       0.10724234      -0.00846659       0.02498405
O        4.24784051      -0.19474976       9.35468146       29       0.10724234       0.00846659      -0.02498405
O        3.82806964       5.41814870       1.94411166       30      -0.10724234      -0.00846659      -0.02498405
O        1.13609959       2.41694970      12.87702796       31      -0.10724234       0.00846659       0.02498405
O        3.58374515       3.10884965      14.05838979       32      -0.00382743      -0.03600649       0.02495946
O        0.89177510       4.72624875       0.76274983       33      -0.00382743       0.03600649      -0.02495946
O        1.80019495       0.49715018       8.17331963       34       0.00382743      -0.03600649      -0.02495946
O        4.49216499       2.11454928       6.64781998       35       0.00382743       0.03600649       0.02495946
O        1.80019495       2.11454928       0.76274983       36       0.00382743       0.03600649      -0.02495946
O        4.49216499       0.49715018      14.05838979       37       0.00382743      -0.03600649       0.02495946
O        3.58374515       4.72624875       6.64781998       38      -0.00382743       0.03600649       0.02495946
O        0.89177510       3.10884965       8.17331963       39      -0.00382743      -0.03600649      -0.02495946
40
Lattice="5.409408401371426 -9.380015582456831e-43 -1.3067609071256745e-83 8.963169734964734e-43 5.211346782386833 6.721137418237795e-41 1.1616982486724565e-84 1.9697429376091534e-40 14.785474586183156" Properties=species:S:1:pos:R:3:spacegroup_kinds:I:1:forces:R:3 spacegroup="P 1" unit_cell=conventional occupancy="_JSON {\"0\": {\"In\": 1}, \"1\": {\"In\": 1}, \"2\": {\"In\": 1}, \"3\": {\"In\": 1}, \"4\": {\"In\": 1}, \"5\": {\"In\": 1}, \"6\": {\"In\": 1}, \"7\": {\"In\": 1}, \"8\": {\"In\": 1}, \"9\": {\"In\": 1}, \"10\": {\"In\": 1}, \"11\": {\"In\": 1}, \"12\": {\"In\": 1}, \"13\": {\"In\": 1}, \"14\": {\"In\": 1}, \"15\": {\"In\": 1}, \"16\": {\"O\": 1}, \"17\": {\"O\": 1}, \"18\": {\"O\": 1}, \"19\": {\"O\": 1}, \"20\": {\"O\": 1}, \"21\": {\"O\": 1}, \"22\": {\"O\": 1}, \"23\": {\"O\": 1}, \"24\": {\"O\": 1}, \"25\": {\"O\": 1}, \"26\": {\"O\": 1}, \"27\": {\"O\": 1}, \"28\": {\"O\": 1}, \"29\": {\"O\": 1}, \"30\": {\"O\": 1}, \"31\": {\"O\": 1}, \"32\": {\"O\": 1}, \"33\": {\"O\": 1}, \"34\": {\"O\": 1}, \"35\": {\"O\": 1}, \"36\": {\"O\": 1}, \"37\": {\"O\": 1}, \"38\": {\"O\": 1}, \"39\": {\"O\": 1}}" n_minim_iter=2 energy=-45140.38514996436 stress="-0.3165182815915008 -1.1484648510999226e-13 8.287437104411172e-13 -1.1484648510999226e-13 -0.3157139478617943 -8.688148158760201e-14 8.287437104411172e-13 -8.688148158760201e-14 -0.31584566509788026" free_energy=-45140.38514996436 pbc="T T T"
In       2.81692909       3.82297286       8.31471109        0      -0.12843850      -0.07490369      -0.09648624
In       0.11222489       3.99404731       6.47076349        1      -0.12843850       0.07490369       0.09648624
In       2.59247931       1.21729947      13.86350079        2       0.12843850      -0.07490369       0.09648624
In       5.29718351       1.38837392       0.92197380        3       0.12843850       0.07490369      -0.09648624
In       2.59247931       1.38837392       6.47076349        4       0.12843850       0.07490369       0.09648624
In       5.29718351       1.21729947       8.31471109        5       0.12843849      -0.07490369      -0.09648624
In       2.81692909       3.99404731       0.92197380        6      -0.12843850       0.07490369      -0.09648624
In       0.11222489       3.82297286      13.86350079        7      -0.12843849      -0.07490369       0.09648624
In       2.78074332       3.55309149      12.06095098        8       0.04727628      -0.09001200       0.23642780
In       5.48544752       4.26392869       2.72452361        9       0.04727628       0.09001200      -0.23642780
In       2.62866508       0.94741809      10.11726090       10      -0.04727628      -0.09001200      -0.23642780
In      -0.07603912       1.65825530       4.66821369       11      -0.04727628       0.09001200       0.23642780
In       2.62866508       1.65825530       2.72452361       12      -0.04727628       0.09001200      -0.23642780
In      -0.07603912       0.94741809      12.06095098       13      -0.04727628      -0.09001200       0.23642780
In       2.78074332       4.26392869       4.66821369       14       0.04727628       0.09001200       0.23642780
In       5.48544752       3.55309149      10.11726090       15       0.04727628      -0.09001200      -0.23642780
O        4.72274763       4.18340667      11.87625609       16      -0.12762895      -0.04581286      -0.09657141
O        2.01804343       3.63361351       2.90921850       17      -0.12762895       0.04581286       0.09657141
O        0.68666077       1.57773328      10.30195579       18       0.12762895      -0.04581286       0.09657141
O        3.39136498       1.02794011       4.48351879       19       0.12762895       0.04581286      -0.09657141
O        0.68666077       1.02794011       2.90921850       20       0.12762895       0.04581286       0.09657141
O        3.39136498       1.57773328      11.87625609       21       0.12762895      -0.04581286      -0.09657141
O        4.72274763       3.63361351       4.48351879       22      -0.12762895       0.04581286      -0.09657141
O        2.01804343       4.18340667      10.30195579       23      -0.12762895      -0.04581286       0.09657141
O        3.84606945       2.41138149       9.33214560       24      -0.07575595      -0.00313749      -0.01643133
O        1.14136525       5.40563868       5.45332899       25      -0.07575595       0.00313749       0.01643133
O        1.56333895      -0.19429190      12.84606628       26       0.07575595      -0.00313749       0.01643133
O        4.26804315       2.79996529       1.93940831       27       0.07575595       0.00313749      -0.01643133
O        1.56333895       2.79996529       5.45332899       28       0.07575595       0.00313749       0.01643133
O        4.26804315      -0.19429190       9.33214560       29       0.07575595      -0.00313749      -0.01643133
O        3.84606945       5.40563868       1.93940831       30      -0.07575595       0.00313749      -0.01643133
O        1.14136525       2.41138149      12.84606628       31      -0.07575595      -0.00313749       0.01643133
O        3.60069390       3.10164028      14.02458530       32       0.03683309      -0.02397963       0.01970081
O        0.89598970       4.71537989       0.76088928       33       0.03683309       0.02397963      -0.01970081
O        1.80871450       0.49596689       8.15362658       34      -0.03683309      -0.02397963      -0.01970081
O        4.51341870       2.10970650       6.63184801       35      -0.03683309       0.02397963       0.01970081
O        1.80871450       2.10970650       0.76088928       36      -0.03683309       0.02397963      -0.01970081
O        4.51341870       0.49596689      14.02458530       37      -0.03683309      -0.02397963       0.01970081
O        3.60069390       4.71537989       6.63184801       38       0.03683309       0.02397963       0.01970081
O        0.89598970       3.10164028       8.15362658       39       0.03683309      -0.02397963      -0.01970081
40
Lattice="5.419593021101847 -9.399112636413903e-43 -1.345726332603058e-83 8.944329924859953e-43 5.2013710261289186 6.965046532089335e-41 1.1572935472034857e-84 2.0351866915653565e-40 14.785993298707973" Properties=species:S:1:pos:R:3:spacegroup_kinds:I:1:forces:R:3 spacegroup="P 1" unit_cell=conventional occupancy="_JSON {\"0\": {\"In\": 1}, \"1\": {\"In\": 1}, \"2\": {\"In\": 1}, \"3\": {\"In\": 1}, \"4\": {\"In\": 1}, \"5\": {\"In\": 1}, \"6\": {\"In\": 1}, \"7\": {\"In\": 1}, \"8\": {\"In\": 1}, \"9\": {\"In\": 1}, \"10\": {\"In\": 1}, \"11\": {\"In\": 1}, \"12\": {\"In\": 1}, \"13\": {\"In\": 1}, \"14\": {\"In\": 1}, \"15\": {\"In\": 1}, \"16\": {\"O\": 1}, \"17\": {\"O\": 1}, \"18\": {\"O\": 1}, \"19\": {\"O\": 1}, \"20\": {\"O\": 1}, \"21\": {\"O\": 1}, \"22\": {\"O\": 1}, \"23\": {\"O\": 1}, \"24\": {\"O\": 1}, \"25\": {\"O\": 1}, \"26\": {\"O\": 1}, \"27\": {\"O\": 1}, \"28\": {\"O\": 1}, \"29\": {\"O\": 1}, \"30\": {\"O\": 1}, \"31\": {\"O\": 1}, \"32\": {\"O\": 1}, \"33\": {\"O\": 1}, \"34\": {\"O\": 1}, \"35\": {\"O\": 1}, \"36\": {\"O\": 1}, \"37\": {\"O\": 1}, \"38\": {\"O\": 1}, \"39\": {\"O\": 1}}" n_minim_iter=3 energy=-45140.4029829026 stress="-0.31075508412056146 4.1427243492905097e-13 -4.095206377680642e-13 4.1427243492905097e-13 -0.3166128574311237 3.9090007619209386e-13 -4.095206377680642e-13 3.9090007619209386e-13 -0.3091248525554075" free_energy=-45140.4029829026 pbc="T T T"
In       2.81793621       3.81316522       8.31187446        0      -0.00761592      -0.03744077       0.04196923
In       0.10813970       3.98889132       6.47411884        1      -0.00761592       0.03744077      -0.04196923
In       2.60165681       1.21247970      13.86711549        2       0.00761592      -0.03744077      -0.04196923
In       5.31145332       1.38820581       0.91887781        3       0.00761592       0.03744077       0.04196923
In       2.60165681       1.38820581       6.47411884        4       0.00761592       0.03744077      -0.04196923
In       5.31145332       1.21247970       8.31187446        5       0.00761592      -0.03744077       0.04196923
In       2.81793621       3.98889132       0.91887781        6      -0.00761592       0.03744077       0.04196923
In       0.10813970       3.81316522      13.86711549        7      -0.00761592      -0.03744077      -0.04196923
In       2.78760620       3.54344550      12.06906118        8      -0.05046922      -0.01040849      -0.00388208
In       5.49740271       4.25861104       2.71693211        9      -0.05046922       0.01040849       0.00388208
In       2.63198682       0.94275998      10.10992876       10       0.05046922      -0.01040849       0.00388208
In      -0.07780969       1.65792553       4.67606454       11       0.05046922       0.01040849      -0.00388208
In       2.63198682       1.65792553       2.71693211       12       0.05046922       0.01040849       0.00388208
In      -0.07780969       0.94275998      12.06906118       13       0.05046922      -0.01040849      -0.00388208
In       2.78760620       4.25861104       4.67606454       14      -0.05046922       0.01040849      -0.00388208
In       5.49740271       3.54344550      10.10992876       15      -0.05046922      -0.01040849       0.00388208
O        4.72734387       4.17385333      11.87357071       16      -0.02164915      -0.10115332      -0.12446070
O        2.01754736       3.62820320       2.91242259       17      -0.02164915       0.10115332       0.12446070
O        0.69224915       1.57316782      10.30541924       18       0.02164915      -0.10115332       0.12446070
O        3.40204566       1.02751769       4.48057406       19       0.02164915       0.10115332      -0.12446070
O        0.69224915       1.02751769       2.91242259       20       0.02164915       0.10115332       0.12446070
O        3.40204566       1.57316782      11.87357071       21       0.02164915      -0.10115332      -0.12446070
O        4.72734387       3.62820320       4.48057406       22      -0.02164915       0.10115332      -0.12446070
O        2.01754736       4.17385333      10.30541924       23      -0.02164915      -0.10115332       0.12446070
O        3.85085060       2.40665172       9.33194995       24       0.02201146      -0.02985276      -0.03382720
O        1.14105409       5.39540482       5.45404335       25       0.02201146       0.02985276       0.03382720
O        1.56874242      -0.19403380      12.84704000       26      -0.02201146      -0.02985276       0.03382720
O        4.27853893       2.79471931       1.93895330       27      -0.02201146       0.02985276      -0.03382720
O        1.56874242       2.79471931       5.45404335       28      -0.02201146       0.02985276       0.03382720
O        4.27853893      -0.19403380       9.33194995       29      -0.02201146      -0.02985276      -0.03382720
O        3.85085060       5.39540482       1.93895330       30       0.02201146       0.02985276      -0.03382720
O        1.14105409       2.40665172      12.84704000       31       0.02201146      -0.02985276       0.03382720
O        3.60872961       3.09494053      14.02570978       32      -0.02336201      -0.07069285       0.06977140
O        0.89893310       4.70711601       0.76028352       33      -0.02336201       0.07069285      -0.06977140
O        1.81086341       0.49425502       8.15328017       34       0.02336201      -0.07069285      -0.06977140
O        4.52065992       2.10643049       6.63271313       35       0.02336201       0.07069285       0.06977140
O        1.81086341       2.10643049       0.76028352       36       0.02336201       0.07069285      -0.06977140
O        4.52065992       0.49425502      14.02570978       37       0.02336201      -0.07069285       0.06977140
O        3.60872961       4.70711601       6.63271313       38      -0.02336201       0.07069285       0.06977140
O        0.89893310       3.09494053       8.15328017       39      -0.02336201      -0.07069285      -0.06977140
40
Lattice="5.42117444490708 -9.40694563565736e-43 -1.6752345795963577e-83 8.956593359189971e-43 5.211318800930675 8.803279736965876e-41 1.0435523308902933e-84 2.54564246110566e-40 14.75346360880507" Properties=species:S:1:pos:R:3:spacegroup_kinds:I:1:forces:R:3 spacegroup="P 1" unit_cell=conventional occupancy="_JSON {\"0\": {\"In\": 1}, \"1\": {\"In\": 1}, \"2\": {\"In\": 1}, \"3\": {\"In\": 1}, \"4\": {\"In\": 1}, \"5\": {\"In\": 1}, \"6\": {\"In\": 1}, \"7\": {\"In\": 1}, \"8\": {\"In\": 1}, \"9\": {\"In\": 1}, \"10\": {\"In\": 1}, \"11\": {\"In\": 1}, \"12\": {\"In\": 1}, \"13\": {\"In\": 1}, \"14\": {\"In\": 1}, \"15\": {\"In\": 1}, \"16\": {\"O\": 1}, \"17\": {\"O\": 1}, \"18\": {\"O\": 1}, \"19\": {\"O\": 1}, \"20\": {\"O\": 1}, \"21\": {\"O\": 1}, \"22\": {\"O\": 1}, \"23\": {\"O\": 1}, \"24\": {\"O\": 1}, \"25\": {\"O\": 1}, \"26\": {\"O\": 1}, \"27\": {\"O\": 1}, \"28\": {\"O\": 1}, \"29\": {\"O\": 1}, \"30\": {\"O\": 1}, \"31\": {\"O\": 1}, \"32\": {\"O\": 1}, \"33\": {\"O\": 1}, \"34\": {\"O\": 1}, \"35\": {\"O\": 1}, \"36\": {\"O\": 1}, \"37\": {\"O\": 1}, \"38\": {\"O\": 1}, \"39\": {\"O\": 1}}" n_minim_iter=4 energy=-45140.406811660316 stress="-0.3098369974012342 7.065667601404549e-13 1.6644794708542547e-13 7.065667601404549e-13 -0.31180812581413114 1.2493208435344637e-13 1.6644794708542547e-13 1.2493208435344637e-13 -0.312454436564233" free_energy=-45140.406811660316 pbc="T T T"
In       2.81783443       3.81987874       8.29297801        0      -0.00310082      -0.02785852       0.08013965
In       0.10724721       3.99709946       6.46048559        1      -0.00310082       0.02785852      -0.08013965
In       2.60334001       1.21421934      13.83721740        2       0.00310082      -0.02785852      -0.08013965
In       5.31392723       1.39144006       0.91624621        3       0.00310082       0.02785852       0.08013965
In       2.60334001       1.39144006       6.46048559        4       0.00310082       0.02785852      -0.08013965
In       5.31392723       1.21421934       8.29297801        5       0.00310082      -0.02785852       0.08013965
In       2.81783443       3.99709946       0.91624621        6      -0.00310082       0.02785852       0.08013965
In       0.10724721       3.81987874      13.83721740        7      -0.00310082      -0.02785852      -0.08013965
In       2.78868459       3.54958502      12.04414689        8      -0.05529164      -0.05324072      -0.02268933
In       5.49927182       4.26739318       2.70931672        9      -0.05529164       0.05324072       0.02268933
In       2.63248985       0.94392562      10.08604853       10       0.05529164      -0.05324072       0.02268933
In      -0.07809737       1.66173378       4.66741508       11       0.05529164       0.05324072      -0.02268933
In       2.63248985       1.66173378       2.70931672       12       0.05529164       0.05324072       0.02268933
In      -0.07809737       0.94392562      12.04414689       13       0.05529164      -0.05324072      -0.02268933
In       2.78868459       4.26739318       4.66741508       14      -0.05529164       0.05324072      -0.02268933
In       5.49927182       3.54958502      10.08604853       15      -0.05529164      -0.05324072       0.02268933
O        4.72778286       4.18136799      11.84660092       16      -0.00115469      -0.06054296      -0.11158784
O        2.01719564       3.63561021       2.90686268       17      -0.00115469       0.06054296       0.11158784
O        0.69339159       1.57570859      10.28359449       18       0.00115469      -0.06054296       0.11158784
O        3.40397881       1.02995081       4.46986912       19       0.00115469       0.06054296      -0.11158784
O        0.69339159       1.02995081       2.90686268       20       0.00115469       0.06054296       0.11158784
O        3.40397881       1.57570859      11.84660092       21       0.00115469      -0.06054296      -0.11158784
O        4.72778286       3.63561021       4.46986912       22      -0.00115469       0.06054296      -0.11158784
O        2.01719564       4.18136799      10.28359449       23      -0.00115469      -0.06054296       0.11158784
O        3.85147260       2.41118908       9.31125729       24       0.03073882      -0.02465152      -0.03102931
O        1.14088538       5.40578913       5.44220632       25       0.03073882       0.02465152       0.03102931
O        1.56970184      -0.19447032      12.81893813       26      -0.03073882      -0.02465152       0.03102931
O        4.28028907       2.80012973       1.93452548       27      -0.03073882       0.02465152      -0.03102931
O        1.56970184       2.80012973       5.44220632       28      -0.03073882       0.02465152       0.03102931
O        4.28028907      -0.19447032       9.31125729       29      -0.03073882      -0.02465152      -0.03102931
O        3.85147260       5.40578913       1.93452548       30       0.03073882       0.02465152      -0.03102931
O        1.14088538       2.41118908      12.81893813       31       0.03073882      -0.02465152       0.03102931
O        3.61001172       3.10059215      13.99508926       32      -0.02197261      -0.09628056       0.06302598
O        0.89942450       4.71638605       0.75837435       33      -0.02197261       0.09628056      -0.06302598
O        1.81116272       0.49493275       8.13510615       34       0.02197261      -0.09628056      -0.06302598
O        4.52174994       2.11072665       6.61835746       35       0.02197261       0.09628056       0.06302598
O        1.81116272       2.11072665       0.75837435       36       0.02197261       0.09628056      -0.06302598
O        4.52174994       0.49493275      13.99508926       37       0.02197261      -0.09628056       0.06302598
O        3.61001172       4.71638605       6.61835746       38      -0.02197261       0.09628056       0.06302598
O        0.89942450       3.10059215       8.13510615       39      -0.02197261      -0.09628056      -0.06302598
40
Lattice="5.409917269459965 -9.38948557003421e-43 -1.7239349891505204e-83 8.964370679138316e-43 5.216851994260825 9.058550628226839e-41 1.0721288431763364e-84 2.616863907794961e-40 14.76848256414894" Properties=species:S:1:pos:R:3:spacegroup_kinds:I:1:forces:R:3 spacegroup="P 1" unit_cell=conventional occupancy="_JSON {\"0\": {\"In\": 1}, \"1\": {\"In\": 1}, \"2\": {\"In\": 1}, \"3\": {\"In\": 1}, \"4\": {\"In\": 1}, \"5\": {\"In\": 1}, \"6\": {\"In\": 1}, \"7\": {\"In\": 1}, \"8\": {\"In\": 1}, \"9\": {\"In\": 1}, \"10\": {\"In\": 1}, \"11\": {\"In\": 1}, \"12\": {\"In\": 1}, \"13\": {\"In\": 1}, \"14\": {\"In\": 1}, \"15\": {\"In\": 1}, \"16\": {\"O\": 1}, \"17\": {\"O\": 1}, \"18\": {\"O\": 1}, \"19\": {\"O\": 1}, \"20\": {\"O\": 1}, \"21\": {\"O\": 1}, \"22\": {\"O\": 1}, \"23\": {\"O\": 1}, \"24\": {\"O\": 1}, \"25\": {\"O\": 1}, \"26\": {\"O\": 1}, \"27\": {\"O\": 1}, \"28\": {\"O\": 1}, \"29\": {\"O\": 1}, \"30\": {\"O\": 1}, \"31\": {\"O\": 1}, \"32\": {\"O\": 1}, \"33\": {\"O\": 1}, \"34\": {\"O\": 1}, \"35\": {\"O\": 1}, \"36\": {\"O\": 1}, \"37\": {\"O\": 1}, \"38\": {\"O\": 1}, \"39\": {\"O\": 1}}" n_minim_iter=5 energy=-45140.419185991566 stress="-0.31357332147080513 4.641410671485616e-13 -9.404540280703248e-13 4.641410671485616e-13 -0.3082028520957178 4.76801871692188e-13 -9.404540280703248e-13 4.76801871692188e-13 -0.30795758215027774" free_energy=-45140.419185991566 pbc="T T T"
In       2.80936662       3.82105800       8.30380578        0       0.03011612       0.00953966       0.06882937
In       0.10440799       4.00421999       6.46467678        1       0.03011612      -0.00953966      -0.06882937
In       2.60055065       1.21263201      13.84891807        2      -0.03011612       0.00953966      -0.06882937
In       5.30550928       1.39579399       0.91956450        3      -0.03011612      -0.00953966       0.06882937
In       2.60055065       1.39579399       6.46467678        4      -0.03011612      -0.00953966      -0.06882937
In       5.30550928       1.21263201       8.30380578        5      -0.03011612       0.00953966       0.06882937
In       2.80936662       4.00421999       0.91956450        6       0.03011612      -0.00953966       0.06882937
In       0.10440799       3.82105800      13.84891807        7       0.03011612       0.00953966      -0.06882937
In       2.78024077       3.54806211      12.06015574        8       0.00922876      -0.07224955      -0.01255164
In       5.48519941       4.27721588       2.70832683        9       0.00922876       0.07224955       0.01255164
In       2.62967650       0.93963611      10.09256811       10      -0.00922876      -0.07224955       0.01255164
In      -0.07528214       1.66878988       4.67591445       11      -0.00922876       0.07224955      -0.01255164
In       2.62967650       1.66878988       2.70832683       12      -0.00922876       0.07224955       0.01255164
In      -0.07528214       0.93963611      12.06015574       13      -0.00922876      -0.07224955      -0.01255164
In       2.78024077       4.27721588       4.67591445       14       0.00922876       0.07224955      -0.01255164
In       5.48519941       3.54806211      10.09256811       15       0.00922876      -0.07224955       0.01255164
O        4.71556910       4.18149426      11.84985182       16       0.02362947       0.00666711       0.03960357
O        2.01061047       3.64378373       2.91863074       17       0.02362947      -0.00666711      -0.03960357
O        0.69434817       1.57306826      10.30287202       18      -0.02362947       0.00666711      -0.03960357
O        3.39930680       1.03535773       4.46561054       19      -0.02362947      -0.00666711       0.03960357
O        0.69434817       1.03535773       2.91863074       20      -0.02362947      -0.00666711      -0.03960357
O        3.39930680       1.57306826      11.84985182       21      -0.02362947       0.00666711       0.03960357
O        4.71556910       3.64378373       4.46561054       22       0.02362947      -0.00666711       0.03960357
O        2.01061047       4.18149426      10.30287202       23       0.02362947       0.00666711      -0.03960357
O        3.84336051       2.41229832       9.31850538       24       0.03608344      -0.07434841       0.00170405
O        1.13840188       5.41297967       5.44997718       25       0.03608344       0.07434841      -0.00170405
O        1.56655676      -0.19612768      12.83421846       26      -0.03608344      -0.07434841      -0.00170405
O        4.27151539       2.80455367       1.93426410       27      -0.03608344       0.07434841       0.00170405
O        1.56655676       2.80455367       5.44997718       28      -0.03608344       0.07434841      -0.00170405
O        4.27151539      -0.19612768       9.31850538       29      -0.03608344      -0.07434841       0.00170405
O        3.84336051       5.41297967       1.93426410       30       0.03608344       0.07434841       0.00170405
O        1.13840188       2.41229832      12.83421846       31       0.03608344      -0.07434841      -0.00170405
O        3.60174570       3.09778612      14.01349134       32      -0.01850664      -0.08397497       0.01755926
O        0.89678706       4.72749187       0.75499122       33      -0.01850664       0.08397497      -0.01755926
O        1.80817157       0.48936013       8.13923250       34       0.01850664      -0.08397497      -0.01755926
O        4.51313021       2.11906587       6.62925006       35       0.01850664       0.08397497       0.01755926
O        1.80817157       2.11906587       0.75499122       36       0.01850664       0.08397497      -0.01755926
O        4.51313021       0.48936013      14.01349134       37       0.01850664      -0.08397497       0.01755926
O        3.60174570       4.72749187       6.62925006       38      -0.01850664       0.08397497       0.01755926
O        0.89678706       3.09778612       8.13923250       39      -0.01850664      -0.08397497      -0.01755926
40