40
Lattice="5.7395641088163885 -7.651792363474584e-43 0.0 1.2906141642024292e-42 5.901353108812913 0.0 0.0 0.0 16.535715006154476" Properties=species:S:1:pos:R:3:spacegroup_kinds:I:1:forces:R:3 spacegroup="P 1" unit_cell=conventional occupancy="_JSON {\"0\": {\"In\": 1}, \"1\": {\"In\": 1}, \"2\": {\"In\": 1}, \"3\": {\"In\": 1}, \"4\": {\"In\": 1}, \"5\": {\"In\": 1}, \"6\": {\"In\": 1}, \"7\": {\"In\": 1}, \"8\": {\"In\": 1}, \"9\": {\"In\": 1}, \"10\": {\"In\": 1}, \"11\": {\"In\": 1}, \"12\": {\"In\": 1}, \"13\": {\"In\": 1}, \"14\": {\"In\": 1}, \"15\": {\"In\": 1}, \"16\": {\"O\": 1}, \"17\": {\"O\": 1}, \"18\": {\"O\": 1}, \"19\": {\"O\": 1}, \"20\": {\"O\": 1}, \"21\": {\"O\": 1}, \"22\": {\"O\": 1}, \"23\": {\"O\": 1}, \"24\": {\"O\": 1}, \"25\": {\"O\": 1}, \"26\": {\"O\": 1}, \"27\": {\"O\": 1}, \"28\": {\"O\": 1}, \"29\": {\"O\": 1}, \"30\": {\"O\": 1}, \"31\": {\"O\": 1}, \"32\": {\"O\": 1}, \"33\": {\"O\": 1}, \"34\": {\"O\": 1}, \"35\": {\"O\": 1}, \"36\": {\"O\": 1}, \"37\": {\"O\": 1}, \"38\": {\"O\": 1}, \"39\": {\"O\": 1}}" n_minim_iter=10 energy=-45149.59084846804 stress="0.034786724762879216 -3.3140757090482237e-13 1.2948977972940637e-13 -3.3140757090482237e-13 0.03477879377814279 3.3852040137771307e-13 1.2948977972940637e-13 3.3852040137771307e-13 0.03465727301142449" free_energy=-45149.59084846804 pbc="T T T"
In       2.85363624       4.71996682       9.44772332        0       0.00106620      -0.00295266      -0.00006207
In      -0.01614582       4.13206285       7.08799169        1       0.00106620       0.00295266       0.00006207
In       2.88592787       1.76929026      15.35584919        2      -0.00106620      -0.00295266       0.00006207
In       5.75570993       1.18138629       1.17986582        3      -0.00106620       0.00295266      -0.00006207
In       2.88592787       1.18138629       7.08799169        4      -0.00106620       0.00295266       0.00006207
In       5.75570993       1.76929026       9.44772332        5      -0.00106620      -0.00295266      -0.00006207
In       2.85363624       4.13206285       1.17986582        6       0.00106620       0.00295266      -0.00006207
In      -0.01614582       4.71996682      15.35584919        7       0.00106620      -0.00295266       0.00006207
In       2.83666977       4.38261078      13.52492340        8       0.00168269      -0.00397605       0.00193727
In       5.70645182       4.46941889       3.01079160        9       0.00168269       0.00397605      -0.00193727
In       2.90289434       1.43193422      11.27864910       10      -0.00168269      -0.00397605      -0.00193727
In       0.03311228       1.51874233       5.25706590       11      -0.00168269       0.00397605       0.00193727
In       2.90289434       1.51874233       3.01079160       12      -0.00168269       0.00397605      -0.00193727
In       0.03311228       1.43193422      13.52492340       13      -0.00168269      -0.00397605       0.00193727
In       2.83666977       4.46941889       5.25706590       14       0.00168269       0.00397605       0.00193727
In       5.70645182       4.38261078      11.27864910       15       0.00168269      -0.00397605      -0.00193727
O        4.91830005       5.15469429      13.19815208       16      -0.00337092       0.00143680       0.00282568
O        2.04851800       3.69733537       3.33756293       17      -0.00337092      -0.00143680      -0.00282568
O        0.82126405       2.20401774      11.60542043       18       0.00337092       0.00143680      -0.00282568
O        3.69104611       0.74665882       4.93029457       19       0.00337092      -0.00143680       0.00282568
O        0.82126405       0.74665882       3.33756293       20       0.00337092      -0.00143680      -0.00282568
O        3.69104611       2.20401774      13.19815208       21       0.00337092       0.00143680       0.00282568
O        4.91830005       3.69733537       4.93029457       22      -0.00337092      -0.00143680       0.00282568
O        2.04851800       5.15469429      11.60542043       23      -0.00337092       0.00143680      -0.00282568
O        4.03679580       3.11010021      10.32893658       24       0.00379083      -0.00631290      -0.00516797
O        1.16701375       5.74192945       6.20677843       25       0.00379083       0.00631290       0.00516797
O        1.70276831       0.15942366      14.47463593       26      -0.00379083      -0.00631290       0.00516797
O        4.57255036       2.79125290       2.06107908       27      -0.00379083       0.00631290      -0.00516797
O        1.70276831       2.79125290       6.20677843       28      -0.00379083       0.00631290       0.00516797
O        4.57255036       0.15942366      10.32893658       29      -0.00379083      -0.00631290      -0.00516797
O        4.03679580       5.74192945       2.06107908       30       0.00379083       0.00631290      -0.00516797
O        1.16701375       3.11010021      14.47463593       31       0.00379083      -0.00631290       0.00516797
O        3.71190772       3.89515220      15.68288180       32      -0.00560565      -0.00163175       0.00642411
O        0.84212566       4.95687746       0.85283321       33      -0.00560565       0.00163175      -0.00642411
O        2.02765639       0.94447565       9.12069071       34       0.00560565      -0.00163175      -0.00642411
O        4.89743844       2.00620090       7.41502430       35       0.00560565       0.00163175       0.00642411
O        2.02765639       2.00620090       0.85283321       36       0.00560565       0.00163175      -0.00642411
O        4.89743844       0.94447565      15.68288180       37       0.00560565      -0.00163175       0.00642411
O        3.71190772       4.95687746       7.41502430       38      -0.00560565       0.00163175       0.00642411
O        0.84212566       3.89515220       9.12069071       39      -0.00560565      -0.00163175      -0.00642411
