40
Lattice="5.822844152926222 -1.2090417374512812e-42 0.0 -3.630953269658689e-43 5.994764336523026 0.0 0.0 0.0 16.791529934726057" Properties=species:S:1:pos:R:3:spacegroup_kinds:I:1:forces:R:3 spacegroup="P 1" unit_cell=conventional occupancy="_JSON {\"0\": {\"In\": 1}, \"1\": {\"In\": 1}, \"2\": {\"In\": 1}, \"3\": {\"In\": 1}, \"4\": {\"In\": 1}, \"5\": {\"In\": 1}, \"6\": {\"In\": 1}, \"7\": {\"In\": 1}, \"8\": {\"In\": 1}, \"9\": {\"In\": 1}, \"10\": {\"In\": 1}, \"11\": {\"In\": 1}, \"12\": {\"In\": 1}, \"13\": {\"In\": 1}, \"14\": {\"In\": 1}, \"15\": {\"In\": 1}, \"16\": {\"O\": 1}, \"17\": {\"O\": 1}, \"18\": {\"O\": 1}, \"19\": {\"O\": 1}, \"20\": {\"O\": 1}, \"21\": {\"O\": 1}, \"22\": {\"O\": 1}, \"23\": {\"O\": 1}, \"24\": {\"O\": 1}, \"25\": {\"O\": 1}, \"26\": {\"O\": 1}, \"27\": {\"O\": 1}, \"28\": {\"O\": 1}, \"29\": {\"O\": 1}, \"30\": {\"O\": 1}, \"31\": {\"O\": 1}, \"32\": {\"O\": 1}, \"33\": {\"O\": 1}, \"34\": {\"O\": 1}, \"35\": {\"O\": 1}, \"36\": {\"O\": 1}, \"37\": {\"O\": 1}, \"38\": {\"O\": 1}, \"39\": {\"O\": 1}}" n_minim_iter=10 energy=-45149.072612297765 stress="0.0451380877165372 1.2388324053530609e-13 -1.950294496424928e-13 1.2388324053530609e-13 0.045140362388890846 3.9250576565926427e-13 -1.950294496424928e-13 3.9250576565926427e-13 0.04514055386792862" free_energy=-45149.072612297765 pbc="T T T"
In       2.88560102       4.81170149       9.60865615        0      -0.00752115       0.00353477      -0.00139385
In      -0.02582105       4.18044502       7.18287378        1      -0.00752115      -0.00353477       0.00139385
In       2.93724313       1.81431932      15.57863875        2       0.00752115       0.00353477       0.00139385
In       5.84866521       1.18306285       1.21289119        3       0.00752115      -0.00353477      -0.00139385
In       2.93724313       1.18306285       7.18287378        4       0.00752115      -0.00353477       0.00139385
In       5.84866521       1.81431932       9.60865615        5       0.00752115       0.00353477      -0.00139385
In       2.88560102       4.18044502       1.21289119        6      -0.00752115      -0.00353477      -0.00139385
In      -0.02582105       4.81170149      15.57863875        7      -0.00752115       0.00353477       0.00139385
In       2.86581430       4.44663762      13.72850003        8      -0.00202697       0.00207190       0.00219201
In       5.77723638       4.54550888       3.06302990        9      -0.00202697      -0.00207190      -0.00219201
In       2.95702985       1.44925545      11.45879487       10       0.00202697       0.00207190      -0.00219201
In       0.04560777       1.54812671       5.33273506       11       0.00202697      -0.00207190       0.00219201
In       2.95702985       1.54812671       3.06302990       12       0.00202697      -0.00207190      -0.00219201
In       0.04560777       1.44925545      13.72850003       13       0.00202697       0.00207190       0.00219201
In       2.86581430       4.54550888       5.33273506       14      -0.00202697      -0.00207190       0.00219201
In       5.77723638       4.44663762      11.45879487       15      -0.00202697       0.00207190      -0.00219201
O        4.97767179       5.22177670      13.40668080       16       0.00068885       0.00581799       0.00313154
O        2.06624971       3.77036980       3.38484914       17       0.00068885      -0.00581799      -0.00313154
O        0.84517237       2.22439453      11.78061410       18      -0.00068885       0.00581799      -0.00313154
O        3.75659444       0.77298764       5.01091583       19      -0.00068885      -0.00581799       0.00313154
O        0.84517237       0.77298764       3.38484914       20      -0.00068885      -0.00581799      -0.00313154
O        3.75659444       2.22439453      13.40668080       21      -0.00068885       0.00581799       0.00313154
O        4.97767179       3.77036980       5.01091583       22       0.00068885      -0.00581799       0.00313154
O        2.06624971       5.22177670      11.78061410       23       0.00068885       0.00581799      -0.00313154
O        4.09141719       3.16270496      10.50027187       24       0.00278803      -0.00202018      -0.00048613
O        1.17999512       5.82944154       6.29125806       25       0.00278803       0.00202018       0.00048613
O        1.73142696       0.16532280      14.68702303       26      -0.00278803      -0.00202018       0.00048613
O        4.64284904       2.83205937       2.10450690       27      -0.00278803       0.00202018      -0.00048613
O        1.73142696       2.83205937       6.29125806       28      -0.00278803       0.00202018       0.00048613
O        4.64284904       0.16532280      10.50027187       29      -0.00278803      -0.00202018      -0.00048613
O        4.09141719       5.82944154       2.10450690       30       0.00278803       0.00202018      -0.00048613
O        1.17999512       3.16270496      14.68702303       31       0.00278803      -0.00202018       0.00048613
O        3.76454175       3.95791245      15.93559414       32      -0.00070264       0.00052617      -0.00089274
O        0.85311967       5.03423405       0.85593579       33      -0.00070264      -0.00052617       0.00089274
O        2.05830240       0.96053029       9.25170076       34       0.00070264       0.00052617       0.00089274
O        4.96972448       2.03685188       7.53982917       35       0.00070264      -0.00052617      -0.00089274
O        2.05830240       2.03685188       0.85593579       36       0.00070264      -0.00052617       0.00089274
O        4.96972448       0.96053029      15.93559414       37       0.00070264       0.00052617      -0.00089274
O        3.76454175       5.03423405       7.53982917       38      -0.00070264      -0.00052617      -0.00089274
O        0.85311967       3.95791245       9.25170076       39      -0.00070264       0.00052617       0.00089274
