40
Lattice="5.184053166950872 -1.7124505717721926e-42 9.094500235620918e-81 1.81754896104137e-42 5.502214547321969 -3.6492296893371635e-38 5.980111145781702e-81 9.085796416151229e-38 13.699329850633081" Properties=species:S:1:pos:R:3:spacegroup_kinds:I:1:forces:R:3 spacegroup="P 1" unit_cell=conventional occupancy="_JSON {\"0\": {\"In\": 1}, \"1\": {\"In\": 1}, \"2\": {\"In\": 1}, \"3\": {\"In\": 1}, \"4\": {\"In\": 1}, \"5\": {\"In\": 1}, \"6\": {\"In\": 1}, \"7\": {\"In\": 1}, \"8\": {\"In\": 1}, \"9\": {\"In\": 1}, \"10\": {\"In\": 1}, \"11\": {\"In\": 1}, \"12\": {\"In\": 1}, \"13\": {\"In\": 1}, \"14\": {\"In\": 1}, \"15\": {\"In\": 1}, \"16\": {\"O\": 1}, \"17\": {\"O\": 1}, \"18\": {\"O\": 1}, \"19\": {\"O\": 1}, \"20\": {\"O\": 1}, \"21\": {\"O\": 1}, \"22\": {\"O\": 1}, \"23\": {\"O\": 1}, \"24\": {\"O\": 1}, \"25\": {\"O\": 1}, \"26\": {\"O\": 1}, \"27\": {\"O\": 1}, \"28\": {\"O\": 1}, \"29\": {\"O\": 1}, \"30\": {\"O\": 1}, \"31\": {\"O\": 1}, \"32\": {\"O\": 1}, \"33\": {\"O\": 1}, \"34\": {\"O\": 1}, \"35\": {\"O\": 1}, \"36\": {\"O\": 1}, \"37\": {\"O\": 1}, \"38\": {\"O\": 1}, \"39\": {\"O\": 1}}" n_minim_iter=1 energy=-45133.986728127275 stress="-0.4093925552549347 -3.6689334540891443e-13 -5.815025948531898e-13 -3.6689334540891443e-13 -0.40532472362945937 -5.256279914805685e-13 -5.815025948531898e-13 -5.256279914805685e-13 -0.39987587509783196" free_energy=-45133.986728127275 pbc="T T T"
In       2.82327019       3.86173133       7.48822842        0       0.05882855       0.00049022      -0.05843096
In       0.23124361       4.39159049       6.21110143        1       0.05882855      -0.00049022       0.05843096
In       2.36078297       1.11062405      13.06076636        2      -0.05882855       0.00049022       0.05843096
In       4.95280956       1.64048322       0.63856349        3      -0.05882855      -0.00049022      -0.05843096
In       2.36078297       1.64048322       6.21110143        4      -0.05882855      -0.00049022       0.05843096
In       4.95280956       1.11062405       7.48822842        5      -0.05882855       0.00049022      -0.05843096
In       2.82327019       4.39159049       0.63856349        6       0.05882855      -0.00049022      -0.05843096
In       0.23124361       3.86173133      13.06076636        7       0.05882855       0.00049022       0.05843096
In       2.70865726       3.16288664      11.11727035        8      -0.22689290      -0.28798638       0.28735456
In       5.30068384       5.09043518       2.58205950        9      -0.22689290       0.28798638      -0.28735456
In       2.47539591       0.41177936       9.43172443       10       0.22689290      -0.28798638      -0.28735456
In      -0.11663068       2.33932791       4.26760542       11       0.22689290       0.28798638       0.28735456
In       2.47539591       2.33932791       2.58205950       12       0.22689290       0.28798638      -0.28735456
In      -0.11663068       0.41177936      11.11727035       13       0.22689290      -0.28798638       0.28735456
In       2.70865726       5.09043518       4.26760542       14      -0.22689290       0.28798638       0.28735456
In       5.30068384       3.16288664       9.43172443       15      -0.22689290      -0.28798638      -0.28735456
O        4.57473291       3.95844971      11.10091905       16      -0.06283060      -0.02757311       0.06111518
O        1.98270633       4.29487211       2.59841080       17      -0.06283060       0.02757311      -0.06111518
O        0.60932026       1.20734244       9.44807573       18       0.06283060      -0.02757311      -0.06111518
O        3.20134684       1.54376484       4.25125413       19       0.06283060       0.02757311       0.06111518
O        0.60932026       1.54376484       2.59841080       20       0.06283060       0.02757311      -0.06111518
O        3.20134684       1.20734244      11.10091905       21       0.06283060      -0.02757311       0.06111518
O        4.57473291       4.29487211       4.25125413       22      -0.06283060       0.02757311       0.06111518
O        1.98270633       3.95844971       9.44807573       23      -0.06283060      -0.02757311      -0.06111518
O        3.38229421       2.06078875       8.55215404       24       0.06638786       0.19981061       0.11224722
O        0.79026763       6.19253307       5.14717581       25       0.06638786      -0.19981061      -0.11224722
O        1.80175895      -0.69031852      11.99684073       26      -0.06638786       0.19981061      -0.11224722
O        4.39378554       3.44142580       1.70248912       27      -0.06638786      -0.19981061       0.11224722
O        1.80175895       3.44142580       5.14717581       28      -0.06638786      -0.19981061      -0.11224722
O        4.39378554      -0.69031852       8.55215404       29      -0.06638786       0.19981061       0.11224722
O        3.38229421       6.19253307       1.70248912       30       0.06638786      -0.19981061       0.11224722
O        0.79026763       2.06078875      11.99684073       31       0.06638786       0.19981061      -0.11224722
O        3.57840265       2.85174288      13.07149965       32      -0.20922919       0.11785796       0.12492488
O        0.98637607       5.40157894       0.62783020       33      -0.20922919      -0.11785796      -0.12492488
O        1.60565051       0.10063560       7.47749512       34       0.20922919       0.11785796      -0.12492488
O        4.19767710       2.65047167       6.22183473       35       0.20922919      -0.11785796       0.12492488
O        1.60565051       2.65047167       0.62783020       36       0.20922919      -0.11785796      -0.12492488
O        4.19767710       0.10063560      13.07149965       37       0.20922919       0.11785796       0.12492488
O        3.57840265       5.40157894       6.22183473       38      -0.20922919      -0.11785796       0.12492488
O        0.98637607       2.85174288       7.47749512       39      -0.20922919       0.11785796      -0.12492488
40
Lattice="5.19681959126382 -1.7547959316538004e-42 1.5662072038865655e-80 1.8250198237413885e-42 5.503590528207087 -5.802559783579582e-38 5.30686429412133e-81 3.816574589341413e-38 13.662259669119035" Properties=species:S:1:pos:R:3:spacegroup_kinds:I:1:forces:R:3 spacegroup="P 1" unit_cell=conventional occupancy="_JSON {\"0\": {\"In\": 1}, \"1\": {\"In\": 1}, \"2\": {\"In\": 1}, \"3\": {\"In\": 1}, \"4\": {\"In\": 1}, \"5\": {\"In\": 1}, \"6\": {\"In\": 1}, \"7\": {\"In\": 1}, \"8\": {\"In\": 1}, \"9\": {\"In\": 1}, \"10\": {\"In\": 1}, \"11\": {\"In\": 1}, \"12\": {\"In\": 1}, \"13\": {\"In\": 1}, \"14\": {\"In\": 1}, \"15\": {\"In\": 1}, \"16\": {\"O\": 1}, \"17\": {\"O\": 1}, \"18\": {\"O\": 1}, \"19\": {\"O\": 1}, \"20\": {\"O\": 1}, \"21\": {\"O\": 1}, \"22\": {\"O\": 1}, \"23\": {\"O\": 1}, \"24\": {\"O\": 1}, \"25\": {\"O\": 1}, \"26\": {\"O\": 1}, \"27\": {\"O\": 1}, \"28\": {\"O\": 1}, \"29\": {\"O\": 1}, \"30\": {\"O\": 1}, \"31\": {\"O\": 1}, \"32\": {\"O\": 1}, \"33\": {\"O\": 1}, \"34\": {\"O\": 1}, \"35\": {\"O\": 1}, \"36\": {\"O\": 1}, \"37\": {\"O\": 1}, \"38\": {\"O\": 1}, \"39\": {\"O\": 1}}" n_minim_iter=2 energy=-45133.993710981915 stress="-0.4013036939592668 3.502421268931912e-13 -1.2299203243333647e-13 3.502421268931912e-13 -0.403843187243138 -9.956576876458228e-13 -1.2299203243333647e-13 -9.956576876458228e-13 -0.40483431198317804" free_energy=-45133.993710981915 pbc="T T T"
In       2.83030485       3.86269774       7.46788438        0       0.04135671      -0.01512532      -0.07428806
In       0.23189505       4.39268805       6.19437529        1       0.04135671       0.01512532       0.07428806
In       2.36651474       1.11090248      13.02550512        2      -0.04135671      -0.01512532       0.07428807
In       4.96492454       1.64089279       0.63675455        3      -0.04135671       0.01512532      -0.07428806
In       2.36651474       1.64089279       6.19437529        4      -0.04135671       0.01512532       0.07428806
In       4.96492454       1.11090248       7.46788438        5      -0.04135671      -0.01512532      -0.07428807
In       2.83030485       4.39268805       0.63675455        6       0.04135671       0.01512532      -0.07428806
In       0.23189505       3.86269774      13.02550512        7       0.04135671      -0.01512532       0.07428806
In       2.71501152       3.16327718      11.08758554        8      -0.16334226      -0.27785474       0.27118594
In       5.31342131       5.09210861       2.57467413        9      -0.16334226       0.27785474      -0.27118594
In       2.48180808       0.41148192       9.40580396       10       0.16334226      -0.27785474      -0.27118594
In      -0.11660172       2.34031335       4.25645571       11       0.16334226       0.27785474       0.27118594
In       2.48180808       2.34031335       2.57467413       12       0.16334226       0.27785474      -0.27118594
In      -0.11660172       0.41148192      11.08758554       13       0.16334226      -0.27785474       0.27118594
In       2.71501152       5.09210861       4.25645571       14      -0.16334226       0.27785474       0.27118594
In       5.31342131       3.16327718       9.40580396       15      -0.16334226      -0.27785474      -0.27118594
O        4.58591125       3.95940129      11.07096485       16      -0.12656714      -0.03842297       0.07149702
O        1.98750145       4.29598450       2.59129481       17      -0.12656714       0.03842297      -0.07149702
O        0.61090834       1.20760603       9.42242465       18       0.12656714      -0.03842297      -0.07149702
O        3.20931814       1.54418923       4.23983502       19       0.12656714       0.03842297       0.07149701
O        0.61090834       1.54418923       2.59129481       20       0.12656714       0.03842297      -0.07149702
O        3.20931814       1.20760603      11.07096485       21       0.12656714      -0.03842297       0.07149702
O        4.58591125       4.29598450       4.23983502       22      -0.12656714       0.03842297       0.07149702
O        1.98750145       3.95940129       9.42242465       23      -0.12656714      -0.03842297      -0.07149702
O        3.39071608       2.06158193       8.52916765       24       0.04684913       0.20283703       0.10433485
O        0.79230628       6.19380386       5.13309202       25       0.04684913      -0.20283703      -0.10433485
O        1.80610352      -0.69021333      11.96422185       26      -0.04684913       0.20283703      -0.10433485
O        4.40451331       3.44200860       1.69803782       27      -0.04684913      -0.20283703       0.10433485
O        1.80610352       3.44200860       5.13309202       28      -0.04684913      -0.20283703      -0.10433485
O        4.40451331      -0.69021333       8.52916765       29      -0.04684913       0.20283703       0.10433485
O        3.39071608       6.19380386       1.69803782       30       0.04684913      -0.20283703       0.10433485
O        0.79230628       2.06158193      11.96422185       31       0.04684913       0.20283703      -0.10433485
O        3.58692339       2.85261991      13.03630156       32      -0.16096981       0.10798272       0.12315379
O        0.98851359       5.40276589       0.62595811       33      -0.16096981      -0.10798272      -0.12315379
O        1.60989620       0.10082464       7.45708795       34       0.16096981       0.10798272      -0.12315379
O        4.20830600       2.65097062       6.20517172       35       0.16096981      -0.10798272       0.12315379
O        1.60989620       2.65097062       0.62595811       36       0.16096981      -0.10798272      -0.12315379
O        4.20830600       0.10082464      13.03630156       37       0.16096981       0.10798272       0.12315379
O        3.58692339       5.40276589       6.20517172       38      -0.16096981      -0.10798272       0.12315379
O        0.98851359       2.85261991       7.45708795       39      -0.16096981       0.10798272      -0.12315379
40
Lattice="5.18383120202086 -1.750167445194286e-42 1.7091217955787563e-80 1.8335852745961327e-42 5.524742650981573 -6.269049228629016e-38 5.244568810993245e-81 2.6560093532883907e-38 13.644052634708247" Properties=species:S:1:pos:R:3:spacegroup_kinds:I:1:forces:R:3 spacegroup="P 1" unit_cell=conventional occupancy="_JSON {\"0\": {\"In\": 1}, \"1\": {\"In\": 1}, \"2\": {\"In\": 1}, \"3\": {\"In\": 1}, \"4\": {\"In\": 1}, \"5\": {\"In\": 1}, \"6\": {\"In\": 1}, \"7\": {\"In\": 1}, \"8\": {\"In\": 1}, \"9\": {\"In\": 1}, \"10\": {\"In\": 1}, \"11\": {\"In\": 1}, \"12\": {\"In\": 1}, \"13\": {\"In\": 1}, \"14\": {\"In\": 1}, \"15\": {\"In\": 1}, \"16\": {\"O\": 1}, \"17\": {\"O\": 1}, \"18\": {\"O\": 1}, \"19\": {\"O\": 1}, \"20\": {\"O\": 1}, \"21\": {\"O\": 1}, \"22\": {\"O\": 1}, \"23\": {\"O\": 1}, \"24\": {\"O\": 1}, \"25\": {\"O\": 1}, \"26\": {\"O\": 1}, \"27\": {\"O\": 1}, \"28\": {\"O\": 1}, \"29\": {\"O\": 1}, \"30\": {\"O\": 1}, \"31\": {\"O\": 1}, \"32\": {\"O\": 1}, \"33\": {\"O\": 1}, \"34\": {\"O\": 1}, \"35\": {\"O\": 1}, \"36\": {\"O\": 1}, \"37\": {\"O\": 1}, \"38\": {\"O\": 1}, \"39\": {\"O\": 1}}" n_minim_iter=3 energy=-45134.029800520584 stress="-0.4007778651925461 6.944733815391955e-13 -4.839507921898063e-13 6.944733815391955e-13 -0.39245416836388136 -4.886731739075457e-13 -4.839507921898063e-13 -4.886731739075457e-13 -0.4024387366195802" free_energy=-45134.029800520584 pbc="T T T"
In       2.82413029       3.87732556       7.45656742        0      -0.00256640      -0.08485371      -0.07762137
In       0.23221468       4.40978841       6.18748522        1      -0.00256640       0.08485371       0.07762137
In       2.35970092       1.11495424      13.00951154        2       0.00256640      -0.08485371       0.07762137
In       4.95161652       1.64741709       0.63454110        3       0.00256640       0.08485371      -0.07762137
In       2.35970092       1.64741709       6.18748522        4       0.00256640       0.08485371       0.07762137
In       4.95161652       1.11495424       7.45656742        5       0.00256640      -0.08485371      -0.07762137
In       2.82413029       4.40978841       0.63454110        6      -0.00256640       0.08485371      -0.07762137
In       0.23221468       3.87732556      13.00951154        7      -0.00256640      -0.08485371       0.07762137
In       2.70470205       3.16992291      11.07816571        8      -0.19813908      -0.18791824       0.09307875
In       5.29661765       5.11719107       2.56588692        9      -0.19813908       0.18791824      -0.09307875
In       2.47912916       0.40755159       9.38791324       10       0.19813908      -0.18791824      -0.09307875
In      -0.11278644       2.35481974       4.25613939       11       0.19813908       0.18791824       0.09307875
In       2.47912916       2.35481974       2.56588692       12       0.19813908       0.18791824      -0.09307875
In      -0.11278644       0.40755159      11.07816571       13       0.19813908      -0.18791824       0.09307875
In       2.70470205       5.11719107       4.25613939       14      -0.19813908       0.18791824       0.09307875
In       5.29661765       3.16992291       9.38791324       15      -0.19813908      -0.18791824      -0.09307875
O        4.57229152       3.97391870      11.05754933       16      -0.10226819      -0.04509965      -0.03450017
O        1.98037592       4.31319527       2.58650331       17      -0.10226819       0.04509965       0.03450017
O        0.61153968       1.21154738       9.40852962       18       0.10226819      -0.04509965       0.03450017
O        3.20345529       1.55082395       4.23552301       19       0.10226819       0.04509965      -0.03450017
O        0.61153968       1.55082395       2.58650331       20       0.10226819       0.04509965       0.03450017
O        3.20345529       1.21154738      11.05754933       21       0.10226819      -0.04509965      -0.03450017
O        4.57229152       4.31319527       4.23552301       22      -0.10226819       0.04509965      -0.03450017
O        1.98037592       3.97391870       9.40852962       23      -0.10226819      -0.04509965       0.03450017
O        3.38325901       2.07347593       8.51987044       24       0.02173874       0.16098025       0.13267408
O        0.79134341       6.21363805       5.12418219       25       0.02173874      -0.16098025      -0.13267408
O        1.80057219      -0.68889540      11.94620851       26      -0.02173874       0.16098025      -0.13267408
O        4.39248779       3.45126672       1.69784412       27      -0.02173874      -0.16098025       0.13267408
O        1.80057219       3.45126672       5.12418219       28      -0.02173874      -0.16098025      -0.13267408
O        4.39248779      -0.68889540       8.51987044       29      -0.02173874       0.16098025       0.13267408
O        3.38325901       6.21363805       1.69784412       30       0.02173874      -0.16098025       0.13267408
O        0.79134341       2.07347593      11.94620851       31       0.02173874       0.16098025      -0.13267408
O        3.57455872       2.86575572      13.02133294       32      -0.12556871       0.02717710       0.09118698
O        0.98264312       5.42135826       0.62271969       33      -0.12556871      -0.02717710      -0.09118698
O        1.60927248       0.10338440       7.44474601       34       0.12556871       0.02717710      -0.09118698
O        4.20118808       2.65898693       6.19930663       35       0.12556871      -0.02717710       0.09118698
O        1.60927248       2.65898693       0.62271969       36       0.12556871      -0.02717710      -0.09118698
O        4.20118808       0.10338440      13.02133294       37       0.12556871       0.02717710       0.09118698
O        3.57455872       5.42135826       6.19930663       38      -0.12556871      -0.02717710       0.09118698
O        0.98264312       2.86575572       7.44474601       39      -0.12556871       0.02717710      -0.09118698
40
Lattice="5.18892807783049 -1.754483511713414e-42 2.3409153542252044e-80 1.824990982950741e-42 5.507445057693214 -8.200074747201809e-38 5.292512339917618e-81 -2.254915667728161e-38 13.673461306253937" Properties=species:S:1:pos:R:3:spacegroup_kinds:I:1:forces:R:3 spacegroup="P 1" unit_cell=conventional occupancy="_JSON {\"0\": {\"In\": 1}, \"1\": {\"In\": 1}, \"2\": {\"In\": 1}, \"3\": {\"In\": 1}, \"4\": {\"In\": 1}, \"5\": {\"In\": 1}, \"6\": {\"In\": 1}, \"7\": {\"In\": 1}, \"8\": {\"In\": 1}, \"9\": {\"In\": 1}, \"10\": {\"In\": 1}, \"11\": {\"In\": 1}, \"12\": {\"In\": 1}, \"13\": {\"In\": 1}, \"14\": {\"In\": 1}, \"15\": {\"In\": 1}, \"16\": {\"O\": 1}, \"17\": {\"O\": 1}, \"18\": {\"O\": 1}, \"19\": {\"O\": 1}, \"20\": {\"O\": 1}, \"21\": {\"O\": 1}, \"22\": {\"O\": 1}, \"23\": {\"O\": 1}, \"24\": {\"O\": 1}, \"25\": {\"O\": 1}, \"26\": {\"O\": 1}, \"27\": {\"O\": 1}, \"28\": {\"O\": 1}, \"29\": {\"O\": 1}, \"30\": {\"O\": 1}, \"31\": {\"O\": 1}, \"32\": {\"O\": 1}, \"33\": {\"O\": 1}, \"34\": {\"O\": 1}, \"35\": {\"O\": 1}, \"36\": {\"O\": 1}, \"37\": {\"O\": 1}, \"38\": {\"O\": 1}, \"39\": {\"O\": 1}}" n_minim_iter=4 energy=-45134.05147894059 stress="-0.3923687272031665 -7.341083162377483e-13 -7.134089360762546e-14 -7.341083162377483e-13 -0.39978778151325456 -3.5180223747691705e-13 -7.134089360762546e-14 -3.5180223747691705e-13 -0.39389690469052224" free_energy=-45134.05147894059 pbc="T T T"
In       2.82764103       3.86478899       7.47132338        0      -0.04496365      -0.11003203       0.03184192
In       0.23317699       4.39637859       6.20213793        1      -0.04496365       0.11003203      -0.03184192
In       2.36128705       1.11106646      13.03886858        2       0.04496365      -0.11003203      -0.03184192
In       4.95575109       1.64265607       0.63459273        3       0.04496365       0.11003203       0.03184192
In       2.36128705       1.64265607       6.20213793        4       0.04496365       0.11003203      -0.03184192
In       4.95575109       1.11106646       7.47132338        5       0.04496365      -0.11003203       0.03184192
In       2.82764103       4.39637859       0.63459273        6      -0.04496365       0.11003203       0.03184192
In       0.23317699       3.86478899      13.03886858        7      -0.04496365      -0.11003203      -0.03184192
In       2.70393900       3.15500824      11.10667883        8      -0.20769787       0.07018145      -0.09990832
In       5.29840304       5.10615935       2.56678247        9      -0.20769787      -0.07018145       0.09990832
In       2.48498908       0.40128571       9.40351313       10       0.20769787       0.07018145       0.09990832
In      -0.10947496       2.35243682       4.26994818       11       0.20769787      -0.07018145      -0.09990832
In       2.48498908       2.35243682       2.56678247       12       0.20769787      -0.07018145       0.09990832
In      -0.10947496       0.40128571      11.10667883       13       0.20769787       0.07018145      -0.09990832
In       2.70393900       5.10615935       4.26994818       14      -0.20769787      -0.07018145      -0.09990832
In       5.29840304       3.15500824       9.40351313       15      -0.20769787       0.07018145       0.09990832
O        4.57477130       3.96079051      11.08238603       16      -0.10747682      -0.21247607      -0.09041646
O        1.98030726       4.30037708       2.59107528       17      -0.10747682       0.21247607       0.09041646
O        0.61415678       1.20706798       9.42780593       18       0.10747682      -0.21247607       0.09041646
O        3.20862082       1.54665455       4.24565537       19       0.10747682       0.21247607      -0.09041646
O        0.61415678       1.54665455       2.59107528       20       0.10747682       0.21247607       0.09041646
O        3.20862082       1.20706798      11.08238603       21       0.10747682      -0.21247607      -0.09041646
O        4.57477130       4.30037708       4.24565537       22      -0.10747682       0.21247607      -0.09041646
O        1.98030726       3.96079051       9.42780593       23      -0.10747682      -0.21247607       0.09041646
O        3.38748066       2.07064326       8.54027804       24       0.04171500       0.10415768       0.15705286
O        0.79301662       6.19052433       5.13318326       25       0.04171500      -0.10415768      -0.15705286
O        1.80144741      -0.68307927      11.96991392       26      -0.04171500       0.10415768      -0.15705286
O        4.39591145       3.43680180       1.70354739       27      -0.04171500      -0.10415768       0.15705286
O        1.80144741       3.43680180       5.13318326       28      -0.04171500      -0.10415768      -0.15705286
O        4.39591145      -0.68307927       8.54027804       29      -0.04171500       0.10415768       0.15705286
O        3.38748066       6.19052433       1.70354739       30       0.04171500      -0.10415768       0.15705286
O        0.79301662       2.07064326      11.96991392       31       0.04171500       0.10415768      -0.15705286
O        3.57494764       2.85862772      13.05160739       32      -0.03072697      -0.00753788       0.03903372
O        0.98048360       5.40253987       0.62185392       33      -0.03072697       0.00753788      -0.03903372
O        1.61398044       0.10490519       7.45858457       34       0.03072697      -0.00753788      -0.03903372
O        4.20844447       2.64881734       6.21487674       35       0.03072697       0.00753788       0.03903372
O        1.61398044       2.64881734       0.62185392       36       0.03072697       0.00753788      -0.03903372
O        4.20844447       0.10490519      13.05160739       37       0.03072697      -0.00753788       0.03903372
O        3.57494764       5.40253987       6.21487674       38      -0.03072697       0.00753788       0.03903372
O        0.98048360       2.85862772       7.45858457       39      -0.03072697      -0.00753788      -0.03903372
40
Lattice="5.177499823892134 -1.848155596378246e-42 2.411111909519594e-80 1.830271428215385e-42 5.521998935760697 -8.449761804256653e-38 5.272369088458027e-81 -2.8895735820991787e-38 13.667525065101232" Properties=species:S:1:pos:R:3:spacegroup_kinds:I:1:forces:R:3 spacegroup="P 1" unit_cell=conventional occupancy="_JSON {\"0\": {\"In\": 1}, \"1\": {\"In\": 1}, \"2\": {\"In\": 1}, \"3\": {\"In\": 1}, \"4\": {\"In\": 1}, \"5\": {\"In\": 1}, \"6\": {\"In\": 1}, \"7\": {\"In\": 1}, \"8\": {\"In\": 1}, \"9\": {\"In\": 1}, \"10\": {\"In\": 1}, \"11\": {\"In\": 1}, \"12\": {\"In\": 1}, \"13\": {\"In\": 1}, \"14\": {\"In\": 1}, \"15\": {\"In\": 1}, \"16\": {\"O\": 1}, \"17\": {\"O\": 1}, \"18\": {\"O\": 1}, \"19\": {\"O\": 1}, \"20\": {\"O\": 1}, \"21\": {\"O\": 1}, \"22\": {\"O\": 1}, \"23\": {\"O\": 1}, \"24\": {\"O\": 1}, \"25\": {\"O\": 1}, \"26\": {\"O\": 1}, \"27\": {\"O\": 1}, \"28\": {\"O\": 1}, \"29\": {\"O\": 1}, \"30\": {\"O\": 1}, \"31\": {\"O\": 1}, \"32\": {\"O\": 1}, \"33\": {\"O\": 1}, \"34\": {\"O\": 1}, \"35\": {\"O\": 1}, \"36\": {\"O\": 1}, \"37\": {\"O\": 1}, \"38\": {\"O\": 1}, \"39\": {\"O\": 1}}" n_minim_iter=5 energy=-45134.08099777933 stress="-0.3903713730683132 -3.216879266264918e-14 -3.840778597843451e-13 -3.216879266264918e-14 -0.3896844410719623 -1.114120682971186e-12 -3.840778597843451e-13 -1.114120682971186e-12 -0.38997102226151004" free_energy=-45134.08099777933 pbc="T T T"
In       2.82144759       3.87238197       7.46675940        0      -0.08151561      -0.08191784       0.08106862
In       0.23269768       4.41061643       6.20076566        1      -0.08151561       0.08191784      -0.08106862
In       2.35605223       1.11138250      13.03452819        2       0.08151561      -0.08191784      -0.08106862
In       4.94480215       1.64961697       0.63299687        3       0.08151561       0.08191784       0.08106862
In       2.35605223       1.64961697       6.20076566        4       0.08151561       0.08191784      -0.08106862
In       4.94480215       1.11138250       7.46675940        5       0.08151561      -0.08191784       0.08106862
In       2.82144759       4.41061643       0.63299687        6      -0.08151561       0.08191784       0.08106862
In       0.23269768       3.87238197      13.03452819        7      -0.08151561      -0.08191784      -0.08106862
In       2.69010914       3.15827156      11.10540007        8      -0.11744776       0.05986756      -0.14070125
In       5.27885905       5.12472685       2.56212500        9      -0.11744776      -0.05986756       0.14070125
In       2.48739068       0.39727209       9.39588753       10       0.11744776       0.05986756       0.14070125
In      -0.10135923       2.36372738       4.27163753       11       0.11744776      -0.05986756      -0.14070125
In       2.48739068       2.36372738       2.56212500       12       0.11744776      -0.05986756       0.14070125
In      -0.10135923       0.39727209      11.10540007       13       0.11744776       0.05986756      -0.14070125
In       2.69010914       5.12472685       4.27163753       14      -0.11744776      -0.05986756      -0.14070125
In       5.27885905       3.15827156       9.39588753       15      -0.11744776       0.05986756       0.14070125
O        4.56065370       3.96720221      11.07686828       16      -0.10375464      -0.13167917      -0.05257602
O        1.97190378       4.31579619       2.59065679       17      -0.10375464       0.13167917       0.05257602
O        0.61684613       1.20620274       9.42441932       18       0.10375464      -0.13167917       0.05257602
O        3.20559604       1.55479672       4.24310575       19       0.10375464       0.13167917      -0.05257602
O        0.61684613       1.55479672       2.59065679       20       0.10375464       0.13167917       0.05257602
O        3.20559604       1.20620274      11.07686828       21       0.10375464      -0.13167917      -0.05257602
O        4.56065370       4.31579619       4.24310575       22      -0.10375464       0.13167917      -0.05257602
O        1.97190378       3.96720221       9.42441932       23      -0.10375464      -0.13167917       0.05257602
O        3.38165813       2.08226339       8.54178054       24       0.05164681       0.05865011       0.15185045
O        0.79290822       6.20073501       5.12574453       25       0.05164681      -0.05865011      -0.15185045
O        1.79584169      -0.67873607      11.95950706       26      -0.05164681       0.05865011      -0.15185045
O        4.38459160       3.43973554       1.70801800       27      -0.05164681      -0.05865011       0.15185045
O        1.79584169       3.43973554       5.12574453       28      -0.05164681      -0.05865011      -0.15185045
O        4.38459160      -0.67873607       8.54178054       29      -0.05164681       0.05865011       0.15185045
O        3.38165813       6.20073501       1.70801800       30       0.05164681      -0.05865011       0.15185045
O        0.79290822       2.08226339      11.95950706       31       0.05164681       0.05865011      -0.15185045
O        3.56266191       2.86799141      13.04924423       32      -0.01440518      -0.08583552      -0.04165183
O        0.97391200       5.41500699       0.61828083       33      -0.01440518       0.08583552       0.04165183
O        1.61483791       0.10699194       7.45204336       34       0.01440518      -0.08583552       0.04165183
O        4.20358783       2.65400752       6.21548170       35       0.01440518       0.08583552      -0.04165183
O        1.61483791       2.65400752       0.61828083       36       0.01440518       0.08583552       0.04165183
O        4.20358783       0.10699194      13.04924423       37       0.01440518      -0.08583552      -0.04165183
O        3.56266191       5.41500699       6.21548170       38      -0.01440518       0.08583552      -0.04165183
O        0.97391200       2.86799141       7.45204336       39      -0.01440518      -0.08583552       0.04165183
40