40
Lattice="5.2460117719454145 -1.477396235501389e-42 1.791506558825322e-83 1.562917707444596e-42 5.549685652917439 4.0734383884540016e-41 -7.603169769205053e-83 -1.0179861091196703e-40 13.869125701431923" Properties=species:S:1:pos:R:3:spacegroup_kinds:I:1:forces:R:3 spacegroup="P 1" unit_cell=conventional occupancy="_JSON {\"0\": {\"In\": 1}, \"1\": {\"In\": 1}, \"2\": {\"In\": 1}, \"3\": {\"In\": 1}, \"4\": {\"In\": 1}, \"5\": {\"In\": 1}, \"6\": {\"In\": 1}, \"7\": {\"In\": 1}, \"8\": {\"In\": 1}, \"9\": {\"In\": 1}, \"10\": {\"In\": 1}, \"11\": {\"In\": 1}, \"12\": {\"In\": 1}, \"13\": {\"In\": 1}, \"14\": {\"In\": 1}, \"15\": {\"In\": 1}, \"16\": {\"O\": 1}, \"17\": {\"O\": 1}, \"18\": {\"O\": 1}, \"19\": {\"O\": 1}, \"20\": {\"O\": 1}, \"21\": {\"O\": 1}, \"22\": {\"O\": 1}, \"23\": {\"O\": 1}, \"24\": {\"O\": 1}, \"25\": {\"O\": 1}, \"26\": {\"O\": 1}, \"27\": {\"O\": 1}, \"28\": {\"O\": 1}, \"29\": {\"O\": 1}, \"30\": {\"O\": 1}, \"31\": {\"O\": 1}, \"32\": {\"O\": 1}, \"33\": {\"O\": 1}, \"34\": {\"O\": 1}, \"35\": {\"O\": 1}, \"36\": {\"O\": 1}, \"37\": {\"O\": 1}, \"38\": {\"O\": 1}, \"39\": {\"O\": 1}}" n_minim_iter=1 energy=-45138.41587021918 stress="-0.3111610560511382 -1.5250582521835484e-12 2.8875046644082265e-13 -1.5250582521835484e-12 -0.307278654474795 -9.05874785861067e-13 2.8875046644082265e-13 -9.05874785861067e-13 -0.3061226862307093" free_energy=-45138.41587021918 pbc="T T T"
In       2.85968556       3.89881865       7.58484967        0       0.02601902       0.00815825      -0.06758003
In       0.23667967       4.42570983       6.28427603        1       0.02601902      -0.00815825       0.06758003
In       2.38632622       1.12397583      13.21883888        2      -0.02601902       0.00815825       0.06758003
In       5.00933210       1.65086700       0.65028682        3      -0.02601902      -0.00815825      -0.06758003
In       2.38632622       1.65086700       6.28427603        4      -0.02601902      -0.00815825       0.06758003
In       5.00933210       1.12397583       7.58484967        5      -0.02601902       0.00815825      -0.06758003
In       2.85968556       4.42570983       0.65028682        6       0.02601902      -0.00815825      -0.06758003
In       0.23667967       3.89881865      13.21883888        7       0.02601902       0.00815825       0.06758003
In       2.77045138       3.21497406      11.24898692        8      -0.20425865      -0.23744572       0.21411363
In       5.39345726       5.10955442       2.62013878        9      -0.20425865       0.23744572      -0.21411363
In       2.47556039       0.44013124       9.55470163       10       0.20425865      -0.23744572      -0.21411363
In      -0.14744549       2.33471159       4.31442407       11       0.20425865       0.23744572       0.21411363
In       2.47556039       2.33471159       2.62013878       12       0.20425865       0.23744572      -0.21411363
In      -0.14744549       0.44013124      11.24898692       13       0.20425865      -0.23744572       0.21411363
In       2.77045138       5.10955442       4.31442407       14      -0.20425865       0.23744572       0.21411363
In       5.39345726       3.21497406       9.55470163       15      -0.20425865      -0.23744572      -0.21411363
O        4.65244188       4.00844731      11.23118412       16       0.01964865      -0.00849458       0.10798746
O        2.02943599       4.31608117       2.63794158       17       0.01964865       0.00849458      -0.10798746
O        0.59356989       1.23360448       9.57250443       18      -0.01964865      -0.00849458      -0.10798746
O        3.21657578       1.54123835       4.29662127       19      -0.01964865       0.00849458       0.10798746
O        0.59356989       1.54123835       2.63794158       20      -0.01964865       0.00849458      -0.10798746
O        3.21657578       1.23360448      11.23118412       21      -0.01964865      -0.00849458       0.10798746
O        4.65244188       4.31608117       4.29662127       22       0.01964865       0.00849458       0.10798746
O        2.02943599       4.00844731       9.57250443       23       0.01964865      -0.00849458      -0.10798746
O        3.40716780       2.05410718       8.62863015       24       0.04578397       0.13458467       0.07286315
O        0.78416192       6.27042130       5.24049555       25       0.04578397      -0.13458467      -0.07286315
O        1.83884397      -0.72073564      12.17505840       26      -0.04578397       0.13458467      -0.07286315
O        4.46184986       3.49557847       1.69406730       27      -0.04578397      -0.13458467       0.07286315
O        1.83884397       3.49557847       5.24049555       28      -0.04578397      -0.13458467      -0.07286315
O        4.46184986      -0.72073564       8.62863015       29      -0.04578397       0.13458467       0.07286315
O        3.40716780       6.27042130       1.69406730       30       0.04578397      -0.13458467       0.07286315
O        0.78416192       2.05410718      12.17505840       31       0.04578397       0.13458467      -0.07286315
O        3.62992278       2.87674922      13.23022578       32      -0.13594573       0.07471336       0.09598088
O        1.00691689       5.44777926       0.63889992       33      -0.13594573      -0.07471336      -0.09598088
O        1.61608899       0.10190639       7.57346277       34       0.13594573       0.07471336      -0.09598088
O        4.23909488       2.67293644       6.29566293       35       0.13594573      -0.07471336       0.09598088
O        1.61608899       2.67293644       0.63889992       36       0.13594573      -0.07471336      -0.09598088
O        4.23909488       0.10190639      13.23022578       37       0.13594573       0.07471336       0.09598088
O        3.62992278       5.44777926       6.29566293       38      -0.13594573      -0.07471336       0.09598088
O        1.00691689       2.87674922       7.57346277       39      -0.13594573       0.07471336      -0.09598088
40
Lattice="5.256099826042019 -1.4972930031207238e-42 6.003909328053483e-83 1.5696168237167833e-42 5.546428079094445 -1.1267150738462029e-40 -7.376333279155811e-83 -4.821409656068089e-40 13.850636726222215" Properties=species:S:1:pos:R:3:spacegroup_kinds:I:1:forces:R:3 spacegroup="P 1" unit_cell=conventional occupancy="_JSON {\"0\": {\"In\": 1}, \"1\": {\"In\": 1}, \"2\": {\"In\": 1}, \"3\": {\"In\": 1}, \"4\": {\"In\": 1}, \"5\": {\"In\": 1}, \"6\": {\"In\": 1}, \"7\": {\"In\": 1}, \"8\": {\"In\": 1}, \"9\": {\"In\": 1}, \"10\": {\"In\": 1}, \"11\": {\"In\": 1}, \"12\": {\"In\": 1}, \"13\": {\"In\": 1}, \"14\": {\"In\": 1}, \"15\": {\"In\": 1}, \"16\": {\"O\": 1}, \"17\": {\"O\": 1}, \"18\": {\"O\": 1}, \"19\": {\"O\": 1}, \"20\": {\"O\": 1}, \"21\": {\"O\": 1}, \"22\": {\"O\": 1}, \"23\": {\"O\": 1}, \"24\": {\"O\": 1}, \"25\": {\"O\": 1}, \"26\": {\"O\": 1}, \"27\": {\"O\": 1}, \"28\": {\"O\": 1}, \"29\": {\"O\": 1}, \"30\": {\"O\": 1}, \"31\": {\"O\": 1}, \"32\": {\"O\": 1}, \"33\": {\"O\": 1}, \"34\": {\"O\": 1}, \"35\": {\"O\": 1}, \"36\": {\"O\": 1}, \"37\": {\"O\": 1}, \"38\": {\"O\": 1}, \"39\": {\"O\": 1}}" n_minim_iter=2 energy=-45138.419129083995 stress="-0.30557674140677693 -5.930744514479024e-13 1.1599714239300718e-13 -5.930744514479024e-13 -0.3082994870253739 -1.1762658776248733e-12 1.1599714239300718e-13 -1.1762658776248733e-12 -0.3088585074459019" free_energy=-45138.419129083995 pbc="T T T"
In       2.86522643       3.89654316       7.57463030        0       0.01977565       0.00493048      -0.05879315
In       0.23717652       4.42309896       6.27600643        1       0.01977565      -0.00493048       0.05879315
In       2.39087340       1.12332912      13.20132479        2      -0.01977565       0.00493048       0.05879315
In       5.01892331       1.64988492       0.64931193        3      -0.01977565      -0.00493048      -0.05879315
In       2.39087340       1.64988492       6.27600643        4      -0.01977565      -0.00493048       0.05879315
In       5.01892331       1.12332912       7.57463030        5      -0.01977565       0.00493048      -0.05879315
In       2.86522643       4.42309896       0.64931193        6       0.01977565      -0.00493048      -0.05879315
In       0.23717652       3.89654316      13.20132479        7       0.01977565       0.00493048       0.05879315
In       2.77545149       3.21270723      11.23433300        8      -0.16130145      -0.20812117       0.19402766
In       5.40350140       5.10693489       2.61630373        9      -0.16130145       0.20812117      -0.19402766
In       2.48064834       0.43949319       9.54162209       10       0.16130145      -0.20812117      -0.19402766
In      -0.14740158       2.33372085       4.30901463       11       0.16130145       0.20812117       0.19402766
In       2.48064834       2.33372085       2.61630373       12       0.16130145       0.20812117      -0.19402766
In      -0.14740158       0.43949319      11.23433300       13       0.16130145      -0.20812117       0.19402766
In       2.77545149       5.10693489       4.30901463       14      -0.16130145       0.20812117       0.19402766
In       5.40350140       3.21270723       9.54162209       15      -0.16130145      -0.20812117      -0.19402766
O        4.66142000       4.00608083      11.21638435       16      -0.02457056      -0.03708504       0.11489985
O        2.03337009       4.31356129       2.63425237       17      -0.02457056       0.03708504      -0.11489985
O        0.59467983       1.23286679       9.55957074       18       0.02457056      -0.03708504      -0.11489985
O        3.22272974       1.54034725       4.29106599       19       0.02457056       0.03708504       0.11489985
O        0.59467983       1.54034725       2.63425237       20       0.02457056       0.03708504      -0.11489985
O        3.22272974       1.23286679      11.21638435       21       0.02457056      -0.03708504       0.11489985
O        4.66142000       4.31356129       4.29106599       22      -0.02457056       0.03708504       0.11489985
O        2.03337009       4.00608083       9.55957074       23      -0.02457056      -0.03708504      -0.11489985
O        3.41379317       2.05311667       8.61724373       24       0.03863119       0.13549554       0.07159131
O        0.78574325       6.26652545       5.23339300       25       0.03863119      -0.13549554      -0.07159131
O        1.84230666      -0.72009737      12.15871136       26      -0.03863119       0.13549554      -0.07159131
O        4.47035657       3.49331141       1.69192537       27      -0.03863119      -0.13549554       0.07159131
O        1.84230666       3.49331141       5.23339300       28      -0.03863119      -0.13549554      -0.07159131
O        4.47035657      -0.72009737       8.61724373       29      -0.03863119       0.13549554       0.07159131
O        3.41379317       6.26652545       1.69192537       30       0.03863119      -0.13549554       0.07159131
O        0.78574325       2.05311667      12.15871136       31       0.03863119       0.13549554      -0.07159131
O        3.63668516       2.87518009      13.21274189       32      -0.10544359       0.07205948       0.09354159
O        1.00863525       5.44446203       0.63789483       33      -0.10544359      -0.07205948      -0.09354159
O        1.61941466       0.10196605       7.56321320       34       0.10544359       0.07205948      -0.09354159
O        4.24746458       2.67124799       6.28742353       35       0.10544359      -0.07205948       0.09354159
O        1.61941466       2.67124799       0.63789483       36       0.10544359      -0.07205948      -0.09354159
O        4.24746458       0.10196605      13.21274189       37       0.10544359       0.07205948       0.09354159
O        3.63668516       5.44446203       6.28742353       38      -0.10544359      -0.07205948       0.09354159
O        1.00863525       2.87518009       7.56321320       39      -0.10544359       0.07205948      -0.09354159
40
Lattice="5.242144119422375 -1.5578084170708677e-42 9.619590190627021e-82 1.470605790942121e-42 5.557884072996761 -3.333692776122214e-39 -7.404954521634889e-83 -8.532804713798817e-39 13.858884933914501" Properties=species:S:1:pos:R:3:spacegroup_kinds:I:1:forces:R:3 spacegroup="P 1" unit_cell=conventional occupancy="_JSON {\"0\": {\"In\": 1}, \"1\": {\"In\": 1}, \"2\": {\"In\": 1}, \"3\": {\"In\": 1}, \"4\": {\"In\": 1}, \"5\": {\"In\": 1}, \"6\": {\"In\": 1}, \"7\": {\"In\": 1}, \"8\": {\"In\": 1}, \"9\": {\"In\": 1}, \"10\": {\"In\": 1}, \"11\": {\"In\": 1}, \"12\": {\"In\": 1}, \"13\": {\"In\": 1}, \"14\": {\"In\": 1}, \"15\": {\"In\": 1}, \"16\": {\"O\": 1}, \"17\": {\"O\": 1}, \"18\": {\"O\": 1}, \"19\": {\"O\": 1}, \"20\": {\"O\": 1}, \"21\": {\"O\": 1}, \"22\": {\"O\": 1}, \"23\": {\"O\": 1}, \"24\": {\"O\": 1}, \"25\": {\"O\": 1}, \"26\": {\"O\": 1}, \"27\": {\"O\": 1}, \"28\": {\"O\": 1}, \"29\": {\"O\": 1}, \"30\": {\"O\": 1}, \"31\": {\"O\": 1}, \"32\": {\"O\": 1}, \"33\": {\"O\": 1}, \"34\": {\"O\": 1}, \"35\": {\"O\": 1}, \"36\": {\"O\": 1}, \"37\": {\"O\": 1}, \"38\": {\"O\": 1}, \"39\": {\"O\": 1}}" n_minim_iter=3 energy=-45138.45372086968 stress="-0.3010988292272681 -1.790608190321009e-13 -8.228778853169679e-13 -1.790608190321009e-13 -0.30292584842428083 -7.777490509984929e-13 -8.228778853169679e-13 -7.777490509984929e-13 -0.3005810272474733" free_energy=-45138.45372086968 pbc="T T T"
In       2.85861617       3.90486837       7.57634572        0      -0.04294757      -0.10822223      -0.02524043
In       0.23754411       4.43195774       6.28253922        1      -0.04294757       0.10822223       0.02524043
In       2.38352795       1.12592633      13.21198169        2       0.04294757      -0.10822223       0.02524043
In       5.00460001       1.65301570       0.64690325        3       0.04294757       0.10822223      -0.02524043
In       2.38352795       1.65301570       6.28253922        4       0.04294757       0.10822223       0.02524043
In       5.00460001       1.12592633       7.57634572        5       0.04294757      -0.10822223      -0.02524043
In       2.85861617       4.43195774       0.64690325        6      -0.04294757       0.10822223      -0.02524043
In       0.23754411       3.90486837      13.21198169        7      -0.04294757      -0.10822223       0.02524043
In       2.76008137       3.20945138      11.25009852        8      -0.14314780       0.07377984      -0.12411928
In       5.38115343       5.12737473       2.60878641        9      -0.14314780      -0.07377984       0.12411928
In       2.48206275       0.43050934       9.53822888       10       0.14314780       0.07377984       0.12411928
In      -0.13900931       2.34843269       4.32065606       11       0.14314780      -0.07377984      -0.12411928
In       2.48206275       2.34843269       2.60878641       12       0.14314780      -0.07377984       0.12411928
In      -0.13900931       0.43050934      11.25009852       13       0.14314780       0.07377984      -0.12411928
In       2.76008137       5.12737473       4.32065606       14      -0.14314780      -0.07377984      -0.12411928
In       5.38115343       3.20945138       9.53822888       15      -0.14314780       0.07377984       0.12411928
O        4.64867781       4.01316240      11.22812196       16      -0.07166536      -0.17757913      -0.11369443
O        2.02760575       4.32366371       2.63076297       17      -0.07166536       0.17757913       0.11369443
O        0.59346631       1.23422036       9.56020544       18       0.07166536      -0.17757913       0.11369443
O        3.21453836       1.54472168       4.29867950       19       0.07166536       0.17757913      -0.11369443
O        0.59346631       1.54472168       2.63076297       20       0.07166536       0.17757913       0.11369443
O        3.21453836       1.23422036      11.22812196       21       0.07166536      -0.17757913      -0.11369443
O        4.64867781       4.32366371       4.29867950       22      -0.07166536       0.17757913      -0.11369443
O        2.02760575       4.01316240       9.56020544       23      -0.07166536      -0.17757913       0.11369443
O        3.40659254       2.06346019       8.62562077       24       0.02225596       0.06743838       0.12160376
O        0.78552048       6.27336592       5.23326417       25       0.02225596      -0.06743838      -0.12160376
O        1.83555158      -0.71548184      12.16270663       26      -0.02225596       0.06743838      -0.12160376
O        4.45662364       3.49442388       1.69617830       27      -0.02225596      -0.06743838       0.12160376
O        1.83555158       3.49442388       5.23326417       28      -0.02225596      -0.06743838      -0.12160376
O        4.45662364      -0.71548184       8.62562077       29      -0.02225596       0.06743838       0.12160376
O        3.40659254       6.27336592       1.69617830       30       0.02225596      -0.06743838       0.12160376
O        0.78552048       2.06346019      12.16270663       31       0.02225596       0.06743838      -0.12160376
O        3.62175832       2.88441720      13.22486372       32      -0.01359071      -0.02144383       0.02026829
O        1.00068626       5.45240891       0.63402121       33      -0.01359071       0.02144383      -0.02026829
O        1.62038580       0.10547516       7.56346368       34       0.01359071      -0.02144383      -0.02026829
O        4.24145786       2.67346687       6.29542126       35       0.01359071       0.02144383       0.02026829
O        1.62038580       2.67346687       0.63402121       36       0.01359071       0.02144383      -0.02026829
O        4.24145786       0.10547516      13.22486372       37       0.01359071      -0.02144383       0.02026829
O        3.62175832       5.45240891       6.29542126       38      -0.01359071       0.02144383       0.02026829
O        1.00068626       2.88441720       7.56346368       39      -0.01359071      -0.02144383      -0.02026829
40
Lattice="5.239666590354227 -1.5601228869219763e-42 8.16140532749584e-81 1.470285149488283e-42 5.56740367980036 -2.9114740850448417e-38 -7.304317560520419e-83 -7.260488238793656e-38 13.841729711145103" Properties=species:S:1:pos:R:3:spacegroup_kinds:I:1:forces:R:3 spacegroup="P 1" unit_cell=conventional occupancy="_JSON {\"0\": {\"In\": 1}, \"1\": {\"In\": 1}, \"2\": {\"In\": 1}, \"3\": {\"In\": 1}, \"4\": {\"In\": 1}, \"5\": {\"In\": 1}, \"6\": {\"In\": 1}, \"7\": {\"In\": 1}, \"8\": {\"In\": 1}, \"9\": {\"In\": 1}, \"10\": {\"In\": 1}, \"11\": {\"In\": 1}, \"12\": {\"In\": 1}, \"13\": {\"In\": 1}, \"14\": {\"In\": 1}, \"15\": {\"In\": 1}, \"16\": {\"O\": 1}, \"17\": {\"O\": 1}, \"18\": {\"O\": 1}, \"19\": {\"O\": 1}, \"20\": {\"O\": 1}, \"21\": {\"O\": 1}, \"22\": {\"O\": 1}, \"23\": {\"O\": 1}, \"24\": {\"O\": 1}, \"25\": {\"O\": 1}, \"26\": {\"O\": 1}, \"27\": {\"O\": 1}, \"28\": {\"O\": 1}, \"29\": {\"O\": 1}, \"30\": {\"O\": 1}, \"31\": {\"O\": 1}, \"32\": {\"O\": 1}, \"33\": {\"O\": 1}, \"34\": {\"O\": 1}, \"35\": {\"O\": 1}, \"36\": {\"O\": 1}, \"37\": {\"O\": 1}, \"38\": {\"O\": 1}, \"39\": {\"O\": 1}}" n_minim_iter=4 energy=-45138.4559054958 stress="-0.3014680343615398 -6.50913685532662e-13 -5.370939212033236e-13 -6.50913685532662e-13 -0.29865120863784395 1.8963453425074498e-14 -5.370939212033236e-13 1.8963453425074498e-14 -0.3031616953282136" free_energy=-45138.4559054958 pbc="T T T"
In       2.85720441       3.91125568       7.56671189        0      -0.04355990      -0.11692145      -0.04479048
In       0.23737111       4.43984984       6.27501782        1      -0.04355990       0.11692145       0.04479048
In       2.38246218       1.12755384      13.19588268        2       0.04355990      -0.11692145       0.04479048
In       5.00229548       1.65614800       0.64584703        3       0.04355990       0.11692145      -0.04479048
In       2.38246218       1.65614800       6.27501782        4       0.04355990       0.11692145       0.04479048
In       5.00229548       1.12755384       7.56671189        5       0.04355990      -0.11692145      -0.04479048
In       2.85720441       4.43984984       0.64584703        6      -0.04355990       0.11692145      -0.04479048
In       0.23737111       3.91125568      13.19588268        7      -0.04355990      -0.11692145       0.04479048
In       2.75783553       3.21452219      11.23639752        8      -0.11939495       0.02457917      -0.11286637
In       5.37766883       5.13658333       2.60533219        9      -0.11939495      -0.02457917       0.11286637
In       2.48183106       0.43082035       9.52619704       10       0.11939495       0.02457917       0.11286637
In      -0.13800224       2.35288149       4.31553267       11       0.11939495      -0.02457917      -0.11286637
In       2.48183106       2.35288149       2.60533219       12       0.11939495      -0.02457917       0.11286637
In      -0.13800224       0.43082035      11.23639752       13       0.11939495       0.02457917      -0.11286637
In       2.75783553       5.13658333       4.31553267       14      -0.11939495      -0.02457917      -0.11286637
In       5.37766883       3.21452219       9.52619704       15      -0.11939495       0.02457917       0.11286637
O        4.64625187       4.01943808      11.21421628       16      -0.08177638      -0.12960703      -0.10523545
O        2.02641858       4.33166744       2.62751343       17      -0.08177638       0.12960703       0.10523545
O        0.59341472       1.23573624       9.54837829       18       0.08177638      -0.12960703       0.10523545
O        3.21324801       1.54796560       4.29335142       19       0.08177638       0.12960703      -0.10523545
O        0.59341472       1.54796560       2.62751343       20       0.08177638       0.12960703       0.10523545
O        3.21324801       1.23573624      11.21421628       21       0.08177638      -0.12960703      -0.10523545
O        4.64625187       4.33166744       4.29335142       22      -0.08177638       0.12960703      -0.10523545
O        2.02641858       4.01943808       9.54837829       23      -0.08177638      -0.12960703       0.10523545
O        3.40516898       2.06758878       8.61550946       24       0.01590196       0.07055241       0.12236886
O        0.78533568       6.28351674       5.22622025       25       0.01590196      -0.07055241      -0.12236886
O        1.83449761      -0.71611306      12.14708511       26      -0.01590196       0.07055241      -0.12236886
O        4.45433091       3.49981490       1.69464460       27      -0.01590196      -0.07055241       0.12236886
O        1.83449761       3.49981490       5.22622025       28      -0.01590196      -0.07055241      -0.12236886
O        4.45433091      -0.71611306       8.61550946       29      -0.01590196       0.07055241       0.12236886
O        3.40516898       6.28351674       1.69464460       30       0.01590196      -0.07055241       0.12236886
O        0.78533568       2.06758878      12.14708511       31       0.01590196       0.07055241      -0.12236886
O        3.61966277       2.88950839      13.20882772       32      -0.01950140      -0.03529315       0.01299805
O        0.99982947       5.46159713       0.63290199       33      -0.01950140       0.03529315      -0.01299805
O        1.62000382       0.10580655       7.55376685       34       0.01950140      -0.03529315      -0.01299805
O        4.23983712       2.67789529       6.28796286       35       0.01950140       0.03529315       0.01299805
O        1.62000382       2.67789529       0.63290199       36       0.01950140       0.03529315      -0.01299805
O        4.23983712       0.10580655      13.20882772       37       0.01950140      -0.03529315       0.01299805
O        3.61966277       5.46159713       6.28796286       38      -0.01950140       0.03529315       0.01299805
O        0.99982947       2.88950839       7.55376685       39      -0.01950140      -0.03529315      -0.01299805
40
Lattice="5.2356674876215505 -1.5511040104426942e-42 1.0466502431771066e-80 1.464945304757246e-42 5.564238242786653 -3.7120740849598894e-38 -7.371753128029716e-83 -9.244649741569701e-38 13.860182718496976" Properties=species:S:1:pos:R:3:spacegroup_kinds:I:1:forces:R:3 spacegroup="P 1" unit_cell=conventional occupancy="_JSON {\"0\": {\"In\": 1}, \"1\": {\"In\": 1}, \"2\": {\"In\": 1}, \"3\": {\"In\": 1}, \"4\": {\"In\": 1}, \"5\": {\"In\": 1}, \"6\": {\"In\": 1}, \"7\": {\"In\": 1}, \"8\": {\"In\": 1}, \"9\": {\"In\": 1}, \"10\": {\"In\": 1}, \"11\": {\"In\": 1}, \"12\": {\"In\": 1}, \"13\": {\"In\": 1}, \"14\": {\"In\": 1}, \"15\": {\"In\": 1}, \"16\": {\"O\": 1}, \"17\": {\"O\": 1}, \"18\": {\"O\": 1}, \"19\": {\"O\": 1}, \"20\": {\"O\": 1}, \"21\": {\"O\": 1}, \"22\": {\"O\": 1}, \"23\": {\"O\": 1}, \"24\": {\"O\": 1}, \"25\": {\"O\": 1}, \"26\": {\"O\": 1}, \"27\": {\"O\": 1}, \"28\": {\"O\": 1}, \"29\": {\"O\": 1}, \"30\": {\"O\": 1}, \"31\": {\"O\": 1}, \"32\": {\"O\": 1}, \"33\": {\"O\": 1}, \"34\": {\"O\": 1}, \"35\": {\"O\": 1}, \"36\": {\"O\": 1}, \"37\": {\"O\": 1}, \"38\": {\"O\": 1}, \"39\": {\"O\": 1}}" n_minim_iter=5 energy=-45138.475555035555 stress="-0.29830736468161523 -1.0921644780680522e-13 -9.241002568738556e-14 -1.0921644780680522e-13 -0.29742322800636534 -7.327901396050529e-13 -9.241002568738556e-14 -7.327901396050529e-13 -0.2979150320590705" free_energy=-45138.475555035555 pbc="T T T"
In       2.85392562       3.90496816       7.57412829        0      -0.05180783       0.01411296       0.08150643
In       0.23609188       4.44138921       6.28605443        1      -0.05180783      -0.01411296      -0.08150643
In       2.38174187       1.12284903      13.21614579        2       0.05180783       0.01411296      -0.08150643
In       4.99957561       1.65927009       0.64403693        3       0.05180783      -0.01411296       0.08150643
In       2.38174187       1.65927009       6.28605443        4       0.05180783      -0.01411296      -0.08150643
In       4.99957561       1.12284903       7.57412829        5       0.05180783       0.01411296       0.08150643
In       2.85392562       4.44138921       0.64403693        6      -0.05180783      -0.01411296       0.08150643
In       0.23609188       3.90496816      13.21614579        7      -0.05180783       0.01411296      -0.08150643
In       2.74653805       3.20965223      11.25157154        8       0.04125234      -0.04790962      -0.01984270
In       5.36437179       5.13670514       2.60861118        9       0.04125234       0.04790962       0.01984270
In       2.48912944       0.42753311       9.53870254       10      -0.04125234      -0.04790962       0.01984270
In      -0.12870430       2.35458602       4.32148018       11      -0.04125234       0.04790962      -0.01984270
In       2.48912944       2.35458602       2.60861118       12      -0.04125234       0.04790962       0.01984270
In      -0.12870430       0.42753311      11.25157154       13      -0.04125234      -0.04790962      -0.01984270
In       2.74653805       5.13670514       4.32148018       14       0.04125234       0.04790962      -0.01984270
In       5.36437179       3.20965223       9.53870254       15       0.04125234      -0.04790962       0.01984270
O        4.63974698       4.01055223      11.22761214       16      -0.11431504      -0.02362642       0.02883815
O        2.02191323       4.33580513       2.63257057       17      -0.11431504       0.02362642      -0.02883815
O        0.59592051       1.22843311       9.56266193       18       0.11431504      -0.02362642      -0.02883815
O        3.21375425       1.55368601       4.29752078       19       0.11431504       0.02362642       0.02883815
O        0.59592051       1.55368601       2.63257057       20       0.11431504       0.02362642      -0.02883815
O        3.21375425       1.22843311      11.22761214       21       0.11431504      -0.02362642       0.02883815
O        4.63974698       4.33580513       4.29752078       22      -0.11431504       0.02362642       0.02883815
O        2.02191323       4.01055223       9.56266193       23      -0.11431504      -0.02362642      -0.02883815
O        3.40428041       2.07214383       8.63323809       24       0.07095723       0.03900097       0.07307574
O        0.78644667       6.27421353       5.22694463       25       0.07095723      -0.03900097      -0.07307574
O        1.83138707      -0.70997529      12.15703599       26      -0.07095723       0.03900097      -0.07307574
O        4.44922082       3.49209441       1.70314673       27      -0.07095723      -0.03900097       0.07307574
O        1.83138707       3.49209441       5.22694463       28      -0.07095723      -0.03900097      -0.07307574
O        4.44922082      -0.70997529       8.63323809       29      -0.07095723       0.03900097       0.07307574
O        3.40428041       6.27421353       1.70314673       30       0.07095723      -0.03900097       0.07307574
O        0.78644667       2.07214383      12.15703599       31       0.07095723       0.03900097      -0.07307574
O        3.61356222       2.88855982      13.22928484       32      -0.02010391      -0.07638327      -0.08475120
O        0.99572848       5.45779754       0.63089788       33      -0.02010391       0.07638327       0.08475120
O        1.62210526       0.10644070       7.56098924       34       0.02010391      -0.07638327       0.08475120
O        4.23993901       2.67567842       6.29919348       35       0.02010391       0.07638327      -0.08475120
O        1.62210526       2.67567842       0.63089788       36       0.02010391       0.07638327       0.08475120
O        4.23993901       0.10644070      13.22928484       37       0.02010391      -0.07638327      -0.08475120
O        3.61356222       5.45779754       6.29919348       38      -0.02010391       0.07638327      -0.08475120
O        0.99572848       2.88855982       7.56098924       39      -0.02010391      -0.07638327       0.08475120
40