40
Lattice="5.4394485498269685 -9.546610295491532e-43 2.5812503402220683e-85 9.112817867964845e-43 5.277252206046523 -1.1571269972011716e-42 -2.3968900078006722e-85 -5.575135777588248e-42 14.973945641625109" Properties=species:S:1:pos:R:3:spacegroup_kinds:I:1:forces:R:3 spacegroup="P 1" unit_cell=conventional occupancy="_JSON {\"0\": {\"In\": 1}, \"1\": {\"In\": 1}, \"2\": {\"In\": 1}, \"3\": {\"In\": 1}, \"4\": {\"In\": 1}, \"5\": {\"In\": 1}, \"6\": {\"In\": 1}, \"7\": {\"In\": 1}, \"8\": {\"In\": 1}, \"9\": {\"In\": 1}, \"10\": {\"In\": 1}, \"11\": {\"In\": 1}, \"12\": {\"In\": 1}, \"13\": {\"In\": 1}, \"14\": {\"In\": 1}, \"15\": {\"In\": 1}, \"16\": {\"O\": 1}, \"17\": {\"O\": 1}, \"18\": {\"O\": 1}, \"19\": {\"O\": 1}, \"20\": {\"O\": 1}, \"21\": {\"O\": 1}, \"22\": {\"O\": 1}, \"23\": {\"O\": 1}, \"24\": {\"O\": 1}, \"25\": {\"O\": 1}, \"26\": {\"O\": 1}, \"27\": {\"O\": 1}, \"28\": {\"O\": 1}, \"29\": {\"O\": 1}, \"30\": {\"O\": 1}, \"31\": {\"O\": 1}, \"32\": {\"O\": 1}, \"33\": {\"O\": 1}, \"34\": {\"O\": 1}, \"35\": {\"O\": 1}, \"36\": {\"O\": 1}, \"37\": {\"O\": 1}, \"38\": {\"O\": 1}, \"39\": {\"O\": 1}}" n_minim_iter=9 energy=-45143.8048562786 stress="-0.21331897746523024 1.7690637898023132e-13 -2.832541797012567e-13 1.7690637898023132e-13 -0.2130797697999781 1.0256059166258594e-13 -2.832541797012567e-13 1.0256059166258594e-13 -0.21339729105383146" free_energy=-45143.8048562786 pbc="T T T"
In       2.83263890       3.87133174       8.42079414        0      -0.00325559      -0.00188061      -0.00536809
In       0.11291462       4.04454657       6.55315150        1      -0.00325559       0.00188061       0.00536809
In       2.60680965       1.23270563      14.04012432        2       0.00325559      -0.00188061       0.00536809
In       5.32653392       1.40592047       0.93382132        3       0.00325559       0.00188061      -0.00536809
In       2.60680965       1.40592047       6.55315150        4       0.00325559       0.00188061       0.00536809
In       5.32653392       1.23270563       8.42079414        5       0.00325559      -0.00188061      -0.00536809
In       2.83263890       4.04454657       0.93382132        6      -0.00325559       0.00188061      -0.00536809
In       0.11291462       3.87133174      14.04012432        7      -0.00325559      -0.00188061       0.00536809
In       2.79620455       3.59818010      12.21447988        8       0.00329306      -0.00118834      -0.00289953
In       5.51592882       4.31769821       2.75946576        9       0.00329306       0.00118834       0.00289953
In       2.64324400       0.95955400      10.24643858       10      -0.00329306      -0.00118834       0.00289953
In      -0.07648027       1.67907211       4.72750706       11      -0.00329306       0.00118834      -0.00289953
In       2.64324400       1.67907211       2.75946576       12      -0.00329306       0.00118834       0.00289953
In      -0.07648027       0.95955400      12.21447988       13      -0.00329306      -0.00118834      -0.00289953
In       2.79620455       4.31769821       4.72750706       14       0.00329306       0.00118834      -0.00289953
In       5.51592882       3.59818010      10.24643858       15       0.00329306      -0.00118834       0.00289953
O        4.74901593       4.23629770      12.02776607       16      -0.00257246       0.00529902      -0.00107517
O        2.02929166       3.67958061       2.94617957       17      -0.00257246      -0.00529902       0.00107517
O        0.69043262       1.59767160      10.43315239       18       0.00257246       0.00529902       0.00107517
O        3.41015689       1.04095450       4.54079325       19       0.00257246      -0.00529902      -0.00107517
O        0.69043262       1.04095450       2.94617957       20       0.00257246      -0.00529902       0.00107517
O        3.41015689       1.59767160      12.02776607       21       0.00257246       0.00529902      -0.00107517
O        4.74901593       3.67958061       4.54079325       22      -0.00257246      -0.00529902      -0.00107517
O        2.02929166       4.23629770      10.43315239       23      -0.00257246       0.00529902       0.00107517
O        3.86753706       2.44186847       9.45112828       24      -0.00363070       0.00127126      -0.00412199
O        1.14781278       5.47400984       5.52281736       25      -0.00363070      -0.00127126       0.00412199
O        1.57191149      -0.19675764      13.00979018       26       0.00363070       0.00127126       0.00412199
O        4.29163577       2.83538374       1.96415546       27       0.00363070      -0.00127126      -0.00412199
O        1.57191149       2.83538374       5.52281736       28       0.00363070      -0.00127126       0.00412199
O        4.29163577      -0.19675764       9.45112828       29       0.00363070       0.00127126      -0.00412199
O        3.86753706       5.47400984       1.96415546       30      -0.00363070      -0.00127126      -0.00412199
O        1.14781278       2.44186847      13.00979018       31      -0.00363070       0.00127126       0.00412199
O        3.62069359       3.14090191      14.20333186       32      -0.00599503       0.00189620      -0.00234662
O        0.90096931       4.77497640       0.77061378       33      -0.00599503      -0.00189620       0.00234662
O        1.81875496       0.50227581       8.25758660       34       0.00599503       0.00189620       0.00234662
O        4.53847924       2.13635030       6.71635904       35       0.00599503      -0.00189620      -0.00234662
O        1.81875496       2.13635030       0.77061378       36       0.00599503      -0.00189620       0.00234662
O        4.53847924       0.50227581      14.20333186       37       0.00599503       0.00189620      -0.00234662
O        3.62069359       4.77497640       6.71635904       38      -0.00599503      -0.00189620      -0.00234662
O        0.90096931       3.14090191       8.25758660       39      -0.00599503       0.00189620       0.00234662
