40
Lattice="5.185938739913003 -1.5884574987104634e-42 3.632548950644387e-80 2.4223307423774264e-42 5.514154633728629 -1.1144493981445496e-37 5.219109536706333e-81 -9.596114162877004e-38 13.664695777776922" Properties=species:S:1:pos:R:3:spacegroup_kinds:I:1:forces:R:3 spacegroup="P 1" unit_cell=conventional occupancy="_JSON {\"0\": {\"In\": 1}, \"1\": {\"In\": 1}, \"2\": {\"In\": 1}, \"3\": {\"In\": 1}, \"4\": {\"In\": 1}, \"5\": {\"In\": 1}, \"6\": {\"In\": 1}, \"7\": {\"In\": 1}, \"8\": {\"In\": 1}, \"9\": {\"In\": 1}, \"10\": {\"In\": 1}, \"11\": {\"In\": 1}, \"12\": {\"In\": 1}, \"13\": {\"In\": 1}, \"14\": {\"In\": 1}, \"15\": {\"In\": 1}, \"16\": {\"O\": 1}, \"17\": {\"O\": 1}, \"18\": {\"O\": 1}, \"19\": {\"O\": 1}, \"20\": {\"O\": 1}, \"21\": {\"O\": 1}, \"22\": {\"O\": 1}, \"23\": {\"O\": 1}, \"24\": {\"O\": 1}, \"25\": {\"O\": 1}, \"26\": {\"O\": 1}, \"27\": {\"O\": 1}, \"28\": {\"O\": 1}, \"29\": {\"O\": 1}, \"30\": {\"O\": 1}, \"31\": {\"O\": 1}, \"32\": {\"O\": 1}, \"33\": {\"O\": 1}, \"34\": {\"O\": 1}, \"35\": {\"O\": 1}, \"36\": {\"O\": 1}, \"37\": {\"O\": 1}, \"38\": {\"O\": 1}, \"39\": {\"O\": 1}}" n_minim_iter=16 energy=-45134.13800557831 stress="-0.3805500672303648 -6.913469097010404e-14 -7.414971772540267e-14 -6.913469097010404e-14 -0.38055576070698854 -1.3762113056380507e-12 -7.414971772540267e-14 -1.3762113056380507e-12 -0.38055124285232433" free_energy=-45134.13800557831 pbc="T T T"
In       2.82375888       3.86483393       7.46946159        0      -0.00023106       0.00284837       0.00100523
In       0.23078951       4.40639802       6.19523419        1      -0.00023106      -0.00284837      -0.00100523
In       2.36217986       1.10775661      13.02758208        2       0.00023106       0.00284837      -0.00100523
In       4.95514923       1.64932070       0.63711370        3       0.00023106      -0.00284837       0.00100523
In       2.36217986       1.64932070       6.19523419        4       0.00023106      -0.00284837      -0.00100523
In       4.95514923       1.10775661       7.46946159        5       0.00023106       0.00284837       0.00100523
In       2.82375888       4.40639802       0.63711370        6      -0.00023106      -0.00284837       0.00100523
In       0.23078951       3.86483393      13.02758208        7      -0.00023106       0.00284837      -0.00100523
In       2.67429598       3.14390756      11.09557814        8       0.00749301      -0.00208593       0.00074520
In       5.26726535       5.12732440       2.56911764        9       0.00749301       0.00208593      -0.00074520
In       2.51164276       0.38683024       9.40146553       10      -0.00749301      -0.00208593      -0.00074520
In      -0.08132661       2.37024708       4.26323025       11      -0.00749301       0.00208593       0.00074520
In       2.51164276       2.37024708       2.56911764       12      -0.00749301       0.00208593      -0.00074520
In      -0.08132661       0.38683024      11.09557814       13      -0.00749301      -0.00208593       0.00074520
In       2.67429598       5.12732440       4.26323025       14       0.00749301       0.00208593       0.00074520
In       5.26726535       3.14390756       9.40146553       15       0.00749301      -0.00208593      -0.00074520
O        4.53998361       3.95255535      11.08085660       16       0.00121202       0.00214506      -0.00593840
O        1.94701424       4.31867660       2.58383918       17       0.00121202      -0.00214506       0.00593840
O        0.64595513       1.19547803       9.41618707       18      -0.00121202       0.00214506       0.00593840
O        3.23892450       1.56159929       4.24850871       19      -0.00121202      -0.00214506      -0.00593840
O        0.64595513       1.56159929       2.58383918       20      -0.00121202      -0.00214506       0.00593840
O        3.23892450       1.19547803      11.08085660       21      -0.00121202       0.00214506      -0.00593840
O        4.53998361       4.31867660       4.24850871       22       0.00121202      -0.00214506      -0.00593840
O        1.94701424       3.95255535       9.41618707       23       0.00121202       0.00214506       0.00593840
O        3.39897665       2.09713213       8.57003171       24       0.00761219       0.00526763       0.00113162
O        0.80600728       6.17409982       5.09466407       25       0.00761219      -0.00526763      -0.00113162
O        1.78696209      -0.65994518      11.92701195       26      -0.00761219       0.00526763      -0.00113162
O        4.37993146       3.41702250       1.73768382       27      -0.00761219      -0.00526763       0.00113162
O        1.78696209       3.41702250       5.09466407       28      -0.00761219      -0.00526763      -0.00113162
O        4.37993146      -0.65994518       8.57003171       29      -0.00761219       0.00526763       0.00113162
O        3.39897665       6.17409982       1.73768382       30       0.00761219      -0.00526763       0.00113162
O        0.80600728       2.09713213      11.92701195       31       0.00761219       0.00526763      -0.00113162
O        3.56836096       2.86017916      13.04276431       32       0.00027427       0.00247299      -0.00291979
O        0.97539159       5.41105280       0.62193146       33       0.00027427      -0.00247299       0.00291979
O        1.61757778       0.10310184       7.45427935       34      -0.00027427       0.00247299       0.00291979
O        4.21054715       2.65397548       6.21041643       35      -0.00027427      -0.00247299      -0.00291979
O        1.61757778       2.65397548       0.62193146       36      -0.00027427      -0.00247299       0.00291979
O        4.21054715       0.10310184      13.04276431       37      -0.00027427       0.00247299      -0.00291979
O        3.56836096       5.41105280       6.21041643       38       0.00027427      -0.00247299      -0.00291979
O        0.97539159       2.86017916       7.45427935       39       0.00027427       0.00247299       0.00291979
