40
Lattice="5.589771 0.0 0.0 0.0 5.775531 0.0 0.0 0.0 16.135291" Properties=species:S:1:pos:R:3:spacegroup_kinds:I:1:forces:R:3 spacegroup="P 1" unit_cell=conventional occupancy="_JSON {\"0\": {\"In\": 1}, \"1\": {\"In\": 1}, \"2\": {\"In\": 1}, \"3\": {\"In\": 1}, \"4\": {\"In\": 1}, \"5\": {\"In\": 1}, \"6\": {\"In\": 1}, \"7\": {\"In\": 1}, \"8\": {\"In\": 1}, \"9\": {\"In\": 1}, \"10\": {\"In\": 1}, \"11\": {\"In\": 1}, \"12\": {\"In\": 1}, \"13\": {\"In\": 1}, \"14\": {\"In\": 1}, \"15\": {\"In\": 1}, \"16\": {\"O\": 1}, \"17\": {\"O\": 1}, \"18\": {\"O\": 1}, \"19\": {\"O\": 1}, \"20\": {\"O\": 1}, \"21\": {\"O\": 1}, \"22\": {\"O\": 1}, \"23\": {\"O\": 1}, \"24\": {\"O\": 1}, \"25\": {\"O\": 1}, \"26\": {\"O\": 1}, \"27\": {\"O\": 1}, \"28\": {\"O\": 1}, \"29\": {\"O\": 1}, \"30\": {\"O\": 1}, \"31\": {\"O\": 1}, \"32\": {\"O\": 1}, \"33\": {\"O\": 1}, \"34\": {\"O\": 1}, \"35\": {\"O\": 1}, \"36\": {\"O\": 1}, \"37\": {\"O\": 1}, \"38\": {\"O\": 1}, \"39\": {\"O\": 1}}" n_minim_iter=1 energy=-45150.26407447558 stress="0.001602206468681046 -3.6297859132032364e-13 -1.053032826049389e-13 -3.6297859132032364e-13 0.000929793331266611 1.9142271206230658e-13 -1.053032826049389e-13 1.9142271206230658e-13 0.0004142963786018324" free_energy=-45150.26407447558 pbc="T T T"
In       2.80276149       4.57778405       9.19871326        0      -0.01403745       0.02881608       0.00416786
In       0.00787599       4.08551245       6.93657774        1      -0.01403745      -0.02881608      -0.00416786
In       2.78700951       1.69001855      15.00422324        2       0.01403745       0.02881608      -0.00416786
In       5.58189501       1.19774695       1.13106776        3       0.01403745      -0.02881608       0.00416786
In       2.78700951       1.19774695       6.93657774        4       0.01403745      -0.02881608      -0.00416786
In       5.58189501       1.69001855       9.19871326        5       0.01403745       0.02881608       0.00416786
In       2.80276149       4.08551245       1.13106776        6      -0.01403745      -0.02881608       0.00416786
In       0.00787599       4.57778405      15.00422324        7      -0.01403745       0.02881608      -0.00416786
In       2.78882060       4.26397058      13.20692931        8      -0.02970602       0.03662344      -0.01956486
In       5.58370610       4.39932592       2.92836169        9      -0.02970602      -0.03662344       0.01956486
In       2.80095040       1.37620508      10.99600719       10       0.02970602       0.03662344       0.01956486
In       0.00606490       1.51156042       5.13928381       11       0.02970602      -0.03662344      -0.01956486
In       2.80095040       1.51156042       2.92836169       12       0.02970602      -0.03662344       0.01956486
In       0.00606490       1.37620508      13.20692931       13       0.02970602       0.03662344      -0.01956486
In       2.78882060       4.39932592       5.13928381       14      -0.02970602      -0.03662344      -0.01956486
In       5.58370610       4.26397058      10.99600719       15      -0.02970602       0.03662344       0.01956486
O        4.81310027       5.03928363      12.87723691       16      -0.00188066      -0.01860244      -0.00618070
O        2.01821477       3.62401287       3.25805409       17      -0.00188066       0.01860244       0.00618070
O        0.77667073       2.15151813      11.32569959       18       0.00188066      -0.01860244       0.00618070
O        3.57155623       0.73624737       4.80959141       19       0.00188066       0.01860244      -0.00618070
O        0.77667073       0.73624737       3.25805409       20       0.00188066       0.01860244       0.00618070
O        3.57155623       2.15151813      12.87723691       21       0.00188066      -0.01860244      -0.00618070
O        4.81310027       3.62401287       4.80959141       22      -0.00188066       0.01860244      -0.00618070
O        2.01821477       5.03928363      11.32569959       23      -0.00188066      -0.01860244       0.00618070
O        3.94638951       2.99280508      10.06333897       24       0.01020431       0.04493406       0.06318945
O        1.15150401       5.67049142       6.07195203       25       0.01020431      -0.04493406      -0.06318945
O        1.64338149       0.10503958      14.13959753       26      -0.01020431       0.04493406      -0.06318945
O        4.43826699       2.78272592       1.99569347       27      -0.01020431      -0.04493406       0.06318945
O        1.64338149       2.78272592       6.07195203       28      -0.01020431      -0.04493406      -0.06318945
O        4.43826699       0.10503958      10.06333897       29      -0.01020431       0.04493406       0.06318945
O        3.94638951       5.67049142       1.99569347       30       0.01020431      -0.04493406       0.06318945
O        1.15150401       2.99280508      14.13959753       31       0.01020431       0.04493406      -0.06318945
O        3.62643660       3.77778060      15.28702648       32      -0.02874430       0.02146745       0.00703360
O        0.83155110       4.88551590       0.84826452       33      -0.02874430      -0.02146745      -0.00703360
O        1.96333440       0.89001510       8.91591002       34       0.02874430       0.02146745      -0.00703360
O        4.75821990       1.99775040       7.21938098       35       0.02874430      -0.02146745       0.00703360
O        1.96333440       1.99775040       0.84826452       36       0.02874430      -0.02146745      -0.00703360
O        4.75821990       0.89001510      15.28702648       37       0.02874430       0.02146745       0.00703360
O        3.62643660       4.88551590       7.21938098       38      -0.02874430      -0.02146745       0.00703360
O        0.83155110       3.77778060       8.91591002       39      -0.02874430       0.02146745      -0.00703360
40
Lattice="5.5854707559375365 -2.975449215699918e-45 0.0 1.5154949658580258e-44 5.772952132182259 0.0 0.0 0.0 16.132080353869327" Properties=species:S:1:pos:R:3:spacegroup_kinds:I:1:forces:R:3 spacegroup="P 1" unit_cell=conventional occupancy="_JSON {\"0\": {\"In\": 1}, \"1\": {\"In\": 1}, \"2\": {\"In\": 1}, \"3\": {\"In\": 1}, \"4\": {\"In\": 1}, \"5\": {\"In\": 1}, \"6\": {\"In\": 1}, \"7\": {\"In\": 1}, \"8\": {\"In\": 1}, \"9\": {\"In\": 1}, \"10\": {\"In\": 1}, \"11\": {\"In\": 1}, \"12\": {\"In\": 1}, \"13\": {\"In\": 1}, \"14\": {\"In\": 1}, \"15\": {\"In\": 1}, \"16\": {\"O\": 1}, \"17\": {\"O\": 1}, \"18\": {\"O\": 1}, \"19\": {\"O\": 1}, \"20\": {\"O\": 1}, \"21\": {\"O\": 1}, \"22\": {\"O\": 1}, \"23\": {\"O\": 1}, \"24\": {\"O\": 1}, \"25\": {\"O\": 1}, \"26\": {\"O\": 1}, \"27\": {\"O\": 1}, \"28\": {\"O\": 1}, \"29\": {\"O\": 1}, \"30\": {\"O\": 1}, \"31\": {\"O\": 1}, \"32\": {\"O\": 1}, \"33\": {\"O\": 1}, \"34\": {\"O\": 1}, \"35\": {\"O\": 1}, \"36\": {\"O\": 1}, \"37\": {\"O\": 1}, \"38\": {\"O\": 1}, \"39\": {\"O\": 1}}" n_minim_iter=2 energy=-45150.26457664902 stress="0.00013766660908746907 -3.938697530618656e-14 -1.4452895209185936e-13 -3.938697530618656e-14 -0.0003382895078548501 -3.023238489661834e-13 -1.4452895209185936e-13 -3.023238489661834e-13 -0.0004311981962694399" free_energy=-45150.26457664902 pbc="T T T"
In       2.80059237       4.57576656       9.19688672        0      -0.01110722       0.03344680       0.00299061
In       0.00785700       4.08366164       6.93519364        1      -0.01110722      -0.03344680      -0.00299061
In       2.78487838       1.68929049      15.00123381        2       0.01110722       0.03344680      -0.00299061
In       5.57761376       1.19718558       1.13084654        3       0.01110722      -0.03344680       0.00299061
In       2.78487838       1.19718558       6.93519364        4       0.01110722      -0.03344680      -0.00299061
In       5.57761376       1.68929049       9.19688672        5       0.01110722       0.03344680       0.00299061
In       2.80059237       4.08366164       1.13084654        6      -0.01110722      -0.03344680       0.00299061
In       0.00785700       4.57576656      15.00123381        7      -0.01110722       0.03344680      -0.00299061
In       2.78664777       4.26210040      13.20428332        8      -0.03118832       0.03501476      -0.01980962
In       5.57938315       4.39732779       2.92779703        9      -0.03118832      -0.03501476       0.01980962
In       2.79882298       1.37562434      10.99383721       10       0.03118832       0.03501476       0.01980962
In       0.00608761       1.51085173       5.13824314       11       0.03118832      -0.03501476      -0.01980962
In       2.79882298       1.51085173       2.92779703       12       0.03118832      -0.03501476       0.01980962
In       0.00608761       1.37562434      13.20428332       13       0.03118832       0.03501476      -0.01980962
In       2.78664777       4.39732779       5.13824314       14      -0.03118832      -0.03501476      -0.01980962
In       5.57938315       4.26210040      10.99383721       15      -0.03118832       0.03501476       0.01980962
O        4.80939579       5.03701636      12.87466886       16      -0.00044514      -0.01567388      -0.00582192
O        2.01666041       3.62241184       3.25741149       17      -0.00044514       0.01567388       0.00582192
O        0.77607497       2.15054030      11.32345167       18       0.00044514      -0.01567388       0.00582192
O        3.56881034       0.73593577       4.80862869       19       0.00044514       0.01567388      -0.00582192
O        0.77607497       0.73593577       3.25741149       20       0.00044514       0.01567388       0.00582192
O        3.56881034       2.15054030      12.87466886       21       0.00044514      -0.01567388      -0.00582192
O        4.80939579       3.62241184       4.80862869       22      -0.00044514       0.01567388      -0.00582192
O        2.01666041       5.03701636      11.32345167       23      -0.00044514      -0.01567388       0.00582192
O        3.94336293       2.99151016      10.06139479       24       0.01436780       0.04340133       0.06427094
O        1.15062755       5.66791804       6.07068556       25       0.01436780      -0.04340133      -0.06427094
O        1.64210782       0.10503409      14.13672574       26      -0.01436780       0.04340133      -0.06427094
O        4.43484320       2.78144197       1.99535462       27      -0.01436780      -0.04340133       0.06427094
O        1.64210782       2.78144197       6.07068556       28      -0.01436780      -0.04340133      -0.06427094
O        4.43484320       0.10503409      10.06139479       29      -0.01436780       0.04340133       0.06427094
O        3.94336293       5.66791804       1.99535462       30       0.01436780      -0.04340133       0.06427094
O        1.15062755       2.99151016      14.13672574       31       0.01436780       0.04340133      -0.06427094
O        3.62362028       3.77611355      15.28399111       32      -0.03356864       0.01784974       0.00503878
O        0.83088490       4.88331465       0.84808925       33      -0.03356864      -0.01784974      -0.00503878
O        1.96185048       0.88963748       8.91412942       34       0.03356864       0.01784974      -0.00503879
O        4.75458586       1.99683859       7.21795093       35       0.03356864      -0.01784974       0.00503879
O        1.96185048       1.99683859       0.84808925       36       0.03356864      -0.01784974      -0.00503879
O        4.75458586       0.88963748      15.28399111       37       0.03356864       0.01784974       0.00503879
O        3.62362028       4.88331465       7.21795093       38      -0.03356864      -0.01784974       0.00503879
O        0.83088490       3.77611355       8.91412942       39      -0.03356864       0.01784974      -0.00503879
40
Lattice="5.58032333546874 -7.799037630691584e-45 0.0 1.5164300019994447e-44 5.7756186022058 0.0 0.0 0.0 16.146191065130818" Properties=species:S:1:pos:R:3:spacegroup_kinds:I:1:forces:R:3 spacegroup="P 1" unit_cell=conventional occupancy="_JSON {\"0\": {\"In\": 1}, \"1\": {\"In\": 1}, \"2\": {\"In\": 1}, \"3\": {\"In\": 1}, \"4\": {\"In\": 1}, \"5\": {\"In\": 1}, \"6\": {\"In\": 1}, \"7\": {\"In\": 1}, \"8\": {\"In\": 1}, \"9\": {\"In\": 1}, \"10\": {\"In\": 1}, \"11\": {\"In\": 1}, \"12\": {\"In\": 1}, \"13\": {\"In\": 1}, \"14\": {\"In\": 1}, \"15\": {\"In\": 1}, \"16\": {\"O\": 1}, \"17\": {\"O\": 1}, \"18\": {\"O\": 1}, \"19\": {\"O\": 1}, \"20\": {\"O\": 1}, \"21\": {\"O\": 1}, \"22\": {\"O\": 1}, \"23\": {\"O\": 1}, \"24\": {\"O\": 1}, \"25\": {\"O\": 1}, \"26\": {\"O\": 1}, \"27\": {\"O\": 1}, \"28\": {\"O\": 1}, \"29\": {\"O\": 1}, \"30\": {\"O\": 1}, \"31\": {\"O\": 1}, \"32\": {\"O\": 1}, \"33\": {\"O\": 1}, \"34\": {\"O\": 1}, \"35\": {\"O\": 1}, \"36\": {\"O\": 1}, \"37\": {\"O\": 1}, \"38\": {\"O\": 1}, \"39\": {\"O\": 1}}" n_minim_iter=3 energy=-45150.26499745961 stress="-0.0004307964145801677 -2.542738429787517e-13 2.3850602786688935e-13 -2.542738429787517e-13 0.00018557708337043897 1.2061422108704896e-13 2.3850602786688935e-13 1.2061422108704896e-13 0.000541066845780238" free_energy=-45150.26499745961 pbc="T T T"
In       2.79795068       4.57805377       9.20494790        0      -0.00131328       0.03893541       0.00168903
In       0.00778901       4.08537414       6.94124316        1      -0.00131328      -0.03893541      -0.00168903
In       2.78237266       1.69024447      15.01433870        2       0.00131328       0.03893541      -0.00168903
In       5.57253433       1.19756483       1.13185237        3       0.00131328      -0.03893541       0.00168903
In       2.78237266       1.19756483       6.94124316        4       0.00131328      -0.03893541      -0.00168903
In       5.57253433       1.69024447       9.20494790        5       0.00131328       0.03893541       0.00168903
In       2.79795068       4.08537414       1.13185237        6      -0.00131328      -0.03893541       0.00168903
In       0.00778901       4.57805377      15.01433870        7      -0.00131328       0.03893541      -0.00168903
In       2.78391600       4.26425548      13.21572834        8      -0.03722819       0.03111810      -0.01977609
In       5.57407767       4.39917243       2.93046273        9      -0.03722819      -0.03111810       0.01977609
In       2.79640734       1.37644617      11.00355826       10       0.03722819       0.03111810       0.01977609
In       0.00624567       1.51136313       5.14263281       11       0.03722819      -0.03111810      -0.01977609
In       2.79640734       1.51136313       2.93046273       12       0.03722819      -0.03111810       0.01977609
In       0.00624567       1.37644617      13.21572834       13       0.03722819       0.03111810      -0.01977609
In       2.78391600       4.39917243       5.14263281       14      -0.03722819      -0.03111810      -0.01977609
In       5.57407767       4.26425548      11.00355826       15      -0.03722819       0.03111810       0.01977609
O        4.80496021       5.03925788      12.88589923       16       0.00082966      -0.01403173      -0.00758057
O        2.01479854       3.62417002       3.26029184       17       0.00082966       0.01403173       0.00758057
O        0.77536313       2.15144858      11.33338737       18      -0.00082966      -0.01403173       0.00758057
O        3.56552479       0.73636072       4.81280369       19      -0.00082966       0.01403173      -0.00758057
O        0.77536313       0.73636072       3.26029184       20      -0.00082966       0.01403173       0.00758057
O        3.56552479       2.15144858      12.88589923       21      -0.00082966      -0.01403173      -0.00758057
O        4.80496021       3.62417002       4.81280369       22       0.00082966       0.01403173      -0.00758057
O        2.01479854       5.03925788      11.33338737       23       0.00082966      -0.01403173       0.00758057
O        3.93980176       2.99312269      10.07053514       24       0.01160182       0.04358509       0.06109240
O        1.14964009       5.67030522       6.07565592       25       0.01160182      -0.04358509      -0.06109240
O        1.64052157       0.10531339      14.14875145       26      -0.01160182       0.04358509      -0.06109240
O        4.43068324       2.78249592       1.99743961       27      -0.01160182      -0.04358509       0.06109240
O        1.64052157       2.78249592       6.07565592       28      -0.01160182      -0.04358509      -0.06109240
O        4.43068324       0.10531339      10.07053514       29      -0.01160182       0.04358509       0.06109240
O        3.93980176       5.67030522       1.99743961       30       0.01160182      -0.04358509       0.06109240
O        1.14964009       2.99312269      14.14875145       31       0.01160182       0.04358509      -0.06109240
O        3.62010697       3.77795473      15.29738811       32      -0.03691722       0.01566530       0.01172504
O        0.82994531       4.88547317       0.84880296       33      -0.03691722      -0.01566530      -0.01172504
O        1.96021636       0.89014543       8.92189849       34       0.03691722       0.01566530      -0.01172504
O        4.75037803       1.99766387       7.22429257       35       0.03691722      -0.01566530       0.01172504
O        1.96021636       1.99766387       0.84880296       36       0.03691722      -0.01566530      -0.01172504
O        4.75037803       0.89014543      15.29738811       37       0.03691722       0.01566530       0.01172504
O        3.62010697       4.88547317       7.22429257       38      -0.03691722      -0.01566530       0.01172504
O        0.82994531       3.77795473       8.92189849       39      -0.03691722       0.01566530      -0.01172504
40
Lattice="5.574564333658814 -1.6299031224058627e-43 0.0 3.1253067358118805e-44 5.785242197449079 0.0 0.0 0.0 16.124150927478073" Properties=species:S:1:pos:R:3:spacegroup_kinds:I:1:forces:R:3 spacegroup="P 1" unit_cell=conventional occupancy="_JSON {\"0\": {\"In\": 1}, \"1\": {\"In\": 1}, \"2\": {\"In\": 1}, \"3\": {\"In\": 1}, \"4\": {\"In\": 1}, \"5\": {\"In\": 1}, \"6\": {\"In\": 1}, \"7\": {\"In\": 1}, \"8\": {\"In\": 1}, \"9\": {\"In\": 1}, \"10\": {\"In\": 1}, \"11\": {\"In\": 1}, \"12\": {\"In\": 1}, \"13\": {\"In\": 1}, \"14\": {\"In\": 1}, \"15\": {\"In\": 1}, \"16\": {\"O\": 1}, \"17\": {\"O\": 1}, \"18\": {\"O\": 1}, \"19\": {\"O\": 1}, \"20\": {\"O\": 1}, \"21\": {\"O\": 1}, \"22\": {\"O\": 1}, \"23\": {\"O\": 1}, \"24\": {\"O\": 1}, \"25\": {\"O\": 1}, \"26\": {\"O\": 1}, \"27\": {\"O\": 1}, \"28\": {\"O\": 1}, \"29\": {\"O\": 1}, \"30\": {\"O\": 1}, \"31\": {\"O\": 1}, \"32\": {\"O\": 1}, \"33\": {\"O\": 1}, \"34\": {\"O\": 1}, \"35\": {\"O\": 1}, \"36\": {\"O\": 1}, \"37\": {\"O\": 1}, \"38\": {\"O\": 1}, \"39\": {\"O\": 1}}" n_minim_iter=4 energy=-45150.26992173957 stress="-0.000790823057503688 -3.885662958391027e-13 -4.8493526130364616e-14 -3.885662958391027e-13 0.0014282503155321074 -2.6172741270984413e-13 -4.8493526130364616e-14 -2.6172741270984413e-13 -0.0013211691689662705" free_energy=-45150.26992173957 pbc="T T T"
In       2.79429972       4.58935468       9.19264793        0      -0.01051644       0.01152566       0.04595613
In       0.00701755       4.08850862       6.93150300        1      -0.01051644      -0.01152566      -0.04595613
In       2.78026462       1.69673358      14.99357846        2       0.01051644       0.01152566      -0.04595613
In       5.56754679       1.19588752       1.13057247        3       0.01051644      -0.01152566       0.04595613
In       2.78026462       1.19588752       6.93150300        4       0.01051644      -0.01152566      -0.04595613
In       5.56754679       1.69673358       9.19264793        5       0.01051644       0.01152566       0.04595613
In       2.79429972       4.08850862       1.13057247        6      -0.01051644      -0.01152566       0.04595613
In       0.00701755       4.58935468      14.99357846        7      -0.01051644       0.01152566      -0.04595613
In       2.77757569       4.27485164      13.19563542        8       0.00977064      -0.00017735      -0.00032540
In       5.56485785       4.40301166       2.92851551        9       0.00977064       0.00017735       0.00032540
In       2.79698865       1.38223054      10.99059097       10      -0.00977064      -0.00017735       0.00032540
In       0.00970648       1.51039056       5.13355996       11      -0.00977064       0.00017735      -0.00032540
In       2.79698865       1.51039056       2.92851551       12      -0.00977064       0.00017735       0.00032540
In       0.00970648       1.38223054      13.19563542       13      -0.00977064      -0.00017735      -0.00032540
In       2.77757569       4.40301166       5.13355996       14       0.00977064       0.00017735      -0.00032540
In       5.56485785       4.27485164      10.99059097       15       0.00977064      -0.00017735       0.00032540
O        4.79999729       5.04607021      12.86762864       16      -0.02731271       0.01201432       0.03452442
O        2.01271513       3.63179309       3.25652228       17      -0.02731271      -0.01201432      -0.03452442
O        0.77456704       2.15344911      11.31859775       18       0.02731271       0.01201432      -0.03452442
O        3.56184921       0.73917199       4.80555318       19       0.02731271      -0.01201432       0.03452442
O        0.77456704       0.73917199       3.25652228       20       0.02731271      -0.01201432      -0.03452442
O        3.56184921       2.15344911      12.86762864       21       0.02731271       0.01201432       0.03452442
O        4.79999729       3.63179309       4.80555318       22      -0.02731271      -0.01201432       0.03452442
O        2.01271513       5.04607021      11.31859775       23      -0.02731271       0.01201432      -0.03452442
O        3.93707429       3.00264383      10.06331829       24      -0.01370072       0.05815916       0.00804374
O        1.14979213       5.67521947       6.06083264       25      -0.01370072      -0.05815916      -0.00804374
O        1.63749004       0.11002273      14.12290810       26       0.01370072       0.05815916      -0.00804374
O        4.42477221       2.78259837       2.00124283       27       0.01370072      -0.05815916       0.00804374
O        1.63749004       2.78259837       6.06083264       28       0.01370072      -0.05815916      -0.00804374
O        4.42477221       0.11002273      10.06331829       29       0.01370072       0.05815916       0.00804374
O        3.93707429       5.67521947       2.00124283       30      -0.01370072      -0.05815916       0.00804374
O        1.14979213       3.00264383      14.12290810       31      -0.01370072       0.05815916      -0.00804374
O        3.61279591       3.78604300      15.27732557       32      -0.00303814       0.02270028      -0.01184878
O        0.82551375       4.89182030       0.84682536       33      -0.00303814      -0.02270028       0.01184878
O        1.96176842       0.89342190       8.90890082       34       0.00303814       0.02270028       0.01184878
O        4.74905059       1.99919920       7.21525011       35       0.00303814      -0.02270028      -0.01184878
O        1.96176842       1.99919920       0.84682536       36       0.00303814      -0.02270028       0.01184878
O        4.74905059       0.89342190      15.27732557       37       0.00303814       0.02270028      -0.01184878
O        3.61279591       4.89182030       7.21525011       38      -0.00303814      -0.02270028      -0.01184878
O        0.82551375       3.78604300       8.90890082       39      -0.00303814       0.02270028       0.01184878
40
Lattice="5.579516927341895 -1.6220879163663726e-43 0.0 3.16645540189753e-44 5.770908693555882 0.0 0.0 0.0 16.155065723743128" Properties=species:S:1:pos:R:3:spacegroup_kinds:I:1:forces:R:3 spacegroup="P 1" unit_cell=conventional occupancy="_JSON {\"0\": {\"In\": 1}, \"1\": {\"In\": 1}, \"2\": {\"In\": 1}, \"3\": {\"In\": 1}, \"4\": {\"In\": 1}, \"5\": {\"In\": 1}, \"6\": {\"In\": 1}, \"7\": {\"In\": 1}, \"8\": {\"In\": 1}, \"9\": {\"In\": 1}, \"10\": {\"In\": 1}, \"11\": {\"In\": 1}, \"12\": {\"In\": 1}, \"13\": {\"In\": 1}, \"14\": {\"In\": 1}, \"15\": {\"In\": 1}, \"16\": {\"O\": 1}, \"17\": {\"O\": 1}, \"18\": {\"O\": 1}, \"19\": {\"O\": 1}, \"20\": {\"O\": 1}, \"21\": {\"O\": 1}, \"22\": {\"O\": 1}, \"23\": {\"O\": 1}, \"24\": {\"O\": 1}, \"25\": {\"O\": 1}, \"26\": {\"O\": 1}, \"27\": {\"O\": 1}, \"28\": {\"O\": 1}, \"29\": {\"O\": 1}, \"30\": {\"O\": 1}, \"31\": {\"O\": 1}, \"32\": {\"O\": 1}, \"33\": {\"O\": 1}, \"34\": {\"O\": 1}, \"35\": {\"O\": 1}, \"36\": {\"O\": 1}, \"37\": {\"O\": 1}, \"38\": {\"O\": 1}, \"39\": {\"O\": 1}}" n_minim_iter=5 energy=-45150.272532300834 stress="-0.00019350729250368717 2.8276016699980744e-13 -1.5858416279983295e-13 2.8276016699980744e-13 -0.00026945018086697967 -1.1688826898930388e-13 -1.5858416279983295e-13 -1.1688826898930388e-13 -5.627132683528387e-05" free_energy=-45150.272532300834 pbc="T T T"
In       2.79633534       4.57996362       9.21060415        0      -0.01253607      -0.01084315       0.03582310
In       0.00657688       4.07639942       6.94446157        1      -0.01253607       0.01084315      -0.03582310
In       2.78318159       1.69450927      15.02199444        2       0.01253607      -0.01084315      -0.03582310
In       5.57294005       1.19094508       1.13307129        3       0.01253607       0.01084315       0.03582310
In       2.78318159       1.19094508       6.94446157        4       0.01253607       0.01084315      -0.03582310
In       5.57294005       1.69450927       9.21060415        5       0.01253607      -0.01084315       0.03582310
In       2.79633534       4.07639942       1.13307129        6      -0.01253607       0.01084315       0.03582310
In       0.00657688       4.57996362      15.02199444        7      -0.01253607      -0.01084315      -0.03582310
In       2.77825275       4.26609714      13.21984886        8       0.03123807      -0.00029818      -0.00624975
In       5.56801121       4.39026590       2.93521686        9       0.03123807       0.00029818       0.00624975
In       2.80126418       1.38064280      11.01274973       10      -0.03123807      -0.00029818       0.00624975
In       0.01150572       1.50481155       5.14231600       11      -0.03123807       0.00029818      -0.00624975
In       2.80126418       1.50481155       2.93521686       12      -0.03123807       0.00029818       0.00624975
In       0.01150572       1.38064280      13.21984886       13      -0.03123807      -0.00029818      -0.00624975
In       2.77825275       4.39026590       5.14231600       14       0.03123807       0.00029818      -0.00624975
In       5.56801121       4.26609714      11.01274973       15       0.03123807      -0.00029818       0.00624975
O        4.80414638       5.03278309      12.89208275       16      -0.03360805       0.02092674       0.04592972
O        2.01438791       3.62357995       3.26298297       17      -0.03360805      -0.02092674      -0.04592972
O        0.77537055       2.14732875      11.34051584       18       0.03360805       0.02092674      -0.04592972
O        3.56512901       0.73812560       4.81454989       19       0.03360805      -0.02092674       0.04592972
O        0.77537055       0.73812560       3.26298297       20       0.03360805      -0.02092674      -0.04592972
O        3.56512901       2.14732875      12.89208275       21       0.03360805       0.02092674       0.04592972
O        4.80414638       3.62357995       4.81454989       22      -0.03360805      -0.02092674       0.04592972
O        2.01438791       5.03278309      11.34051584       23      -0.03360805       0.02092674      -0.04592972
O        3.94122054       2.99783273      10.08609722       24      -0.01276517       0.05319737      -0.01440981
O        1.15146207       5.65853031       6.06896850       25      -0.01276517      -0.05319737       0.01440981
O        1.63829639       0.11237838      14.14650136       26       0.01276517       0.05319737       0.01440981
O        4.42805485       2.77307597       2.00856436       27       0.01276517      -0.05319737      -0.01440981
O        1.63829639       2.77307597       6.06896850       28       0.01276517      -0.05319737       0.01440981
O        4.42805485       0.11237838      10.08609722       29       0.01276517       0.05319737      -0.01440981
O        3.94122054       5.65853031       2.00856436       30      -0.01276517      -0.05319737      -0.01440981
O        1.15146207       2.99783273      14.14650136       31      -0.01276517       0.05319737       0.01440981
O        3.61410673       3.77770197      15.30700184       32       0.00848512       0.03886699      -0.00755834
O        0.82434827       4.87866107       0.84806388       33       0.00848512      -0.03886699       0.00755834
O        1.96541020       0.89224763       8.92559674       34      -0.00848512       0.03886699       0.00755834
O        4.75516866       1.99320672       7.22946898       35      -0.00848512      -0.03886699      -0.00755834
O        1.96541020       1.99320672       0.84806388       36      -0.00848512      -0.03886699       0.00755834
O        4.75516866       0.89224763      15.30700184       37      -0.00848512       0.03886699      -0.00755834
O        3.61410673       4.87866107       7.22946898       38       0.00848512      -0.03886699      -0.00755834
O        0.82434827       3.77770197       8.92559674       39       0.00848512       0.03886699       0.00755834
40