40
Lattice="5.902871144350684 -3.569446214195068e-42 0.0 1.0214187200836103e-43 4.828945417960502 0.0 0.0 0.0 16.406545129729697" Properties=species:S:1:pos:R:3:spacegroup_kinds:I:1:forces:R:3 spacegroup="P 1" unit_cell=conventional occupancy="_JSON {\"0\": {\"In\": 1}, \"1\": {\"In\": 1}, \"2\": {\"In\": 1}, \"3\": {\"In\": 1}, \"4\": {\"In\": 1}, \"5\": {\"In\": 1}, \"6\": {\"In\": 1}, \"7\": {\"In\": 1}, \"8\": {\"In\": 1}, \"9\": {\"In\": 1}, \"10\": {\"In\": 1}, \"11\": {\"In\": 1}, \"12\": {\"In\": 1}, \"13\": {\"In\": 1}, \"14\": {\"In\": 1}, \"15\": {\"In\": 1}, \"16\": {\"O\": 1}, \"17\": {\"O\": 1}, \"18\": {\"O\": 1}, \"19\": {\"O\": 1}, \"20\": {\"O\": 1}, \"21\": {\"O\": 1}, \"22\": {\"O\": 1}, \"23\": {\"O\": 1}, \"24\": {\"O\": 1}, \"25\": {\"O\": 1}, \"26\": {\"O\": 1}, \"27\": {\"O\": 1}, \"28\": {\"O\": 1}, \"29\": {\"O\": 1}, \"30\": {\"O\": 1}, \"31\": {\"O\": 1}, \"32\": {\"O\": 1}, \"33\": {\"O\": 1}, \"34\": {\"O\": 1}, \"35\": {\"O\": 1}, \"36\": {\"O\": 1}, \"37\": {\"O\": 1}, \"38\": {\"O\": 1}, \"39\": {\"O\": 1}}" n_minim_iter=50 energy=-45149.73010402726 stress="-0.07924915800945224 -2.3421471247392004e-13 5.199959153935266e-14 -2.3421471247392004e-13 -0.07929091070538924 3.1951545579904923e-13 5.199959153935266e-14 3.1951545579904923e-13 -0.07922492324515153" free_energy=-45149.73010402726 pbc="T T T"
In       2.89790249       3.62231159       9.31454748        0       0.00048122      -0.00176042       0.00229838
In      -0.05353308       3.62110654       7.09199765        1       0.00048122       0.00176042      -0.00229838
In       3.00496865       1.20783888      15.29527021        2      -0.00048122      -0.00176042      -0.00229838
In       5.95640423       1.20663383       1.11127492        3      -0.00048122       0.00176042       0.00229838
In       3.00496865       1.20663383       7.09199765        4      -0.00048122       0.00176042      -0.00229838
In       5.95640423       1.20783888       9.31454748        5      -0.00048122      -0.00176042       0.00229838
In       2.89790249       3.62110654       1.11127492        6       0.00048122       0.00176042       0.00229838
In      -0.05353308       3.62231159      15.29527021        7       0.00048122      -0.00176042      -0.00229838
In       3.00498195       3.62155830      13.41632886        8      -0.00049069       0.00119577      -0.00167661
In       5.95641752       3.62185983       2.99021627        9      -0.00049069      -0.00119577       0.00167661
In       2.89788919       1.20708559      11.19348884       10       0.00049069       0.00119577       0.00167661
In      -0.05354638       1.20738712       5.21305629       11       0.00049069      -0.00119577      -0.00167661
In       2.89788919       1.20738712       2.99021627       12       0.00049069      -0.00119577       0.00167661
In      -0.05354638       1.20708559      13.41632886       13       0.00049069       0.00119577      -0.00167661
In       3.00498195       3.62185983       5.21305629       14      -0.00049069      -0.00119577      -0.00167661
In       5.95641752       3.62155830      11.19348884       15      -0.00049069       0.00119577       0.00167661
O        5.13749727       3.62107867      13.12099671       16       0.00145815       0.00115583      -0.00173845
O        2.18606170       3.62233946       3.28554842       17       0.00145815      -0.00115583       0.00173845
O        0.76537388       1.20660596      11.48882099       18      -0.00145815       0.00115583       0.00173845
O        3.71680945       1.20786675       4.91772414       19      -0.00145815      -0.00115583      -0.00173845
O        0.76537388       1.20786675       3.28554842       20      -0.00145815      -0.00115583       0.00173845
O        3.71680945       1.20660596      13.12099671       21      -0.00145815       0.00115583      -0.00173845
O        5.13749727       3.62233946       4.91772414       22       0.00145815      -0.00115583      -0.00173845
O        2.18606170       3.62107867      11.48882099       23       0.00145815       0.00115583       0.00173845
O        4.42679732       2.41479555      10.25412461       24       0.00425929      -0.00146802      -0.00073185
O        1.47536175       4.82862258       6.15242052       25       0.00425929       0.00146802       0.00073185
O        1.47607383       0.00032284      14.35569308       26      -0.00425929      -0.00146802       0.00073185
O        4.42750940       2.41414987       2.05085205       27      -0.00425929       0.00146802      -0.00073185
O        1.47607383       2.41414987       6.15242052       28      -0.00425929       0.00146802       0.00073185
O        4.42750940       0.00032284      10.25412461       29      -0.00425929      -0.00146802      -0.00073185
O        4.42679732       4.82862258       2.05085205       30       0.00425929       0.00146802      -0.00073185
O        1.47536175       2.41479555      14.35569308       31       0.00425929      -0.00146802       0.00073185
O        3.71671961       3.62229306      15.59040555       32       0.00044533      -0.00053742       0.00201068
O        0.76528404       3.62112507       0.81613958       33       0.00044533       0.00053742      -0.00201068
O        2.18615153       1.20782035       9.01941214       34      -0.00044533      -0.00053742      -0.00201068
O        5.13758711       1.20665236       7.38713299       35      -0.00044533       0.00053742       0.00201068
O        2.18615153       1.20665236       0.81613958       36      -0.00044533       0.00053742      -0.00201068
O        5.13758711       1.20782035      15.59040555       37      -0.00044533      -0.00053742       0.00201068
O        3.71671961       3.62112507       7.38713299       38       0.00044533       0.00053742       0.00201068
O        0.76528404       3.62229306       9.01941214       39       0.00044533      -0.00053742      -0.00201068
