40
Lattice="6.078688311947475 -4.919051861612016e-16 1.3842260246069616e-15 6.94308324160914e-16 4.211034456981661 1.5238412008192249e-16 -4.249426374287824e-16 5.780891610179009e-16 16.747327214276964" Properties=species:S:1:pos:R:3:spacegroup_kinds:I:1:forces:R:3 spacegroup="P 1" unit_cell=conventional occupancy="_JSON {\"0\": {\"In\": 1}, \"1\": {\"In\": 1}, \"2\": {\"In\": 1}, \"3\": {\"In\": 1}, \"4\": {\"In\": 1}, \"5\": {\"In\": 1}, \"6\": {\"In\": 1}, \"7\": {\"In\": 1}, \"8\": {\"In\": 1}, \"9\": {\"In\": 1}, \"10\": {\"In\": 1}, \"11\": {\"In\": 1}, \"12\": {\"In\": 1}, \"13\": {\"In\": 1}, \"14\": {\"In\": 1}, \"15\": {\"In\": 1}, \"16\": {\"O\": 1}, \"17\": {\"O\": 1}, \"18\": {\"O\": 1}, \"19\": {\"O\": 1}, \"20\": {\"O\": 1}, \"21\": {\"O\": 1}, \"22\": {\"O\": 1}, \"23\": {\"O\": 1}, \"24\": {\"O\": 1}, \"25\": {\"O\": 1}, \"26\": {\"O\": 1}, \"27\": {\"O\": 1}, \"28\": {\"O\": 1}, \"29\": {\"O\": 1}, \"30\": {\"O\": 1}, \"31\": {\"O\": 1}, \"32\": {\"O\": 1}, \"33\": {\"O\": 1}, \"34\": {\"O\": 1}, \"35\": {\"O\": 1}, \"36\": {\"O\": 1}, \"37\": {\"O\": 1}, \"38\": {\"O\": 1}, \"39\": {\"O\": 1}}" n_minim_iter=9 energy=-45145.27323683469 stress="-0.10436043150237788 -1.2796625682097517e-13 -3.051116217809942e-13 -1.2796625682097517e-13 -0.10287406483612799 2.2949130093493266e-13 -3.051116217809942e-13 2.2949130093493266e-13 -0.10401833783616145" free_energy=-45145.27323683469 pbc="T T T"
In       2.93975781       3.15880127       9.50662406        0      -0.00594005       0.00000000      -0.00376022
In      -0.09958635       3.15880127       7.24055505        1      -0.00594005      -0.00000000       0.00376022
In       3.13894420       1.05328404      15.61421866        2       0.00594005       0.00000000       0.00376022
In       6.17828835       1.05328404       1.13296045        3       0.00594005       0.00000000      -0.00376022
In       3.13894420       1.05328404       7.24055505        4       0.00594005      -0.00000000       0.00376022
In       6.17828835       1.05328404       9.50662406        5       0.00594005      -0.00000000      -0.00376022
In       2.93975781       3.15880127       1.13296045        6      -0.00594005      -0.00000000      -0.00376022
In      -0.09958635       3.15880127      15.61421866        7      -0.00594005      -0.00000000       0.00376022
In       3.13894420       3.15880127      13.69345586        8       0.00594005       0.00000000      -0.00376022
In       6.17828835       3.15880127       3.05372325        9       0.00594005      -0.00000000       0.00376022
In       2.93975781       1.05328404      11.42738685       10      -0.00594005      -0.00000000       0.00376022
In      -0.09958635       1.05328404       5.31979225       11      -0.00594005       0.00000000      -0.00376022
In       2.93975781       1.05328404       3.05372325       12      -0.00594005       0.00000000       0.00376022
In      -0.09958635       1.05328404      13.69345586       13      -0.00594005       0.00000000      -0.00376022
In       3.13894420       3.15880127       5.31979225       14       0.00594005       0.00000000      -0.00376022
In       6.17828835       3.15880127      11.42738685       15       0.00594005       0.00000000       0.00376022
O        5.30820229       3.15880127      13.36999686       16      -0.00414561       0.00000000      -0.00423944
O        2.26885814       3.15880127       3.37718225       17      -0.00414561      -0.00000000       0.00423944
O        0.77049971       1.05328404      11.75084586       18       0.00414561      -0.00000000       0.00423944
O        3.80984387       1.05328404       4.99633325       19       0.00414561       0.00000000      -0.00423944
O        0.77049971       1.05328404       3.37718225       20       0.00414561       0.00000000       0.00423944
O        3.80984387       1.05328404      13.36999686       21       0.00414561      -0.00000000      -0.00423944
O        5.30820229       3.15880127       4.99633325       22      -0.00414561      -0.00000000      -0.00423944
O        2.26885814       3.15880127      11.75084586       23      -0.00414561      -0.00000000       0.00423944
O        4.55902308       2.10604265      10.46700546       24      -0.00000000       0.00000000       0.00000000
O        1.51967892       4.21155988       6.28017365       25      -0.00000000      -0.00000000       0.00000000
O        1.51967892       0.00052543      14.65383726       26       0.00000000      -0.00000000       0.00000000
O        4.55902308       2.10604265       2.09334185       27       0.00000000       0.00000000       0.00000000
O        1.51967892       2.10604265       6.28017365       28       0.00000000      -0.00000000       0.00000000
O        4.55902308       0.00052543      10.46700546       29      -0.00000000      -0.00000000       0.00000000
O        4.55902308       4.21155988       2.09334185       30       0.00000000      -0.00000000       0.00000000
O        1.51967892       2.10604265      14.65383726       31      -0.00000000       0.00000000      -0.00000000
O        3.80984387       3.15880127      15.93767766       32       0.00414561      -0.00000000       0.00423944
O        0.77049971       3.15880127       0.80950145       33       0.00414561       0.00000000      -0.00423944
O        2.26885814       1.05328404       9.18316505       34      -0.00414561      -0.00000000      -0.00423944
O        5.30820229       1.05328404       7.56401405       35      -0.00414561       0.00000000       0.00423944
O        2.26885814       1.05328404       0.80950145       36      -0.00414561       0.00000000      -0.00423944
O        5.30820229       1.05328404      15.93767766       37      -0.00414561      -0.00000000       0.00423944
O        3.80984387       3.15880127       7.56401405       38       0.00414561      -0.00000000       0.00423944
O        0.77049971       3.15880127       9.18316505       39       0.00414561       0.00000000      -0.00423944
