40
Lattice="5.827031652180678 -2.2957258133590266e-17 1.9721522630525295e-31 1.0277079207074559e-15 4.714658633720524 5.221648355873317e-16 4.901108967908561e-15 1.7731080129374532e-17 16.07724104377141" Properties=species:S:1:pos:R:3:spacegroup_kinds:I:1:forces:R:3 spacegroup="P 1" unit_cell=conventional occupancy="_JSON {\"0\": {\"In\": 1}, \"1\": {\"In\": 1}, \"2\": {\"In\": 1}, \"3\": {\"In\": 1}, \"4\": {\"In\": 1}, \"5\": {\"In\": 1}, \"6\": {\"In\": 1}, \"7\": {\"In\": 1}, \"8\": {\"In\": 1}, \"9\": {\"In\": 1}, \"10\": {\"In\": 1}, \"11\": {\"In\": 1}, \"12\": {\"In\": 1}, \"13\": {\"In\": 1}, \"14\": {\"In\": 1}, \"15\": {\"In\": 1}, \"16\": {\"O\": 1}, \"17\": {\"O\": 1}, \"18\": {\"O\": 1}, \"19\": {\"O\": 1}, \"20\": {\"O\": 1}, \"21\": {\"O\": 1}, \"22\": {\"O\": 1}, \"23\": {\"O\": 1}, \"24\": {\"O\": 1}, \"25\": {\"O\": 1}, \"26\": {\"O\": 1}, \"27\": {\"O\": 1}, \"28\": {\"O\": 1}, \"29\": {\"O\": 1}, \"30\": {\"O\": 1}, \"31\": {\"O\": 1}, \"32\": {\"O\": 1}, \"33\": {\"O\": 1}, \"34\": {\"O\": 1}, \"35\": {\"O\": 1}, \"36\": {\"O\": 1}, \"37\": {\"O\": 1}, \"38\": {\"O\": 1}, \"39\": {\"O\": 1}}" n_minim_iter=1 energy=-45146.55227500612 stress="-0.18258651489121214 1.469136834735115e-14 -3.4222397277693206e-13 1.469136834735115e-14 -0.15703093070899313 -5.338412400923834e-13 -3.4222397277693206e-13 -5.338412400923834e-13 -0.17110176603656882" free_energy=-45146.55227500612 pbc="T T T"
In       2.85931954       3.53658224       9.13189026        0      -0.02181965      -0.00000000       0.14366831
In      -0.05419629       3.53658224       6.94520860        1      -0.02181965       0.00000000      -0.14366831
In       2.96772524       1.17925292      14.98382913        2       0.02181965      -0.00000000      -0.14366831
In       5.88124107       1.17925292       1.09326974        3       0.02181965      -0.00000000       0.14366831
In       2.96772524       1.17925292       6.94520860        4       0.02181965      -0.00000000      -0.14366831
In       5.88124107       1.17925292       9.13189026        5       0.02181965       0.00000000       0.14366831
In       2.85931954       3.53658224       1.09326974        6      -0.02181965      -0.00000000       0.14366831
In      -0.05419629       3.53658224      14.98382913        7      -0.02181965       0.00000000      -0.14366831
In       2.96772524       3.53658224      13.15120052        8       0.02181965       0.00000000       0.14366831
In       5.88124107       3.53658224       2.92589834        9       0.02181965      -0.00000000      -0.14366831
In       2.85931954       1.17925292      10.96451886       10      -0.02181965       0.00000000      -0.14366831
In      -0.05419629       1.17925292       5.11258000       11      -0.02181965       0.00000000       0.14366831
In       2.85931954       1.17925292       2.92589834       12      -0.02181965       0.00000000      -0.14366831
In      -0.05419629       1.17925292      13.15120052       13      -0.02181965       0.00000000       0.14366831
In       2.96772524       3.53658224       5.11258000       14       0.02181965       0.00000000       0.14366831
In       5.88124107       3.53658224      10.96451886       15       0.02181965      -0.00000000      -0.14366831
O        5.07026916       3.53658224      12.86219678       16      -0.00868772      -0.00000000       0.12473956
O        2.15675333       3.53658224       3.21490208       17      -0.00868772      -0.00000000      -0.12473956
O        0.75677562       1.17925292      11.25352260       18       0.00868772       0.00000000      -0.12473956
O        3.67029144       1.17925292       4.82357626       19       0.00868772       0.00000000       0.12473956
O        0.75677562       1.17925292       3.21490208       20       0.00868772       0.00000000      -0.12473956
O        3.67029144       1.17925292      12.86219678       21       0.00868772       0.00000000       0.12473956
O        5.07026916       3.53658224       4.82357626       22      -0.00868772       0.00000000       0.12473956
O        2.15675333       3.53658224      11.25352260       23      -0.00868772      -0.00000000      -0.12473956
O        4.37028030       2.35791758      10.04820456       24       0.00000000      -0.00000000      -0.00000000
O        1.45676448       4.71524690       6.02889430       25      -0.00000000       0.00000000      -0.00000000
O        1.45676448       0.00058826      14.06751482       26      -0.00000000      -0.00000000       0.00000000
O        4.37028030       2.35791758       2.00958404       27       0.00000000      -0.00000000       0.00000000
O        1.45676448       2.35791758       6.02889430       28      -0.00000000      -0.00000000      -0.00000000
O        4.37028030       0.00058826      10.04820456       29       0.00000000      -0.00000000      -0.00000000
O        4.37028030       4.71524690       2.00958404       30       0.00000000       0.00000000       0.00000000
O        1.45676448       2.35791758      14.06751482       31      -0.00000000      -0.00000000      -0.00000000
O        3.67029144       3.53658224      15.27283286       32       0.00868772       0.00000000      -0.12473956
O        0.75677562       3.53658224       0.80426600       33       0.00868772      -0.00000000       0.12473956
O        2.15675333       1.17925292       8.84288652       34      -0.00868772       0.00000000       0.12473956
O        5.07026916       1.17925292       7.23421234       35      -0.00868772       0.00000000      -0.12473956
O        2.15675333       1.17925292       0.80426600       36      -0.00868772       0.00000000       0.12473956
O        5.07026916       1.17925292      15.27283286       37      -0.00868772       0.00000000      -0.12473956
O        3.67029144       3.53658224       7.23421234       38       0.00868772      -0.00000000      -0.12473956
O        0.75677562       3.53658224       8.84288652       39       0.00868772      -0.00000000       0.12473956
40
Lattice="5.88451404330741 -5.3554212097791486e-17 -4.268519968930398e-18 1.0133062016263985e-15 4.6654052749929065 5.594032485737994e-16 4.937418458871066e-15 1.4595246362021661e-16 16.08826360723289" Properties=species:S:1:pos:R:3:spacegroup_kinds:I:1:forces:R:3 spacegroup="P 1" unit_cell=conventional occupancy="_JSON {\"0\": {\"In\": 1}, \"1\": {\"In\": 1}, \"2\": {\"In\": 1}, \"3\": {\"In\": 1}, \"4\": {\"In\": 1}, \"5\": {\"In\": 1}, \"6\": {\"In\": 1}, \"7\": {\"In\": 1}, \"8\": {\"In\": 1}, \"9\": {\"In\": 1}, \"10\": {\"In\": 1}, \"11\": {\"In\": 1}, \"12\": {\"In\": 1}, \"13\": {\"In\": 1}, \"14\": {\"In\": 1}, \"15\": {\"In\": 1}, \"16\": {\"O\": 1}, \"17\": {\"O\": 1}, \"18\": {\"O\": 1}, \"19\": {\"O\": 1}, \"20\": {\"O\": 1}, \"21\": {\"O\": 1}, \"22\": {\"O\": 1}, \"23\": {\"O\": 1}, \"24\": {\"O\": 1}, \"25\": {\"O\": 1}, \"26\": {\"O\": 1}, \"27\": {\"O\": 1}, \"28\": {\"O\": 1}, \"29\": {\"O\": 1}, \"30\": {\"O\": 1}, \"31\": {\"O\": 1}, \"32\": {\"O\": 1}, \"33\": {\"O\": 1}, \"34\": {\"O\": 1}, \"35\": {\"O\": 1}, \"36\": {\"O\": 1}, \"37\": {\"O\": 1}, \"38\": {\"O\": 1}, \"39\": {\"O\": 1}}" n_minim_iter=2 energy=-45146.61253197749 stress="-0.1555120817428325 2.401255056684648e-13 3.015537164434764e-13 2.401255056684648e-13 -0.15570218351364412 -8.790436476602938e-14 3.015537164434764e-13 -8.790436476602938e-14 -0.16643259199383365" free_energy=-45146.61253197749 pbc="T T T"
In       2.88748643       3.49963607       9.13840988        0      -0.14788881       0.00000000       0.16004288
In      -0.05477059       3.49963607       6.94971145        1      -0.14788881      -0.00000000      -0.16004288
In       2.99704087       1.16693344      14.99384325        2       0.14788881       0.00000000      -0.16004288
In       5.93929789       1.16693344       1.09427808        3       0.14788881       0.00000000       0.16004288
In       2.99704087       1.16693344       6.94971145        4       0.14788881       0.00000000      -0.16004288
In       5.93929789       1.16693344       9.13840988        5       0.14788881      -0.00000000       0.16004288
In       2.88748643       3.49963607       1.09427808        6      -0.14788881      -0.00000000       0.16004288
In      -0.05477059       3.49963607      14.99384325        7      -0.14788881       0.00000000      -0.16004288
In       2.99704087       3.49963607      13.16047578        8       0.14788881      -0.00000000       0.16004288
In       5.93929789       3.49963607       2.92764555        9       0.14788881      -0.00000000      -0.16004288
In       2.88748643       1.16693344      10.97177735       10      -0.14788881       0.00000000      -0.16004288
In      -0.05477059       1.16693344       5.11634398       11      -0.14788881       0.00000000       0.16004288
In       2.88748643       1.16693344       2.92764555       12      -0.14788881       0.00000000      -0.16004288
In      -0.05477059       1.16693344      13.16047578       13      -0.14788881      -0.00000000       0.16004288
In       2.99704087       3.49963607       5.11634398       14       0.14788881      -0.00000000       0.16004288
In       5.93929789       3.49963607      10.97177735       15       0.14788881       0.00000000      -0.16004288
O        5.12027046       3.49963607      12.87123981       16      -0.07134973      -0.00000000       0.18366760
O        2.17801344       3.49963607       3.21688152       17      -0.07134973      -0.00000000      -0.18366760
O        0.76425684       1.16693344      11.26101333       18       0.07134973       0.00000000      -0.18366760
O        3.70651386       1.16693344       4.82710800       19       0.07134973      -0.00000000       0.18366760
O        0.76425684       1.16693344       3.21688152       20       0.07134973       0.00000000      -0.18366760
O        3.70651386       1.16693344      12.87123981       21       0.07134973       0.00000000       0.18366760
O        5.12027046       3.49963607       4.82710800       22      -0.07134973      -0.00000000       0.18366760
O        2.17801344       3.49963607      11.26101333       23      -0.07134973      -0.00000000      -0.18366760
O        4.41339216       2.33328476      10.05509362       24       0.00000000      -0.00000000       0.00000000
O        1.47113514       4.66598739       6.03302771       25      -0.00000000       0.00000000       0.00000000
O        1.47113514       0.00058212      14.07715952       26       0.00000000      -0.00000000       0.00000000
O        4.41339216       2.33328476       2.01096181       27       0.00000000      -0.00000000       0.00000000
O        1.47113514       2.33328476       6.03302771       28       0.00000000      -0.00000000       0.00000000
O        4.41339216       0.00058212      10.05509362       29       0.00000000       0.00000000       0.00000000
O        4.41339216       4.66598739       2.01096181       30       0.00000000       0.00000000       0.00000000
O        1.47113514       2.33328476      14.07715952       31       0.00000000       0.00000000      -0.00000000
O        3.70651386       3.49963607      15.28307923       32       0.07134973      -0.00000000      -0.18366760
O        0.76425684       3.49963607       0.80504210       33       0.07134973      -0.00000000       0.18366760
O        2.17801344       1.16693344       8.84917390       34      -0.07134973       0.00000000       0.18366760
O        5.12027046       1.16693344       7.23894743       35      -0.07134973       0.00000000      -0.18366760
O        2.17801344       1.16693344       0.80504210       36      -0.07134973       0.00000000       0.18366760
O        5.12027046       1.16693344      15.28307923       37      -0.07134973       0.00000000      -0.18366760
O        3.70651386       3.49963607       7.23894743       38       0.07134973      -0.00000000      -0.18366760
O        0.76425684       3.49963607       8.84917390       39       0.07134973      -0.00000000       0.18366760
40
Lattice="5.881499989964033 -6.398958448092095e-17 -3.198286306508913e-16 1.0043637305873154e-15 4.645179947364555 5.522034941133668e-16 4.024091560382701e-15 1.1667744695513865e-16 16.166593192086946" Properties=species:S:1:pos:R:3:spacegroup_kinds:I:1:forces:R:3 spacegroup="P 1" unit_cell=conventional occupancy="_JSON {\"0\": {\"In\": 1}, \"1\": {\"In\": 1}, \"2\": {\"In\": 1}, \"3\": {\"In\": 1}, \"4\": {\"In\": 1}, \"5\": {\"In\": 1}, \"6\": {\"In\": 1}, \"7\": {\"In\": 1}, \"8\": {\"In\": 1}, \"9\": {\"In\": 1}, \"10\": {\"In\": 1}, \"11\": {\"In\": 1}, \"12\": {\"In\": 1}, \"13\": {\"In\": 1}, \"14\": {\"In\": 1}, \"15\": {\"In\": 1}, \"16\": {\"O\": 1}, \"17\": {\"O\": 1}, \"18\": {\"O\": 1}, \"19\": {\"O\": 1}, \"20\": {\"O\": 1}, \"21\": {\"O\": 1}, \"22\": {\"O\": 1}, \"23\": {\"O\": 1}, \"24\": {\"O\": 1}, \"25\": {\"O\": 1}, \"26\": {\"O\": 1}, \"27\": {\"O\": 1}, \"28\": {\"O\": 1}, \"29\": {\"O\": 1}, \"30\": {\"O\": 1}, \"31\": {\"O\": 1}, \"32\": {\"O\": 1}, \"33\": {\"O\": 1}, \"34\": {\"O\": 1}, \"35\": {\"O\": 1}, \"36\": {\"O\": 1}, \"37\": {\"O\": 1}, \"38\": {\"O\": 1}, \"39\": {\"O\": 1}}" n_minim_iter=3 energy=-45146.62572936934 stress="-0.15750132346184315 4.409161687311692e-13 2.2385997587581092e-13 4.409161687311692e-13 -0.15564799246713426 2.200184681263654e-14 2.2385997587581092e-13 2.200184681263654e-14 -0.15580049444675617" free_energy=-45146.62572936934 pbc="T T T"
In       2.88577636       3.48446456       9.18319171        0      -0.08996903      -0.00000000       0.10554133
In      -0.05497363       3.48446456       6.98325852        1      -0.08996903      -0.00000000      -0.10554133
In       2.99573688       1.16187458      15.06655511        2       0.08996903      -0.00000000      -0.10554133
In       5.93648687       1.16187458       1.09989511        3       0.08996903      -0.00000000       0.10554133
In       2.99573688       1.16187458       6.98325852        4       0.08996903      -0.00000000      -0.10554133
In       5.93648687       1.16187458       9.18319171        5       0.08996903       0.00000000       0.10554133
In       2.88577636       3.48446456       1.09989511        6      -0.08996903      -0.00000000       0.10554133
In      -0.05497363       3.48446456      15.06655511        7      -0.08996903      -0.00000000      -0.10554133
In       2.99573688       3.48446456      13.22484000        8       0.08996903       0.00000000       0.10554133
In       5.93648687       3.48446456       2.94161022        9       0.08996903       0.00000000      -0.10554133
In       2.88577636       1.16187458      11.02490681       10      -0.08996903      -0.00000000      -0.10554133
In      -0.05497363       1.16187458       5.14154341       11      -0.08996903      -0.00000000       0.10554133
In       2.88577636       1.16187458       2.94161022       12      -0.08996903      -0.00000000      -0.10554133
In      -0.05497363       1.16187458      13.22484000       13      -0.08996903       0.00000000       0.10554133
In       2.99573688       3.48446456       5.14154341       14       0.08996903       0.00000000       0.10554133
In       5.93648687       3.48446456      11.02490681       15       0.08996903       0.00000000      -0.10554133
O        5.11753701       3.48446456      12.93422437       16      -0.03337126      -0.00000000       0.06344566
O        2.17678702       3.48446456       3.23222585       17      -0.03337126       0.00000000      -0.06344566
O        0.76397623       1.16187458      11.31552245       18       0.03337126      -0.00000000      -0.06344566
O        3.70472622       1.16187458       4.85092777       19       0.03337126      -0.00000000       0.06344566
O        0.76397623       1.16187458       3.23222585       20       0.03337126       0.00000000      -0.06344566
O        3.70472622       1.16187458      12.93422437       21       0.03337126      -0.00000000       0.06344566
O        5.11753701       3.48446456       4.85092777       22      -0.03337126       0.00000000       0.06344566
O        2.17678702       3.48446456      11.31552245       23      -0.03337126      -0.00000000      -0.06344566
O        4.41113162       2.32316957      10.10404926       24       0.00000000      -0.00000000      -0.00000000
O        1.47038162       4.64575954       6.06240096       25      -0.00000000      -0.00000000      -0.00000000
O        1.47038162       0.00057960      14.14569756       26      -0.00000000       0.00000000       0.00000000
O        4.41113162       2.32316957       2.02075266       27      -0.00000000      -0.00000000       0.00000000
O        1.47038162       2.32316957       6.06240096       28      -0.00000000       0.00000000       0.00000000
O        4.41113162       0.00057960      10.10404926       29      -0.00000000       0.00000000       0.00000000
O        4.41113162       4.64575954       2.02075266       30      -0.00000000      -0.00000000      -0.00000000
O        1.47038162       2.32316957      14.14569756       31       0.00000000       0.00000000       0.00000000
O        3.70472622       3.48446456      15.35717075       32       0.03337126       0.00000000      -0.06344566
O        0.76397623       3.48446456       0.80927947       33       0.03337126       0.00000000       0.06344566
O        2.17678702       1.16187458       8.89257607       34      -0.03337126       0.00000000       0.06344566
O        5.11753701       1.16187458       7.27387415       35      -0.03337126       0.00000000      -0.06344566
O        2.17678702       1.16187458       0.80927947       36      -0.03337126      -0.00000000       0.06344566
O        5.11753701       1.16187458      15.35717075       37      -0.03337126       0.00000000      -0.06344566
O        3.70472622       3.48446456       7.27387415       38       0.03337126       0.00000000      -0.06344566
O        0.76397623       3.48446456       8.89257607       39       0.03337126      -0.00000000       0.06344566
40
Lattice="5.897936622228213 -7.166656467854991e-17 -3.419971415018441e-16 1.0009592734274738e-15 4.638078634229128 6.020958784316144e-16 3.972512537634819e-15 2.889933406974217e-16 16.14622292914999" Properties=species:S:1:pos:R:3:spacegroup_kinds:I:1:forces:R:3 spacegroup="P 1" unit_cell=conventional occupancy="_JSON {\"0\": {\"In\": 1}, \"1\": {\"In\": 1}, \"2\": {\"In\": 1}, \"3\": {\"In\": 1}, \"4\": {\"In\": 1}, \"5\": {\"In\": 1}, \"6\": {\"In\": 1}, \"7\": {\"In\": 1}, \"8\": {\"In\": 1}, \"9\": {\"In\": 1}, \"10\": {\"In\": 1}, \"11\": {\"In\": 1}, \"12\": {\"In\": 1}, \"13\": {\"In\": 1}, \"14\": {\"In\": 1}, \"15\": {\"In\": 1}, \"16\": {\"O\": 1}, \"17\": {\"O\": 1}, \"18\": {\"O\": 1}, \"19\": {\"O\": 1}, \"20\": {\"O\": 1}, \"21\": {\"O\": 1}, \"22\": {\"O\": 1}, \"23\": {\"O\": 1}, \"24\": {\"O\": 1}, \"25\": {\"O\": 1}, \"26\": {\"O\": 1}, \"27\": {\"O\": 1}, \"28\": {\"O\": 1}, \"29\": {\"O\": 1}, \"30\": {\"O\": 1}, \"31\": {\"O\": 1}, \"32\": {\"O\": 1}, \"33\": {\"O\": 1}, \"34\": {\"O\": 1}, \"35\": {\"O\": 1}, \"36\": {\"O\": 1}, \"37\": {\"O\": 1}, \"38\": {\"O\": 1}, \"39\": {\"O\": 1}}" n_minim_iter=4 energy=-45146.633409677845 stress="-0.15171593949830148 -2.1998828647029395e-13 1.6016827669237455e-13 -2.1998828647029395e-13 -0.15364839884281173 3.2902846788291276e-13 1.6016827669237455e-13 3.2902846788291276e-13 -0.1531876642161196" free_energy=-45146.633409677845 pbc="T T T"
In       2.89067225       3.47913768       9.17504121        0      -0.03466051       0.00000000       0.01131129
In      -0.05829606       3.47913768       6.97103893        1      -0.03466051       0.00000000      -0.01131129
In       3.00727766       1.16009837      15.04415039        2       0.03466051      -0.00000000      -0.01131129
In       5.95624597       1.16009837       1.10192975        3       0.03466051       0.00000000       0.01131129
In       3.00727766       1.16009837       6.97103893        4       0.03466051      -0.00000000      -0.01131129
In       5.95624597       1.16009837       9.17504121        5       0.03466051      -0.00000000       0.01131129
In       2.89067225       3.47913768       1.10192975        6      -0.03466051       0.00000000       0.01131129
In      -0.05829606       3.47913768      15.04415039        7      -0.03466051       0.00000000      -0.01131129
In       3.00727766       3.47913768      13.21159694        8       0.03466051       0.00000000       0.01131129
In       5.95624597       3.47913768       2.93448319        9       0.03466051       0.00000000      -0.01131129
In       2.89067225       1.16009837      11.00759466       10      -0.03466051       0.00000000      -0.01131129
In      -0.05829606       1.16009837       5.13848548       11      -0.03466051       0.00000000       0.01131129
In       2.89067225       1.16009837       2.93448319       12      -0.03466051       0.00000000      -0.01131129
In      -0.05829606       1.16009837      13.21159694       13      -0.03466051       0.00000000       0.01131129
In       3.00727766       3.47913768       5.13848548       14       0.03466051      -0.00000000       0.01131129
In       5.95624597       3.47913768      11.00759466       15       0.03466051      -0.00000000      -0.01131129
O        5.13062930       3.47913768      12.92009355       16       0.01546072       0.00000000       0.00029387
O        2.18166099       3.47913768       3.22598659       17       0.01546072       0.00000000      -0.00029387
O        0.76732061       1.16009837      11.29909805       18      -0.01546072      -0.00000000      -0.00029387
O        3.71628892       1.16009837       4.84698209       19      -0.01546072      -0.00000000       0.00029387
O        0.76732061       1.16009837       3.22598659       20      -0.01546072       0.00000000      -0.00029387
O        3.71628892       1.16009837      12.92009355       21      -0.01546072       0.00000000       0.00029387
O        5.13062930       3.47913768       4.84698209       22       0.01546072      -0.00000000       0.00029387
O        2.18166099       3.47913768      11.29909805       23       0.01546072      -0.00000000      -0.00029387
O        4.42345911       2.31961803      10.09131794       24      -0.00000000      -0.00000000       0.00000000
O        1.47449080       4.63865734       6.05476220       25       0.00000000      -0.00000000      -0.00000000
O        1.47449080       0.00057871      14.12787367       26      -0.00000000       0.00000000       0.00000000
O        4.42345911       2.31961803       2.01820647       27      -0.00000000      -0.00000000       0.00000000
O        1.47449080       2.31961803       6.05476220       28       0.00000000      -0.00000000       0.00000000
O        4.42345911       0.00057871      10.09131794       29       0.00000000      -0.00000000       0.00000000
O        4.42345911       4.63865734       2.01820647       30      -0.00000000      -0.00000000      -0.00000000
O        1.47449080       2.31961803      14.12787367       31      -0.00000000      -0.00000000       0.00000000
O        3.71628892       3.47913768      15.33565378       32      -0.01546072      -0.00000000      -0.00029387
O        0.76732061       3.47913768       0.81042636       33      -0.01546072      -0.00000000       0.00029387
O        2.18166099       1.16009837       8.88353782       34       0.01546072      -0.00000000       0.00029387
O        5.13062930       1.16009837       7.26254232       35       0.01546072       0.00000000      -0.00029387
O        2.18166099       1.16009837       0.81042636       36       0.01546072       0.00000000       0.00029387
O        5.13062930       1.16009837      15.33565378       37       0.01546072      -0.00000000      -0.00029387
O        3.71628892       3.47913768       7.26254232       38      -0.01546072      -0.00000000      -0.00029387
O        0.76732061       3.47913768       8.88353782       39      -0.01546072       0.00000000       0.00029387
40
Lattice="5.894919661587485 -7.22268575145976e-17 -3.4614920975500604e-16 1.0000122196293504e-15 4.641979030048416 6.021089498073087e-16 3.9587289521619314e-15 2.899414450893292e-16 16.140912690753535" Properties=species:S:1:pos:R:3:spacegroup_kinds:I:1:forces:R:3 spacegroup="P 1" unit_cell=conventional occupancy="_JSON {\"0\": {\"In\": 1}, \"1\": {\"In\": 1}, \"2\": {\"In\": 1}, \"3\": {\"In\": 1}, \"4\": {\"In\": 1}, \"5\": {\"In\": 1}, \"6\": {\"In\": 1}, \"7\": {\"In\": 1}, \"8\": {\"In\": 1}, \"9\": {\"In\": 1}, \"10\": {\"In\": 1}, \"11\": {\"In\": 1}, \"12\": {\"In\": 1}, \"13\": {\"In\": 1}, \"14\": {\"In\": 1}, \"15\": {\"In\": 1}, \"16\": {\"O\": 1}, \"17\": {\"O\": 1}, \"18\": {\"O\": 1}, \"19\": {\"O\": 1}, \"20\": {\"O\": 1}, \"21\": {\"O\": 1}, \"22\": {\"O\": 1}, \"23\": {\"O\": 1}, \"24\": {\"O\": 1}, \"25\": {\"O\": 1}, \"26\": {\"O\": 1}, \"27\": {\"O\": 1}, \"28\": {\"O\": 1}, \"29\": {\"O\": 1}, \"30\": {\"O\": 1}, \"31\": {\"O\": 1}, \"32\": {\"O\": 1}, \"33\": {\"O\": 1}, \"34\": {\"O\": 1}, \"35\": {\"O\": 1}, \"36\": {\"O\": 1}, \"37\": {\"O\": 1}, \"38\": {\"O\": 1}, \"39\": {\"O\": 1}}" n_minim_iter=5 energy=-45146.634059148004 stress="-0.1533385898673714 3.6433625879215685e-13 1.9334012811181114e-13 3.6433625879215685e-13 -0.15382772789449353 6.02280137547436e-14 1.9334012811181114e-13 6.02280137547436e-14 -0.15364553904539022" free_energy=-45146.634059148004 pbc="T T T"
In       2.88863315       3.48206347       9.17235941        0      -0.01691025       0.00000000       0.00408715
In      -0.05882668       3.48206347       6.96841054        1      -0.01691025       0.00000000      -0.00408715
In       3.00629979       1.16107395      15.03886688        2       0.01691025      -0.00000000      -0.00408715
In       5.95375962       1.16107395       1.10190306        3       0.01691025      -0.00000000       0.00408715
In       3.00629979       1.16107395       6.96841054        4       0.01691025      -0.00000000      -0.00408715
In       5.95375962       1.16107395       9.17235941        5       0.01691025      -0.00000000       0.00408715
In       2.88863315       3.48206347       1.10190306        6      -0.01691025      -0.00000000       0.00408715
In      -0.05882668       3.48206347      15.03886688        7      -0.01691025      -0.00000000      -0.00408715
In       3.00629979       3.48206347      13.20758758        8       0.01691025      -0.00000000       0.00408715
In       5.95375962       3.48206347       2.93318237        9       0.01691025      -0.00000000      -0.00408715
In       2.88863315       1.16107395      11.00363871       10      -0.01691025      -0.00000000      -0.00408715
In      -0.05882668       1.16107395       5.13713124       11      -0.01691025      -0.00000000       0.00408715
In       2.88863315       1.16107395       2.93318237       12      -0.01691025       0.00000000      -0.00408715
In      -0.05882668       1.16107395      13.20758758       13      -0.01691025       0.00000000       0.00408715
In       3.00629979       3.48206347       5.13713124       14       0.01691025       0.00000000       0.00408715
In       5.95375962       3.48206347      11.00363871       15       0.01691025      -0.00000000      -0.00408715
O        5.12822233       3.48206347      12.91591877       16       0.01886409       0.00000000      -0.00687275
O        2.18076250       3.48206347       3.22485118       17       0.01886409      -0.00000000       0.00687275
O        0.76671061       1.16107395      11.29530753       18      -0.01886409       0.00000000       0.00687275
O        3.71417044       1.16107395       4.84546242       19      -0.01886409       0.00000000      -0.00687275
O        0.76671061       1.16107395       3.22485118       20      -0.01886409       0.00000000       0.00687275
O        3.71417044       1.16107395      12.91591877       21      -0.01886409      -0.00000000      -0.00687275
O        5.12822233       3.48206347       4.84546242       22       0.01886409      -0.00000000      -0.00687275
O        2.18076250       3.48206347      11.29530753       23       0.01886409       0.00000000       0.00687275
O        4.42119639       2.32156871      10.08799906       24      -0.00000000       0.00000000       0.00000000
O        1.47373655       4.64255823       6.05277089       25      -0.00000000       0.00000000      -0.00000000
O        1.47373655       0.00057920      14.12322723       26       0.00000000      -0.00000000       0.00000000
O        4.42119639       2.32156871       2.01754271       27      -0.00000000       0.00000000      -0.00000000
O        1.47373655       2.32156871       6.05277089       28      -0.00000000      -0.00000000      -0.00000000
O        4.42119639       0.00057920      10.08799906       29      -0.00000000       0.00000000      -0.00000000
O        4.42119639       4.64255823       2.01754271       30       0.00000000       0.00000000      -0.00000000
O        1.47373655       2.32156871      14.12322723       31       0.00000000       0.00000000       0.00000000
O        3.71417044       3.48206347      15.33053570       32      -0.01886409       0.00000000       0.00687275
O        0.76671061       3.48206347       0.81023425       33      -0.01886409      -0.00000000      -0.00687275
O        2.18076250       1.16107395       8.88069059       34       0.01886409       0.00000000      -0.00687275
O        5.12822233       1.16107395       7.26007935       35       0.01886409       0.00000000       0.00687275
O        2.18076250       1.16107395       0.81023425       36       0.01886409       0.00000000      -0.00687275
O        5.12822233       1.16107395      15.33053570       37       0.01886409      -0.00000000       0.00687275
O        3.71417044       3.48206347       7.26007935       38      -0.01886409       0.00000000       0.00687275
O        0.76671061       3.48206347       8.88069059       39      -0.01886409      -0.00000000      -0.00687275
40