40
Lattice="5.5327919849775125 -9.955490031944082e-45 0.0 9.494654132036766e-44 5.734743423207717 0.0 0.0 0.0 15.967484704081787" Properties=species:S:1:pos:R:3:spacegroup_kinds:I:1:forces:R:3 spacegroup="P 1" unit_cell=conventional occupancy="_JSON {\"0\": {\"In\": 1}, \"1\": {\"In\": 1}, \"2\": {\"In\": 1}, \"3\": {\"In\": 1}, \"4\": {\"In\": 1}, \"5\": {\"In\": 1}, \"6\": {\"In\": 1}, \"7\": {\"In\": 1}, \"8\": {\"In\": 1}, \"9\": {\"In\": 1}, \"10\": {\"In\": 1}, \"11\": {\"In\": 1}, \"12\": {\"In\": 1}, \"13\": {\"In\": 1}, \"14\": {\"In\": 1}, \"15\": {\"In\": 1}, \"16\": {\"O\": 1}, \"17\": {\"O\": 1}, \"18\": {\"O\": 1}, \"19\": {\"O\": 1}, \"20\": {\"O\": 1}, \"21\": {\"O\": 1}, \"22\": {\"O\": 1}, \"23\": {\"O\": 1}, \"24\": {\"O\": 1}, \"25\": {\"O\": 1}, \"26\": {\"O\": 1}, \"27\": {\"O\": 1}, \"28\": {\"O\": 1}, \"29\": {\"O\": 1}, \"30\": {\"O\": 1}, \"31\": {\"O\": 1}, \"32\": {\"O\": 1}, \"33\": {\"O\": 1}, \"34\": {\"O\": 1}, \"35\": {\"O\": 1}, \"36\": {\"O\": 1}, \"37\": {\"O\": 1}, \"38\": {\"O\": 1}, \"39\": {\"O\": 1}}" n_minim_iter=8 energy=-45150.15089469972 stress="-0.022183959031580998 -4.141050701020768e-13 -4.6246747409325955e-14 -4.141050701020768e-13 -0.02215387642785126 1.7727545481480345e-13 -4.6246747409325955e-14 1.7727545481480345e-13 -0.022142907180381713" free_energy=-45150.15089469972 pbc="T T T"
In       2.76260127       4.58352752       9.11581563        0       0.00519435       0.00070623       0.00743619
In      -0.00379472       4.01858762       6.85166908        1       0.00519435      -0.00070623      -0.00743619
In       2.77019072       1.71615580      14.83541143        2      -0.00519435       0.00070623      -0.00743619
In       5.53658671       1.15121591       1.13207328        3      -0.00519435      -0.00070623       0.00743619
In       2.77019072       1.15121591       6.85166908        4      -0.00519435      -0.00070623      -0.00743619
In       5.53658671       1.71615580       9.11581563        5      -0.00519435       0.00070623       0.00743619
In       2.76260127       4.01858762       1.13207328        6       0.00519435      -0.00070623       0.00743619
In      -0.00379472       4.58352752      14.83541143        7       0.00519435       0.00070623      -0.00743619
In       2.75486045       4.28667739      13.06382605        8       0.00174400       0.00183144      -0.00064487
In       5.52125645       4.31543775       2.90365866        9       0.00174400      -0.00183144       0.00064487
In       2.77793153       1.41930568      10.88740101       10      -0.00174400       0.00183144       0.00064487
In       0.01153554       1.44806603       5.08008370       11      -0.00174400      -0.00183144      -0.00064487
In       2.77793153       1.44806603       2.90365866       12      -0.00174400      -0.00183144       0.00064487
In       0.01153554       1.41930568      13.06382605       13      -0.00174400       0.00183144      -0.00064487
In       2.75486045       4.31543775       5.08008370       14       0.00174400      -0.00183144      -0.00064487
In       5.52125645       4.28667739      10.88740101       15       0.00174400       0.00183144       0.00064487
O        4.75315264       5.06257047      12.74515367       16       0.00054512       0.00524242       0.00508674
O        1.98675665       3.53954466       3.22233104       17       0.00054512      -0.00524242      -0.00508674
O        0.77963935       2.19519876      11.20607339       18      -0.00054512       0.00524242      -0.00508674
O        3.54603534       0.67217295       4.76141131       19      -0.00054512      -0.00524242       0.00508674
O        0.77963935       0.67217295       3.22233104       20      -0.00054512      -0.00524242      -0.00508674
O        3.54603534       2.19519876      12.74515367       21      -0.00054512       0.00524242       0.00508674
O        4.75315264       3.53954466       4.76141131       22       0.00054512      -0.00524242       0.00508674
O        1.98675665       5.06257047      11.20607339       23       0.00054512       0.00524242      -0.00508674
O        3.91453128       3.02441391       9.97544737       24      -0.00056198       0.00387855      -0.00194652
O        1.14813529       5.57770122       5.99203733       25      -0.00056198      -0.00387855       0.00194652
O        1.61826071       0.15704220      13.97577968       26       0.00056198       0.00387855       0.00194652
O        4.38465670       2.71032951       1.99170502       27       0.00056198      -0.00387855      -0.00194652
O        1.61826071       2.71032951       5.99203733       28       0.00056198      -0.00387855       0.00194652
O        4.38465670       0.15704220       9.97544737       29       0.00056198       0.00387855      -0.00194652
O        3.91453128       5.57770122       1.99170502       30      -0.00056198      -0.00387855      -0.00194652
O        1.14813529       3.02441391      13.97577968       31      -0.00056198       0.00387855       0.00194652
O        3.56890170       3.78673165      15.12724403       32       0.00247452       0.00250777       0.00491246
O        0.80250570       4.81538348       0.84024068       33       0.00247452      -0.00250777      -0.00491246
O        1.96389029       0.91935994       8.82398303       34      -0.00247452       0.00250777      -0.00491246
O        4.73028628       1.94801177       7.14350167       35      -0.00247452      -0.00250777       0.00491246
O        1.96389029       1.94801177       0.84024068       36      -0.00247452      -0.00250777      -0.00491246
O        4.73028628       0.91935994      15.12724403       37      -0.00247452       0.00250777       0.00491246
O        3.56890170       4.81538348       7.14350167       38       0.00247452      -0.00250777       0.00491246
O        0.80250570       3.78673165       8.82398303       39       0.00247452       0.00250777      -0.00491246
