40
Lattice="6.006008407461678 -4.502496597911143e-16 1.3308105177059774e-15 -4.579718092424689e-16 4.09146588792208 -3.290545461376323e-15 8.740895727716355e-16 9.863440069774702e-16 16.38804167179568" Properties=species:S:1:pos:R:3:spacegroup_kinds:I:1:forces:R:3 spacegroup="P 1" unit_cell=conventional occupancy="_JSON {\"0\": {\"In\": 1}, \"1\": {\"In\": 1}, \"2\": {\"In\": 1}, \"3\": {\"In\": 1}, \"4\": {\"In\": 1}, \"5\": {\"In\": 1}, \"6\": {\"In\": 1}, \"7\": {\"In\": 1}, \"8\": {\"In\": 1}, \"9\": {\"In\": 1}, \"10\": {\"In\": 1}, \"11\": {\"In\": 1}, \"12\": {\"In\": 1}, \"13\": {\"In\": 1}, \"14\": {\"In\": 1}, \"15\": {\"In\": 1}, \"16\": {\"O\": 1}, \"17\": {\"O\": 1}, \"18\": {\"O\": 1}, \"19\": {\"O\": 1}, \"20\": {\"O\": 1}, \"21\": {\"O\": 1}, \"22\": {\"O\": 1}, \"23\": {\"O\": 1}, \"24\": {\"O\": 1}, \"25\": {\"O\": 1}, \"26\": {\"O\": 1}, \"27\": {\"O\": 1}, \"28\": {\"O\": 1}, \"29\": {\"O\": 1}, \"30\": {\"O\": 1}, \"31\": {\"O\": 1}, \"32\": {\"O\": 1}, \"33\": {\"O\": 1}, \"34\": {\"O\": 1}, \"35\": {\"O\": 1}, \"36\": {\"O\": 1}, \"37\": {\"O\": 1}, \"38\": {\"O\": 1}, \"39\": {\"O\": 1}}" n_minim_iter=7 energy=-45141.26728698638 stress="-0.21489826389501498 9.835677892627659e-13 4.67625488660117e-13 9.835677892627659e-13 -0.21505483192610256 -4.308988554573451e-13 4.67625488660117e-13 -4.308988554573451e-13 -0.2149123347706702" free_energy=-45141.26728698638 pbc="T T T"
In       2.88237783       3.06910992       9.29507248        0       0.00579111       0.00000000      -0.00341750
In      -0.12062637       3.06910992       7.09282427        1       0.00579111      -0.00000000       0.00341750
In       3.12364410       1.02337698      15.28684510        2      -0.00579111      -0.00000000       0.00341750
In       6.12664831       1.02337698       1.10105164        3      -0.00579111       0.00000000      -0.00341750
In       3.12364410       1.02337698       7.09282427        4      -0.00579111       0.00000000       0.00341750
In       6.12664831       1.02337698       9.29507248        5      -0.00579111      -0.00000000      -0.00341750
In       2.88237783       3.06910992       1.10105164        6       0.00579111      -0.00000000      -0.00341750
In      -0.12062637       3.06910992      15.28684510        7       0.00579111      -0.00000000       0.00341750
In       3.12364410       3.06910992      13.39208290        8      -0.00579111       0.00000000      -0.00341750
In       6.12664831       3.06910992       2.99581385        9      -0.00579111       0.00000000       0.00341750
In       2.88237783       1.02337698      11.18983468       10       0.00579111      -0.00000000       0.00341750
In      -0.12062637       1.02337698       5.19806206       11       0.00579111      -0.00000000      -0.00341750
In       2.88237783       1.02337698       2.99581385       12       0.00579111      -0.00000000       0.00341750
In      -0.12062637       1.02337698      13.39208290       13       0.00579111       0.00000000      -0.00341750
In       3.12364410       3.06910992       5.19806206       14      -0.00579111       0.00000000      -0.00341750
In       6.12664831       3.06910992      11.18983468       15      -0.00579111       0.00000000       0.00341750
O        5.25202786       3.06910992      13.08425989       16       0.00022142       0.00000000       0.00320992
O        2.24902365       3.06910992       3.30363685       17       0.00022142       0.00000000      -0.00320992
O        0.75399408       1.02337698      11.49765768       18      -0.00022142      -0.00000000      -0.00320992
O        3.75699828       1.02337698       4.89023906       19      -0.00022142      -0.00000000       0.00320992
O        0.75399408       1.02337698       3.30363685       20      -0.00022142      -0.00000000      -0.00320992
O        3.75699828       1.02337698      13.08425989       21      -0.00022142      -0.00000000       0.00320992
O        5.25202786       3.06910992       4.89023906       22       0.00022142       0.00000000       0.00320992
O        2.24902365       3.06910992      11.49765768       23       0.00022142       0.00000000      -0.00320992
O        4.50451307       2.04624345      10.24245358       24      -0.00000000       0.00000000      -0.00000000
O        1.50150887       4.09197639       6.14544316       25       0.00000000      -0.00000000      -0.00000000
O        1.50150887       0.00051051      14.33946400       26       0.00000000      -0.00000000       0.00000000
O        4.50451307       2.04624345       2.04843274       27       0.00000000       0.00000000      -0.00000000
O        1.50150887       2.04624345       6.14544316       28      -0.00000000       0.00000000       0.00000000
O        4.50451307       0.00051051      10.24245358       29      -0.00000000       0.00000000      -0.00000000
O        4.50451307       4.09197639       2.04843274       30       0.00000000       0.00000000      -0.00000000
O        1.50150887       2.04624345      14.33946400       31       0.00000000      -0.00000000      -0.00000000
O        3.75699828       3.06910992      15.59466810       32      -0.00022142       0.00000000      -0.00320992
O        0.75399408       3.06910992       0.79322864       33      -0.00022142       0.00000000       0.00320992
O        2.24902365       1.02337698       8.98724948       34       0.00022142      -0.00000000       0.00320992
O        5.25202786       1.02337698       7.40064727       35       0.00022142       0.00000000      -0.00320992
O        2.24902365       1.02337698       0.79322864       36       0.00022142      -0.00000000       0.00320992
O        5.25202786       1.02337698      15.59466810       37       0.00022142      -0.00000000      -0.00320992
O        3.75699828       3.06910992       7.40064727       38      -0.00022142       0.00000000      -0.00320992
O        0.75399408       3.06910992       8.98724948       39      -0.00022142      -0.00000000       0.00320992
