40
Lattice="5.473108356320164 -2.3809226872227715e-44 0.0 4.867001461906268e-44 5.616056587583403 0.0 0.0 0.0 15.637468174683578" Properties=species:S:1:pos:R:3:spacegroup_kinds:I:1:forces:R:3 spacegroup="P 1" unit_cell=conventional occupancy="_JSON {\"0\": {\"In\": 1}, \"1\": {\"In\": 1}, \"2\": {\"In\": 1}, \"3\": {\"In\": 1}, \"4\": {\"In\": 1}, \"5\": {\"In\": 1}, \"6\": {\"In\": 1}, \"7\": {\"In\": 1}, \"8\": {\"In\": 1}, \"9\": {\"In\": 1}, \"10\": {\"In\": 1}, \"11\": {\"In\": 1}, \"12\": {\"In\": 1}, \"13\": {\"In\": 1}, \"14\": {\"In\": 1}, \"15\": {\"In\": 1}, \"16\": {\"O\": 1}, \"17\": {\"O\": 1}, \"18\": {\"O\": 1}, \"19\": {\"O\": 1}, \"20\": {\"O\": 1}, \"21\": {\"O\": 1}, \"22\": {\"O\": 1}, \"23\": {\"O\": 1}, \"24\": {\"O\": 1}, \"25\": {\"O\": 1}, \"26\": {\"O\": 1}, \"27\": {\"O\": 1}, \"28\": {\"O\": 1}, \"29\": {\"O\": 1}, \"30\": {\"O\": 1}, \"31\": {\"O\": 1}, \"32\": {\"O\": 1}, \"33\": {\"O\": 1}, \"34\": {\"O\": 1}, \"35\": {\"O\": 1}, \"36\": {\"O\": 1}, \"37\": {\"O\": 1}, \"38\": {\"O\": 1}, \"39\": {\"O\": 1}}" n_minim_iter=13 energy=-45148.90487869179 stress="-0.07585346997304933 4.969634676821653e-13 5.149745255908776e-15 4.969634676821653e-13 -0.07593626119228981 -5.851208930456342e-14 5.149745255908776e-15 -5.851208930456342e-14 -0.07583390293895485" free_energy=-45148.90487869179 pbc="T T T"
In       2.73486714       4.46860410       8.92649809        0      -0.00010621      -0.00331971      -0.00646103
In      -0.00168704       3.95548078       6.71097009        1      -0.00010621       0.00331971       0.00646103
In       2.73824122       1.66057581      14.52970417        2       0.00010621      -0.00331971       0.00646103
In       5.47479540       1.14745248       1.10776400        3       0.00010621       0.00331971      -0.00646103
In       2.73824122       1.14745248       6.71097009        4       0.00010621       0.00331971       0.00646103
In       5.47479540       1.66057581       8.92649809        5       0.00010621      -0.00331971      -0.00646103
In       2.73486714       3.95548078       1.10776400        6      -0.00010621       0.00331971      -0.00646103
In      -0.00168704       4.46860410      14.52970417        7      -0.00010621      -0.00331971       0.00646103
In       2.73273088       4.19709543      12.77835414        8      -0.00098759      -0.00272105       0.00174138
In       5.46928506       4.22698945       2.85911404        9      -0.00098759       0.00272105      -0.00174138
In       2.74037747       1.38906714      10.67784813       10       0.00098759      -0.00272105      -0.00174138
In       0.00382330       1.41896116       4.95962005       11       0.00098759       0.00272105       0.00174138
In       2.74037747       1.41896116       2.85911404       12       0.00098759       0.00272105      -0.00174138
In       0.00382330       1.38906714      12.77835414       13       0.00098759      -0.00272105       0.00174138
In       2.73273088       4.22698945       4.95962005       14      -0.00098759       0.00272105       0.00174138
In       5.46928506       4.19709543      10.67784813       15      -0.00098759      -0.00272105      -0.00174138
O        4.69736277       4.97069313      12.48845291       16      -0.00104254      -0.00569195      -0.00492003
O        1.96080859       3.45339175       3.14901526       17      -0.00104254       0.00569195       0.00492003
O        0.77574559       2.16266484      10.96774935       18       0.00104254      -0.00569195       0.00492003
O        3.51229976       0.64536345       4.66971882       19       0.00104254       0.00569195      -0.00492003
O        0.77574559       0.64536345       3.14901526       20       0.00104254       0.00569195       0.00492003
O        3.51229976       2.16266484      12.48845291       21       0.00104254      -0.00569195      -0.00492003
O        4.69736277       3.45339175       4.66971882       22      -0.00104254       0.00569195      -0.00492003
O        1.96080859       4.97069313      10.96774935       23      -0.00104254      -0.00569195       0.00492003
O        3.89153036       2.95130167       9.79290896       24      -0.00330928       0.00058481       0.00013470
O        1.15497618       5.47278322       5.84455922       25      -0.00330928      -0.00058481      -0.00013470
O        1.58157800       0.14327337      13.66329330       26       0.00330928       0.00058481      -0.00013470
O        4.31813218       2.66475492       1.97417487       27       0.00330928      -0.00058481       0.00013470
O        1.58157800       2.66475492       5.84455922       28       0.00330928      -0.00058481      -0.00013470
O        4.31813218       0.14327337       9.79290896       29       0.00330928       0.00058481       0.00013470
O        3.89153036       5.47278322       1.97417487       30      -0.00330928      -0.00058481       0.00013470
O        1.15497618       2.95130167      13.66329330       31      -0.00330928       0.00058481      -0.00013470
O        3.51623335       3.71276054      14.79983307       32      -0.00411205       0.00173195      -0.00172399
O        0.77967917       4.71132434       0.83763511       33      -0.00411205      -0.00173195       0.00172399
O        1.95687501       0.90473225       8.65636919       34       0.00411205       0.00173195       0.00172399
O        4.69342918       1.90329605       6.98109898       35       0.00411205      -0.00173195      -0.00172399
O        1.95687501       1.90329605       0.83763511       36       0.00411205      -0.00173195       0.00172399
O        4.69342918       0.90473225      14.79983307       37       0.00411205       0.00173195      -0.00172399
O        3.51623335       4.71132434       6.98109898       38      -0.00411205      -0.00173195      -0.00172399
O        0.77967917       3.71276054       8.65636919       39      -0.00411205       0.00173195       0.00172399
