40
Lattice="5.808658106265029 9.136095425123647e-43 0.0 -9.420534467290613e-43 5.989502227428425 0.0 0.0 0.0 16.80258899451512" Properties=species:S:1:pos:R:3:spacegroup_kinds:I:1:forces:R:3 spacegroup="P 1" unit_cell=conventional occupancy="_JSON {\"0\": {\"In\": 1}, \"1\": {\"In\": 1}, \"2\": {\"In\": 1}, \"3\": {\"In\": 1}, \"4\": {\"In\": 1}, \"5\": {\"In\": 1}, \"6\": {\"In\": 1}, \"7\": {\"In\": 1}, \"8\": {\"In\": 1}, \"9\": {\"In\": 1}, \"10\": {\"In\": 1}, \"11\": {\"In\": 1}, \"12\": {\"In\": 1}, \"13\": {\"In\": 1}, \"14\": {\"In\": 1}, \"15\": {\"In\": 1}, \"16\": {\"O\": 1}, \"17\": {\"O\": 1}, \"18\": {\"O\": 1}, \"19\": {\"O\": 1}, \"20\": {\"O\": 1}, \"21\": {\"O\": 1}, \"22\": {\"O\": 1}, \"23\": {\"O\": 1}, \"24\": {\"O\": 1}, \"25\": {\"O\": 1}, \"26\": {\"O\": 1}, \"27\": {\"O\": 1}, \"28\": {\"O\": 1}, \"29\": {\"O\": 1}, \"30\": {\"O\": 1}, \"31\": {\"O\": 1}, \"32\": {\"O\": 1}, \"33\": {\"O\": 1}, \"34\": {\"O\": 1}, \"35\": {\"O\": 1}, \"36\": {\"O\": 1}, \"37\": {\"O\": 1}, \"38\": {\"O\": 1}, \"39\": {\"O\": 1}}" n_minim_iter=1 energy=-45147.775838689675 stress="0.07176740421392154 -5.46150981481394e-13 2.025628960806463e-13 -5.46150981481394e-13 0.07152752249778614 -2.8121165659728912e-14 2.025628960806463e-13 -2.8121165659728912e-14 0.06944708449115379" free_energy=-45147.775838689675 pbc="T T T"
In       2.88733945       4.78776957       9.60045524        0      -0.00164767       0.07317061       0.05199970
In      -0.01698960       4.19648377       7.20213375        1      -0.00164767      -0.07317061      -0.05199970
In       2.92131865       1.79301846      15.60342825        2       0.00164767       0.07317061      -0.05199970
In       5.82564771       1.20173266       1.19916075        3       0.00164767      -0.07317061       0.05199970
In       2.92131865       1.20173266       7.20213375        4       0.00164767      -0.07317061      -0.05199970
In       5.82564771       1.79301846       9.60045524        5       0.00164767       0.07317061       0.05199970
In       2.88733945       4.19648377       1.19916075        6      -0.00164767      -0.07317061       0.05199970
In      -0.01698960       4.78776957      15.60342825        7      -0.00164767       0.07317061      -0.05199970
In       2.86578121       4.43271143      13.73407773        8      -0.03049260      -0.02354283       0.01559402
In       5.77011026       4.55154191       3.06851127        9      -0.03049260       0.02354283      -0.01559402
In       2.94287690       1.43796031      11.46980576       10       0.03049260      -0.02354283      -0.01559402
In       0.03854784       1.55679080       5.33278323       11       0.03049260       0.02354283       0.01559402
In       2.94287690       1.55679080       3.06851127       12       0.03049260       0.02354283      -0.01559402
In       0.03854784       1.43796031      13.73407773       13       0.03049260      -0.02354283       0.01559402
In       2.86578121       4.55154191       5.33278323       14      -0.03049260       0.02354283       0.01559402
In       5.77011026       4.43271143      11.46980576       15      -0.03049260      -0.02354283      -0.01559402
O        4.98034557       5.21849668      13.42059094       16      -0.00405889      -0.00970485       0.01593363
O        2.07601652       3.76575666       3.38199805       17      -0.00405889       0.00970485      -0.01593363
O        0.82831254       2.22374557      11.78329255       18       0.00405889      -0.00970485      -0.01593363
O        3.73264159       0.77100555       5.01929645       19       0.00405889       0.00970485       0.01593363
O        0.82831254       0.77100555       3.38199805       20       0.00405889       0.00970485      -0.01593363
O        3.73264159       2.22374557      13.42059094       21       0.00405889      -0.00970485       0.01593363
O        4.98034557       3.76575666       5.01929645       22      -0.00405889       0.00970485       0.01593363
O        2.07601652       5.21849668      11.78329255       23      -0.00405889      -0.00970485      -0.01593363
O        4.07196588       3.15217536      10.50850894       24      -0.00421198       0.01047330       0.03864053
O        1.16763683       5.83207798       6.29408006       25      -0.00421198      -0.01047330      -0.03864053
O        1.73669222       0.15742425      14.69537456       26       0.00421198       0.01047330      -0.03864053
O        4.64102127       2.83732687       2.10721444       27       0.00421198      -0.01047330       0.03864053
O        1.73669222       2.83732687       6.29408006       28       0.00421198      -0.01047330      -0.03864053
O        4.64102127       0.15742425      10.50850894       29       0.00421198       0.01047330       0.03864053
O        4.07196588       5.83207798       2.10721444       30      -0.00421198      -0.01047330       0.03864053
O        1.16763683       3.15217536      14.69537456       31      -0.00421198       0.01047330      -0.03864053
O        3.75389695       3.95991773      15.94403638       32       0.01101477       0.02210646       0.03137590
O        0.84956790       5.02433561       0.85855262       33       0.01101477      -0.02210646      -0.03137590
O        2.05476115       0.96516661       9.25984712       34      -0.01101477       0.02210646      -0.03137590
O        4.95909021       2.02958450       7.54274188       35      -0.01101477      -0.02210646       0.03137590
O        2.05476115       2.02958450       0.85855262       36      -0.01101477      -0.02210646      -0.03137590
O        4.95909021       0.96516661      15.94403638       37      -0.01101477       0.02210646       0.03137590
O        3.75389695       5.02433561       7.54274188       38       0.01101477      -0.02210646       0.03137590
O        0.84956790       3.95991773       9.25984712       39       0.01101477       0.02210646      -0.03137590
40
Lattice="5.80187785251676 9.1995774040695e-43 0.0 -8.869297731215498e-43 5.984475248009404 0.0 0.0 0.0 16.836355745076233" Properties=species:S:1:pos:R:3:spacegroup_kinds:I:1:forces:R:3 spacegroup="P 1" unit_cell=conventional occupancy="_JSON {\"0\": {\"In\": 1}, \"1\": {\"In\": 1}, \"2\": {\"In\": 1}, \"3\": {\"In\": 1}, \"4\": {\"In\": 1}, \"5\": {\"In\": 1}, \"6\": {\"In\": 1}, \"7\": {\"In\": 1}, \"8\": {\"In\": 1}, \"9\": {\"In\": 1}, \"10\": {\"In\": 1}, \"11\": {\"In\": 1}, \"12\": {\"In\": 1}, \"13\": {\"In\": 1}, \"14\": {\"In\": 1}, \"15\": {\"In\": 1}, \"16\": {\"O\": 1}, \"17\": {\"O\": 1}, \"18\": {\"O\": 1}, \"19\": {\"O\": 1}, \"20\": {\"O\": 1}, \"21\": {\"O\": 1}, \"22\": {\"O\": 1}, \"23\": {\"O\": 1}, \"24\": {\"O\": 1}, \"25\": {\"O\": 1}, \"26\": {\"O\": 1}, \"27\": {\"O\": 1}, \"28\": {\"O\": 1}, \"29\": {\"O\": 1}, \"30\": {\"O\": 1}, \"31\": {\"O\": 1}, \"32\": {\"O\": 1}, \"33\": {\"O\": 1}, \"34\": {\"O\": 1}, \"35\": {\"O\": 1}, \"36\": {\"O\": 1}, \"37\": {\"O\": 1}, \"38\": {\"O\": 1}, \"39\": {\"O\": 1}}" n_minim_iter=2 energy=-45147.77722329003 stress="0.0705595826299348 -1.8403007020701076e-13 -1.3612566950734665e-13 -1.8403007020701076e-13 0.0704531255749984 -1.210124243091918e-13 -1.3612566950734665e-13 -1.210124243091918e-13 0.07077493233694176" free_energy=-45147.77722329003 pbc="T T T"
In       2.88396530       4.78392236       9.61987045        0       0.00566773       0.07774787       0.04681216
In      -0.01697362       4.19279051       7.21648529        1       0.00566773      -0.07774787      -0.04681216
In       2.91791255       1.79168474      15.63466316        2      -0.00566773       0.07774787      -0.04681216
In       5.81885147       1.20055289       1.20169258        3      -0.00566773      -0.07774787       0.04681216
In       2.91791255       1.20055289       7.21648529        4      -0.00566773      -0.07774787      -0.04681216
In       5.81885147       1.79168474       9.61987045        5      -0.00566773       0.07774787       0.04681216
In       2.88396530       4.19279051       1.20169258        6       0.00566773      -0.07774787       0.04681216
In      -0.01697362       4.78392236      15.63466316        7       0.00566773       0.07774787      -0.04681216
In       2.86236477       4.42893599      13.76171453        8      -0.03313372      -0.01846720       0.00548675
In       5.76330370       4.54777688       3.07464121        9      -0.03313372       0.01846720      -0.00548675
In       2.93951308       1.43669836      11.49281909       10       0.03313372      -0.01846720      -0.00548675
In       0.03857415       1.55553926       5.34353666       11       0.03313372       0.01846720       0.00548675
In       2.93951308       1.55553926       3.07464121       12       0.03313372       0.01846720      -0.00548675
In       0.03857415       1.43669836      13.76171453       13       0.03313372      -0.01846720       0.00548675
In       2.86236477       4.54777688       5.34353666       14      -0.03313372       0.01846720       0.00548675
In       5.76330370       4.42893599      11.49281909       15      -0.03313372      -0.01846720      -0.00548675
O        4.97452269       5.21409410      13.44759856       16      -0.00085126      -0.00914019       0.00860465
O        2.07358376       3.76261877       3.38875719       17      -0.00085126       0.00914019      -0.00860465
O        0.82735517       2.22185648      11.80693506       18       0.00085126      -0.00914019      -0.00860465
O        3.72829409       0.77038114       5.02942068       19       0.00085126       0.00914019       0.00860465
O        0.82735517       0.77038114       3.38875719       20       0.00085126       0.00914019      -0.00860465
O        3.72829409       2.22185648      13.44759856       21       0.00085126      -0.00914019       0.00860465
O        4.97452269       3.76261877       5.02942068       22      -0.00085126       0.00914019       0.00860465
O        2.07358376       5.21409410      11.80693506       23      -0.00085126      -0.00914019      -0.00860465
O        4.06720296       3.14955424      10.52971765       24      -0.00475183       0.00576636       0.04808295
O        1.16626404       5.82715863       6.30663810       25      -0.00475183      -0.00576636      -0.04808295
O        1.73467489       0.15731662      14.72481597       26       0.00475183       0.00576636      -0.04808295
O        4.63561381       2.83492101       2.11153978       27       0.00475183      -0.00576636       0.04808295
O        1.73467489       2.83492101       6.30663810       28       0.00475183      -0.00576636      -0.04808295
O        4.63561381       0.15731662      10.52971765       29       0.00475183       0.00576636       0.04808295
O        4.06720296       5.82715863       2.11153978       30      -0.00475183      -0.00576636       0.04808295
O        1.16626404       3.14955424      14.72481597       31      -0.00475183       0.00576636      -0.04808295
O        3.74954091       3.95664589      15.97615137       32       0.00610290       0.02320715       0.03660122
O        0.84860199       5.02006699       0.86020438       33       0.00610290      -0.02320715      -0.03660122
O        2.05233694       0.96440826       9.27838225       34      -0.00610290       0.02320715      -0.03660122
O        4.95327587       2.02782936       7.55797350       35      -0.00610290      -0.02320715       0.03660122
O        2.05233694       2.02782936       0.86020438       36      -0.00610290      -0.02320715      -0.03660122
O        4.95327587       0.96440826      15.97615137       37      -0.00610290       0.02320715       0.03660122
O        3.74954091       5.02006699       7.55797350       38       0.00610290      -0.02320715       0.03660122
O        0.84860199       3.95664589       9.27838225       39       0.00610290       0.02320715      -0.03660122
40
Lattice="5.786025041856363 9.101232335699372e-43 0.0 -7.737626456688308e-43 6.0012871139248425 0.0 0.0 0.0 16.835190547445396" Properties=species:S:1:pos:R:3:spacegroup_kinds:I:1:forces:R:3 spacegroup="P 1" unit_cell=conventional occupancy="_JSON {\"0\": {\"In\": 1}, \"1\": {\"In\": 1}, \"2\": {\"In\": 1}, \"3\": {\"In\": 1}, \"4\": {\"In\": 1}, \"5\": {\"In\": 1}, \"6\": {\"In\": 1}, \"7\": {\"In\": 1}, \"8\": {\"In\": 1}, \"9\": {\"In\": 1}, \"10\": {\"In\": 1}, \"11\": {\"In\": 1}, \"12\": {\"In\": 1}, \"13\": {\"In\": 1}, \"14\": {\"In\": 1}, \"15\": {\"In\": 1}, \"16\": {\"O\": 1}, \"17\": {\"O\": 1}, \"18\": {\"O\": 1}, \"19\": {\"O\": 1}, \"20\": {\"O\": 1}, \"21\": {\"O\": 1}, \"22\": {\"O\": 1}, \"23\": {\"O\": 1}, \"24\": {\"O\": 1}, \"25\": {\"O\": 1}, \"26\": {\"O\": 1}, \"27\": {\"O\": 1}, \"28\": {\"O\": 1}, \"29\": {\"O\": 1}, \"30\": {\"O\": 1}, \"31\": {\"O\": 1}, \"32\": {\"O\": 1}, \"33\": {\"O\": 1}, \"34\": {\"O\": 1}, \"35\": {\"O\": 1}, \"36\": {\"O\": 1}, \"37\": {\"O\": 1}, \"38\": {\"O\": 1}, \"39\": {\"O\": 1}}" n_minim_iter=3 energy=-45147.78173655723 stress="0.06807174338549725 4.383416041487245e-15 -1.1109788895674088e-13 4.383416041487245e-15 0.0718939197892993 -6.862504126292628e-14 -1.1109788895674088e-13 -6.862504126292628e-14 0.06960057230770655" free_energy=-45147.78173655723 pbc="T T T"
In       2.87646600       4.80342870       9.62293431        0       0.00566553       0.06195488       0.03568560
In      -0.01654652       4.19850197       7.21225624        1       0.00566553      -0.06195488      -0.03568560
In       2.90955904       1.80278514      15.62985152        2      -0.00566553       0.06195488      -0.03568560
In       5.80257156       1.19785842       1.20533903        3      -0.00566553      -0.06195488       0.03568560
In       2.90955904       1.19785842       7.21225624        4      -0.00566553      -0.06195488      -0.03568560
In       5.80257156       1.80278514       9.62293431        5      -0.00566553       0.06195488       0.03568560
In       2.87646600       4.19850197       1.20533903        6       0.00566553      -0.06195488       0.03568560
In      -0.01654652       4.80342870      15.62985152        7       0.00566553       0.06195488      -0.03568560
In       2.85197986       4.43988461      13.76127979        8      -0.02477874      -0.01484623      -0.01476825
In       5.74499238       4.56204606       3.07391076        9      -0.02477874       0.01484623       0.01476825
In       2.93404518       1.43924106      11.49150603       10       0.02477874      -0.01484623       0.01476825
In       0.04103266       1.56140250       5.34368452       11       0.02477874       0.01484623      -0.01476825
In       2.93404518       1.56140250       3.07391076       12       0.02477874       0.01484623       0.01476825
In       0.04103266       1.43924106      13.76127979       13       0.02477874      -0.01484623      -0.01476825
In       2.85197986       4.56204606       5.34368452       14      -0.02477874       0.01484623      -0.01476825
In       5.74499238       4.43988461      11.49150603       15      -0.02477874      -0.01484623       0.01476825
O        4.96083703       5.22801917      13.44740748       16      -0.01076802      -0.00205047       0.00002160
O        2.06782451       3.77391150       3.38778307       17      -0.01076802       0.00205047      -0.00002160
O        0.82518801       2.22737561      11.80537834       18       0.01076802      -0.00205047      -0.00002160
O        3.71820053       0.77326795       5.02981221       19       0.01076802       0.00205047       0.00002160
O        0.82518801       0.77326795       3.38778307       20       0.01076802       0.00205047      -0.00002160
O        3.71820053       2.22737561      13.44740748       21       0.01076802      -0.00205047       0.00002160
O        4.96083703       3.77391150       5.02981221       22      -0.01076802       0.00205047       0.00002160
O        2.06782451       5.22801917      11.80537834       23      -0.01076802      -0.00205047      -0.00002160
O        4.05572357       3.15889488      10.53269456       24      -0.00516478       0.02057746       0.03320217
O        1.16271104       5.84303579       6.30249599       25      -0.00516478      -0.02057746      -0.03320217
O        1.73030148       0.15825132      14.72009126       26       0.00516478       0.02057746      -0.03320217
O        4.62331400       2.84239223       2.11509929       27       0.00516478      -0.02057746       0.03320217
O        1.73030148       2.84239223       6.30249599       28       0.00516478      -0.02057746      -0.03320217
O        4.62331400       0.15825132      10.53269456       29       0.00516478       0.02057746       0.03320217
O        4.05572357       5.84303579       2.11509929       30      -0.00516478      -0.02057746       0.03320217
O        1.16271104       3.15889488      14.72009126       31      -0.00516478       0.02057746      -0.03320217
O        3.73981356       3.96957432      15.97788311       32       0.00003719       0.00841431       0.01860468
O        0.84680104       5.03235635       0.85730743       33       0.00003719      -0.00841431      -0.01860468
O        2.04621148       0.96893076       9.27490271       34      -0.00003719       0.00841431      -0.01860468
O        4.93922400       2.03171279       7.56028784       35      -0.00003719      -0.00841431       0.01860468
O        2.04621148       2.03171279       0.85730743       36      -0.00003719      -0.00841431      -0.01860468
O        4.93922400       0.96893076      15.97788311       37      -0.00003719       0.00841431       0.01860468
O        3.73981356       5.03235635       7.56028784       38       0.00003719      -0.00841431       0.01860468
O        0.84680104       3.96957432       9.27490271       39       0.00003719       0.00841431      -0.01860468
40
Lattice="5.795078051219231 9.01740167518251e-43 0.0 -7.683098331467292e-43 5.990041513846011 0.0 0.0 0.0 16.84044751176322" Properties=species:S:1:pos:R:3:spacegroup_kinds:I:1:forces:R:3 spacegroup="P 1" unit_cell=conventional occupancy="_JSON {\"0\": {\"In\": 1}, \"1\": {\"In\": 1}, \"2\": {\"In\": 1}, \"3\": {\"In\": 1}, \"4\": {\"In\": 1}, \"5\": {\"In\": 1}, \"6\": {\"In\": 1}, \"7\": {\"In\": 1}, \"8\": {\"In\": 1}, \"9\": {\"In\": 1}, \"10\": {\"In\": 1}, \"11\": {\"In\": 1}, \"12\": {\"In\": 1}, \"13\": {\"In\": 1}, \"14\": {\"In\": 1}, \"15\": {\"In\": 1}, \"16\": {\"O\": 1}, \"17\": {\"O\": 1}, \"18\": {\"O\": 1}, \"19\": {\"O\": 1}, \"20\": {\"O\": 1}, \"21\": {\"O\": 1}, \"22\": {\"O\": 1}, \"23\": {\"O\": 1}, \"24\": {\"O\": 1}, \"25\": {\"O\": 1}, \"26\": {\"O\": 1}, \"27\": {\"O\": 1}, \"28\": {\"O\": 1}, \"29\": {\"O\": 1}, \"30\": {\"O\": 1}, \"31\": {\"O\": 1}, \"32\": {\"O\": 1}, \"33\": {\"O\": 1}, \"34\": {\"O\": 1}, \"35\": {\"O\": 1}, \"36\": {\"O\": 1}, \"37\": {\"O\": 1}, \"38\": {\"O\": 1}, \"39\": {\"O\": 1}}" n_minim_iter=4 energy=-45147.78902816353 stress="0.06890047687563867 1.0885392958362578e-13 1.6408631538039708e-13 1.0885392958362578e-13 0.068809375645446 -1.4450518636363186e-13 1.6408631538039708e-13 -1.4450518636363186e-13 0.06831123028990782" free_energy=-45147.78902816353 pbc="T T T"
In       2.88161708       4.80456015       9.63216486        0      -0.01504909       0.00278671       0.01499239
In      -0.01592194       4.18050212       7.20828266        1      -0.01504909      -0.00278671      -0.01499239
In       2.91346097       1.80953940      15.62850641        2       0.01504909       0.00278671      -0.01499239
In       5.81100000       1.18548136       1.21194110        3       0.01504909      -0.00278671       0.01499239
In       2.91346097       1.18548136       7.20828266        4       0.01504909      -0.00278671      -0.01499239
In       5.81100000       1.80953940       9.63216486        5       0.01504909       0.00278671       0.01499239
In       2.88161708       4.18050212       1.21194110        6      -0.01504909      -0.00278671       0.01499239
In      -0.01592194       4.80456015      15.62850641        7      -0.01504909       0.00278671      -0.01499239
In       2.85215467       4.42907571      13.76632753        8       0.01303358       0.01721664      -0.05896928
In       5.74969369       4.55598656       3.07411999        9       0.01303358      -0.01721664       0.05896928
In       2.94292338       1.43405495      11.49434374       10      -0.01303358       0.01721664       0.05896928
In       0.04538436       1.56096581       5.34610377       11      -0.01303358      -0.01721664      -0.05896928
In       2.94292338       1.56096581       3.07411999       12      -0.01303358      -0.01721664       0.05896928
In       0.04538436       1.43405495      13.76632753       13      -0.01303358       0.01721664      -0.05896928
In       2.85215467       4.55598656       5.34610377       14       0.01303358      -0.01721664      -0.05896928
In       5.74969369       4.42907571      11.49434374       15       0.01303358       0.01721664       0.05896928
O        4.96838974       5.21704577      13.45279932       16      -0.02339355       0.00041077      -0.00176548
O        2.07085071       3.76801650       3.38764819       17      -0.02339355      -0.00041077       0.00176548
O        0.82668831       2.22202501      11.80787194       18       0.02339355       0.00041077       0.00176548
O        3.72422734       0.77299574       5.03257557       19       0.02339355      -0.00041077      -0.00176549
O        0.82668831       0.77299574       3.38764819       20       0.02339355      -0.00041077       0.00176548
O        3.72422734       2.22202501      13.45279932       21       0.02339355       0.00041077      -0.00176548
O        4.96838974       3.76801650       5.03257557       22      -0.02339355      -0.00041077      -0.00176549
O        2.07085071       5.21704577      11.80787194       23      -0.02339355       0.00041077       0.00176548
O        4.06144767       3.15388256      10.54216274       24       0.00578355       0.03543932       0.01168188
O        1.16390865       5.83117971       6.29828477       25       0.00578355      -0.03543932      -0.01168188
O        1.73363038       0.15886180      14.71850852       26      -0.00578355       0.03543932      -0.01168188
O        4.63116940       2.83615895       2.12193899       27      -0.00578355      -0.03543932       0.01168188
O        1.73363038       2.83615895       6.29828477       28      -0.00578355      -0.03543932      -0.01168188
O        4.63116940       0.15886180      10.54216274       29      -0.00578355       0.03543932       0.01168188
O        4.06144767       5.83117971       2.12193899       30       0.00578355      -0.03543932       0.01168188
O        1.16390865       3.15388256      14.71850852       31       0.00578355       0.03543932      -0.01168188
O        3.74650123       3.96510797      15.98756509       32      -0.01006266       0.00976571      -0.02029200
O        0.84896221       5.01995430       0.85288242       33      -0.01006266      -0.00976571       0.02029200
O        2.04857682       0.97008722       9.27310617       34       0.01006266       0.00976571       0.02029200
O        4.94611585       2.02493354       7.56734134       35       0.01006266      -0.00976571      -0.02029200
O        2.04857682       2.02493354       0.85288242       36       0.01006266      -0.00976571       0.02029200
O        4.94611585       0.97008722      15.98756509       37       0.01006266       0.00976571      -0.02029200
O        3.74650123       5.01995430       7.56734134       38      -0.01006266      -0.00976571      -0.02029200
O        0.84896221       3.96510797       9.27310617       39      -0.01006266       0.00976571       0.02029200
40
Lattice="5.785771274458981 7.507312030360017e-43 0.0 -9.529133707882371e-43 5.985054567383938 0.0 0.0 0.0 16.881591022274772" Properties=species:S:1:pos:R:3:spacegroup_kinds:I:1:forces:R:3 spacegroup="P 1" unit_cell=conventional occupancy="_JSON {\"0\": {\"In\": 1}, \"1\": {\"In\": 1}, \"2\": {\"In\": 1}, \"3\": {\"In\": 1}, \"4\": {\"In\": 1}, \"5\": {\"In\": 1}, \"6\": {\"In\": 1}, \"7\": {\"In\": 1}, \"8\": {\"In\": 1}, \"9\": {\"In\": 1}, \"10\": {\"In\": 1}, \"11\": {\"In\": 1}, \"12\": {\"In\": 1}, \"13\": {\"In\": 1}, \"14\": {\"In\": 1}, \"15\": {\"In\": 1}, \"16\": {\"O\": 1}, \"17\": {\"O\": 1}, \"18\": {\"O\": 1}, \"19\": {\"O\": 1}, \"20\": {\"O\": 1}, \"21\": {\"O\": 1}, \"22\": {\"O\": 1}, \"23\": {\"O\": 1}, \"24\": {\"O\": 1}, \"25\": {\"O\": 1}, \"26\": {\"O\": 1}, \"27\": {\"O\": 1}, \"28\": {\"O\": 1}, \"29\": {\"O\": 1}, \"30\": {\"O\": 1}, \"31\": {\"O\": 1}, \"32\": {\"O\": 1}, \"33\": {\"O\": 1}, \"34\": {\"O\": 1}, \"35\": {\"O\": 1}, \"36\": {\"O\": 1}, \"37\": {\"O\": 1}, \"38\": {\"O\": 1}, \"39\": {\"O\": 1}}" n_minim_iter=5 energy=-45147.791989028054 stress="0.06714672077733394 -9.451374652673456e-14 3.2267705144992585e-13 -9.451374652673456e-14 0.06726795440359137 -3.39196876762071e-13 3.2267705144992585e-13 -3.39196876762071e-13 0.06898640743217066" free_energy=-45147.791989028054 pbc="T T T"
In       2.87625689       4.80451449       9.65898378        0      -0.00691428       0.00436584      -0.00008320
In      -0.01662874       4.17306736       7.22260724        1      -0.00691428      -0.00436584       0.00008320
In       2.90951438       1.81198721      15.66340275        2       0.00691428       0.00436584       0.00008320
In       5.80240002       1.18054007       1.21818827        3       0.00691428      -0.00436584      -0.00008320
In       2.90951438       1.18054007       7.22260724        4       0.00691428      -0.00436584       0.00008320
In       5.80240002       1.81198721       9.65898378        5       0.00691428       0.00436584      -0.00008320
In       2.87625689       4.17306736       1.21818827        6      -0.00691428      -0.00436584      -0.00008320
In      -0.01662874       4.80451449      15.66340275        7      -0.00691428       0.00436584       0.00008320
In       2.84690182       4.42577624      13.79585624        8       0.00054420       0.02802125      -0.05628693
In       5.73978746       4.55180561       3.08573478        9       0.00054420      -0.02802125       0.05628693
In       2.93886946       1.43324895      11.52653029       10      -0.00054420       0.02802125       0.05628693
In       0.04598382       1.55927833       5.35506073       11      -0.00054420      -0.02802125      -0.05628693
In       2.93886946       1.55927833       3.08573478       12      -0.00054420      -0.02802125       0.05628693
In       0.04598382       1.43324895      13.79585624       13      -0.00054420       0.02802125      -0.05628693
In       2.84690182       4.55180561       5.35506073       14       0.00054420      -0.02802125      -0.05628693
In       5.73978746       4.42577624      11.52653029       15       0.00054420       0.02802125       0.05628693
O        4.95871511       5.21231180      13.48587548       16      -0.01579118       0.01212858      -0.01228031
O        2.06582947       3.76527005       3.39571554       17      -0.01579118      -0.01212858       0.01228031
O        0.82705617       2.21978452      11.83651106       18       0.01579118       0.01212858       0.01228031
O        3.71994181       0.77274277       5.04507997       19       0.01579118      -0.01212858      -0.01228031
O        0.82705617       0.77274277       3.39571554       20       0.01579118      -0.01212858       0.01228031
O        3.71994181       2.21978452      13.48587548       21       0.01579118       0.01212858      -0.01228031
O        4.95871511       3.76527005       5.04507997       22      -0.01579118      -0.01212858      -0.01228031
O        2.06582947       5.21231180      11.83651106       23      -0.01579118       0.01212858       0.01228031
O        4.05510110       3.15405693      10.57114553       24       0.00474498       0.02301553       0.02918553
O        1.16221547       5.82352492       6.31044550       25       0.00474498      -0.02301553      -0.02918553
O        1.73067017       0.16152965      14.75124101       26      -0.00474498       0.02301553      -0.02918553
O        4.62355581       2.83099764       2.13035002       27      -0.00474498      -0.02301553       0.02918553
O        1.73067017       2.83099764       6.31044550       28      -0.00474498      -0.02301553      -0.02918553
O        4.62355581       0.16152965      10.57114553       29      -0.00474498       0.02301553       0.02918553
O        4.05510110       5.82352492       2.13035002       30       0.00474498      -0.02301553       0.02918553
O        1.16221547       3.15405693      14.75124101       31       0.00474498       0.02301553      -0.02918553
O        3.74000857       3.96359842      16.02695167       32      -0.01624588       0.00946639      -0.01861759
O        0.84712293       5.01398343       0.85463935       33      -0.01624588      -0.00946639       0.01861759
O        2.04576270       0.97107113       9.29543486       34       0.01624588       0.00946639       0.01861759
O        4.93864834       2.02145615       7.58615616       35       0.01624588      -0.00946639      -0.01861759
O        2.04576270       2.02145615       0.85463935       36       0.01624588      -0.00946639       0.01861759
O        4.93864834       0.97107113      16.02695167       37       0.01624588       0.00946639      -0.01861759
O        3.74000857       5.01398343       7.58615616       38      -0.01624588      -0.00946639      -0.01861759
O        0.84712293       3.96359842       9.29543486       39      -0.01624588       0.00946639       0.01861759
40