40
Lattice="5.446429488294381 -6.746810073248515e-44 0.0 6.984581430923441e-44 5.63837277999119 0.0 0.0 0.0 15.651872052564142" Properties=species:S:1:pos:R:3:spacegroup_kinds:I:1:forces:R:3 spacegroup="P 1" unit_cell=conventional occupancy="_JSON {\"0\": {\"In\": 1}, \"1\": {\"In\": 1}, \"2\": {\"In\": 1}, \"3\": {\"In\": 1}, \"4\": {\"In\": 1}, \"5\": {\"In\": 1}, \"6\": {\"In\": 1}, \"7\": {\"In\": 1}, \"8\": {\"In\": 1}, \"9\": {\"In\": 1}, \"10\": {\"In\": 1}, \"11\": {\"In\": 1}, \"12\": {\"In\": 1}, \"13\": {\"In\": 1}, \"14\": {\"In\": 1}, \"15\": {\"In\": 1}, \"16\": {\"O\": 1}, \"17\": {\"O\": 1}, \"18\": {\"O\": 1}, \"19\": {\"O\": 1}, \"20\": {\"O\": 1}, \"21\": {\"O\": 1}, \"22\": {\"O\": 1}, \"23\": {\"O\": 1}, \"24\": {\"O\": 1}, \"25\": {\"O\": 1}, \"26\": {\"O\": 1}, \"27\": {\"O\": 1}, \"28\": {\"O\": 1}, \"29\": {\"O\": 1}, \"30\": {\"O\": 1}, \"31\": {\"O\": 1}, \"32\": {\"O\": 1}, \"33\": {\"O\": 1}, \"34\": {\"O\": 1}, \"35\": {\"O\": 1}, \"36\": {\"O\": 1}, \"37\": {\"O\": 1}, \"38\": {\"O\": 1}, \"39\": {\"O\": 1}}" n_minim_iter=1 energy=-45148.88076205126 stress="-0.08235223174366622 -2.924427034125159e-13 -2.527226801416497e-13 -2.924427034125159e-13 -0.08029856339117734 -1.536393986374006e-13 -2.527226801416497e-13 -1.536393986374006e-13 -0.07906878203657346" free_energy=-45148.88076205126 pbc="T T T"
In       2.72058345       4.50101958       8.93716051        0      -0.00071390      -0.02685182      -0.01327437
In      -0.00263130       3.95653959       6.71471155        1      -0.00071390       0.02685182       0.01327437
In       2.72584604       1.68183319      14.54064757        2       0.00071390      -0.02685182       0.01327437
In       5.44906078       1.13735320       1.11122448        3       0.00071390       0.02685182      -0.01327437
In       2.72584604       1.13735320       6.71471155        4       0.00071390       0.02685182       0.01327437
In       5.44906078       1.68183319       8.93716051        5       0.00071390      -0.02685182      -0.01327437
In       2.72058345       3.95653959       1.11122448        6      -0.00071390       0.02685182      -0.01327437
In      -0.00263130       4.50101958      14.54064757        7      -0.00071390      -0.02685182       0.01327437
In       2.71588123       4.21463602      12.80114687        8       0.03512094      -0.01325371      -0.05615109
In       5.43909597       4.24292315       2.85072518        9       0.03512094       0.01325371       0.05615109
In       2.73054826       1.39544963      10.67666121       10      -0.03512094      -0.01325371       0.05615109
In       0.00733351       1.42373676       4.97521085       11      -0.03512094       0.01325371      -0.05615109
In       2.73054826       1.42373676       2.85072518       12      -0.03512094       0.01325371       0.05615109
In       0.00733351       1.39544963      12.80114687       13      -0.03512094      -0.01325371      -0.05615109
In       2.71588123       4.24292315       4.97521085       14       0.03512094       0.01325371      -0.05615109
In       5.43909597       4.21463602      10.67666121       15       0.03512094      -0.01325371       0.05615109
O        4.67776476       4.98559267      12.49459939       16       0.02201568       0.05113583       0.01231872
O        1.95455001       3.47196650       3.15727266       17       0.02201568      -0.05113583      -0.01231872
O        0.76866473       2.16640628      10.98320868       18      -0.02201568       0.05113583      -0.01231872
O        3.49187947       0.65278011       4.66866337       19      -0.02201568      -0.05113583       0.01231872
O        0.76866473       0.65278011       3.15727266       20      -0.02201568      -0.05113583      -0.01231872
O        3.49187947       2.16640628      12.49459939       21      -0.02201568       0.05113583       0.01231872
O        4.67776476       3.47196650       4.66866337       22       0.02201568      -0.05113583       0.01231872
O        1.95455001       4.98559267      10.98320868       23       0.02201568       0.05113583      -0.01231872
O        3.86112550       2.97094960       9.78722663       24       0.09558875      -0.04504281       0.07749054
O        1.13791075       5.48660957       5.86464542       25       0.09558875       0.04504281      -0.07749054
O        1.58530399       0.15176321      13.69058144       26      -0.09558875      -0.04504281      -0.07749054
O        4.30851874       2.66742318       1.96129061       27      -0.09558875       0.04504281       0.07749054
O        1.58530399       2.66742318       5.86464542       28      -0.09558875       0.04504281      -0.07749054
O        4.30851874       0.15176321       9.78722663       29      -0.09558875      -0.04504281       0.07749054
O        3.86112550       5.48660957       1.96129061       30       0.09558875       0.04504281       0.07749054
O        1.13791075       2.97094960      13.69058144       31       0.09558875      -0.04504281      -0.07749054
O        3.50729959       3.72380293      14.82184623       32      -0.07132726      -0.01798792      -0.10398790
O        0.78408485       4.73375624       0.83002582       33      -0.07132726       0.01798792       0.10398790
O        1.93912989       0.90461654       8.65596185       34       0.07132726      -0.01798792       0.10398790
O        4.66234464       1.91456985       6.99591020       35       0.07132726       0.01798792      -0.10398790
O        1.93912989       1.91456985       0.83002582       36       0.07132726       0.01798792       0.10398790
O        4.66234464       0.90461654      14.82184623       37       0.07132726      -0.01798792      -0.10398790
O        3.50729959       4.73375624       6.99591020       38      -0.07132726       0.01798792      -0.10398790
O        0.78408485       3.72380293       8.65596185       39      -0.07132726      -0.01798792       0.10398790
40
Lattice="5.456564775502882 -9.985044955705975e-44 0.0 3.6829864378868107e-44 5.6367548016537175 0.0 0.0 0.0 15.627283888853324" Properties=species:S:1:pos:R:3:spacegroup_kinds:I:1:forces:R:3 spacegroup="P 1" unit_cell=conventional occupancy="_JSON {\"0\": {\"In\": 1}, \"1\": {\"In\": 1}, \"2\": {\"In\": 1}, \"3\": {\"In\": 1}, \"4\": {\"In\": 1}, \"5\": {\"In\": 1}, \"6\": {\"In\": 1}, \"7\": {\"In\": 1}, \"8\": {\"In\": 1}, \"9\": {\"In\": 1}, \"10\": {\"In\": 1}, \"11\": {\"In\": 1}, \"12\": {\"In\": 1}, \"13\": {\"In\": 1}, \"14\": {\"In\": 1}, \"15\": {\"In\": 1}, \"16\": {\"O\": 1}, \"17\": {\"O\": 1}, \"18\": {\"O\": 1}, \"19\": {\"O\": 1}, \"20\": {\"O\": 1}, \"21\": {\"O\": 1}, \"22\": {\"O\": 1}, \"23\": {\"O\": 1}, \"24\": {\"O\": 1}, \"25\": {\"O\": 1}, \"26\": {\"O\": 1}, \"27\": {\"O\": 1}, \"28\": {\"O\": 1}, \"29\": {\"O\": 1}, \"30\": {\"O\": 1}, \"31\": {\"O\": 1}, \"32\": {\"O\": 1}, \"33\": {\"O\": 1}, \"34\": {\"O\": 1}, \"35\": {\"O\": 1}, \"36\": {\"O\": 1}, \"37\": {\"O\": 1}, \"38\": {\"O\": 1}, \"39\": {\"O\": 1}}" n_minim_iter=2 energy=-45148.882505791706 stress="-0.07990641493348682 2.456716059745943e-13 -4.836835577725792e-13 2.456716059745943e-13 -0.07994609346847183 5.627908168966193e-13 -4.836835577725792e-13 5.627908168966193e-13 -0.08086124751636098" free_energy=-45148.882505791706 pbc="T T T"
In       2.72564464       4.49966961       8.92309194        0      -0.02370704      -0.04898253       0.00193266
In      -0.00263775       3.95546260       6.70419195        1      -0.02370704       0.04898253      -0.00193266
In       2.73092014       1.68129221      14.51783389        2       0.02370704      -0.04898253      -0.00193266
In       5.45920252       1.13708519       1.10945000        3       0.02370704       0.04898253       0.00193266
In       2.73092014       1.13708519       6.70419195        4       0.02370704       0.04898253      -0.00193266
In       5.45920252       1.68129221       8.92309194        5       0.02370704      -0.04898253       0.00193266
In       2.72564464       3.95546260       1.10945000        6      -0.02370704       0.04898253       0.00193266
In      -0.00263775       4.49966961      14.51783389        7      -0.02370704      -0.04898253      -0.00193266
In       2.72101173       4.21339779      12.78091514        8       0.05565199      -0.00698791      -0.05390941
In       5.44929412       4.24173442       2.84636875        9       0.05565199       0.00698791       0.05390941
In       2.73555305       1.39502039      10.66001070       10      -0.05565199      -0.00698791       0.05390941
In       0.00727066       1.42335701       4.96727319       11      -0.05565199       0.00698791      -0.05390941
In       2.73555305       1.42335701       2.84636875       12      -0.05565199       0.00698791       0.05390941
In       0.00727066       1.39502039      12.78091514       13      -0.05565199      -0.00698791      -0.05390941
In       2.72101173       4.24173442       4.96727319       14       0.05565199       0.00698791      -0.05390941
In       5.44929412       4.21339779      10.66001070       15       0.05565199      -0.00698791       0.05390941
O        4.68651759       4.98427316      12.47499786       16       0.00134295       0.04967516       0.02107505
O        1.95823520       3.47085904       3.15228603       17       0.00134295      -0.04967516      -0.02107505
O        0.77004719       2.16589576      10.96592797       18      -0.00134295       0.04967516      -0.02107505
O        3.49832957       0.65248164       4.66135592       19      -0.00134295      -0.04967516       0.02107505
O        0.77004719       0.65248164       3.15228603       20      -0.00134295      -0.04967516      -0.02107505
O        3.49832957       2.16589576      12.47499786       21      -0.00134295       0.04967516       0.02107505
O        4.68651759       3.47085904       4.66135592       22       0.00134295      -0.04967516       0.02107505
O        1.95823520       4.98427316      10.96592797       23       0.00134295       0.04967516      -0.02107505
O        3.86851890       2.96999915       9.77201970       24       0.09374115      -0.04268410       0.07535253
O        1.14023651       5.48513305       5.85526419       25       0.09374115       0.04268410      -0.07535253
O        1.58804587       0.15162175      13.66890614       26      -0.09374115      -0.04268410      -0.07535253
O        4.31632826       2.66675565       1.95837775       27      -0.09374115       0.04268410       0.07535253
O        1.58804587       2.66675565       5.85526419       28      -0.09374115       0.04268410      -0.07535253
O        4.31632826       0.15162175       9.77201970       29      -0.09374115      -0.04268410       0.07535253
O        3.86851890       5.48513305       1.95837775       30       0.09374115       0.04268410       0.07535253
O        1.14023651       2.96999915      13.66890614       31       0.09374115      -0.04268410      -0.07535253
O        3.51367098       3.72269526      14.79833625       32      -0.04582508      -0.00928772      -0.11808276
O        0.78538859       4.73243695       0.82894764       33      -0.04582508       0.00928772       0.11808276
O        1.94289380       0.90431786       8.64258958       34       0.04582508      -0.00928772       0.11808276
O        4.67117619       1.91405955       6.98469431       35       0.04582508       0.00928772      -0.11808276
O        1.94289380       1.91405955       0.82894764       36       0.04582508       0.00928772       0.11808276
O        4.67117619       0.90431786      14.79833625       37       0.04582508      -0.00928772      -0.11808276
O        3.51367098       4.73243695       6.98469431       38      -0.04582508       0.00928772      -0.11808276
O        0.78538859       3.72269526       8.64258958       39      -0.04582508      -0.00928772       0.11808276
40
Lattice="5.464456293012649 -9.969955341108469e-44 0.0 3.675760271051298e-44 5.622250797002858 0.0 0.0 0.0 15.644971955222339" Properties=species:S:1:pos:R:3:spacegroup_kinds:I:1:forces:R:3 spacegroup="P 1" unit_cell=conventional occupancy="_JSON {\"0\": {\"In\": 1}, \"1\": {\"In\": 1}, \"2\": {\"In\": 1}, \"3\": {\"In\": 1}, \"4\": {\"In\": 1}, \"5\": {\"In\": 1}, \"6\": {\"In\": 1}, \"7\": {\"In\": 1}, \"8\": {\"In\": 1}, \"9\": {\"In\": 1}, \"10\": {\"In\": 1}, \"11\": {\"In\": 1}, \"12\": {\"In\": 1}, \"13\": {\"In\": 1}, \"14\": {\"In\": 1}, \"15\": {\"In\": 1}, \"16\": {\"O\": 1}, \"17\": {\"O\": 1}, \"18\": {\"O\": 1}, \"19\": {\"O\": 1}, \"20\": {\"O\": 1}, \"21\": {\"O\": 1}, \"22\": {\"O\": 1}, \"23\": {\"O\": 1}, \"24\": {\"O\": 1}, \"25\": {\"O\": 1}, \"26\": {\"O\": 1}, \"27\": {\"O\": 1}, \"28\": {\"O\": 1}, \"29\": {\"O\": 1}, \"30\": {\"O\": 1}, \"31\": {\"O\": 1}, \"32\": {\"O\": 1}, \"33\": {\"O\": 1}, \"34\": {\"O\": 1}, \"35\": {\"O\": 1}, \"36\": {\"O\": 1}, \"37\": {\"O\": 1}, \"38\": {\"O\": 1}, \"39\": {\"O\": 1}}" n_minim_iter=3 energy=-45148.88700870511 stress="-0.0785235620954883 -7.693874170314797e-13 1.923585765979344e-13 -7.693874170314797e-13 -0.0811694374238673 4.251084103628404e-13 1.923585765979344e-13 4.251084103628404e-13 -0.07879203003080829" free_energy=-45148.88700870511 pbc="T T T"
In       2.72924331       4.48727798       8.93316154        0      -0.00871152      -0.07810467      -0.02506942
In      -0.00298483       3.94609821       6.71181041        1      -0.00871152       0.07810467       0.02506942
In       2.73521298       1.67615258      14.53429639        2       0.00871152      -0.07810467       0.02506942
In       5.46744113       1.13497282       1.11067556        3       0.00871152       0.07810467      -0.02506942
In       2.73521298       1.13497282       6.71181041        4       0.00871152       0.07810467       0.02506942
In       5.46744113       1.67615258       8.93316154        5       0.00871152      -0.07810467      -0.02506942
In       2.72924331       3.94609821       1.11067556        6      -0.00871152       0.07810467      -0.02506942
In      -0.00298483       4.48727798      14.53429639        7      -0.00871152      -0.07810467       0.02506942
In       2.72589877       4.20239932      12.79436935        8       0.04163617       0.02162434      -0.06326267
In       5.45812691       4.23097688       2.85060260        9       0.04163617      -0.02162434       0.06326267
In       2.73855753       1.39127392      10.67308858       10      -0.04163617       0.02162434       0.06326267
In       0.00632938       1.41985148       4.97188338       11      -0.04163617      -0.02162434      -0.06326267
In       2.73855753       1.41985148       2.85060260       12      -0.04163617      -0.02162434       0.06326267
In       0.00632938       1.39127392      12.79436935       13      -0.04163617       0.02162434      -0.06326267
In       2.72589877       4.23097688       4.97188338       14       0.04163617      -0.02162434      -0.06326267
In       5.45812691       4.20239932      10.67308858       15       0.04163617       0.02162434       0.06326267
O        4.69341078       4.97237672      12.48947174       16      -0.00411427       0.02774065       0.00870141
O        1.96118264       3.46099947       3.15550022       17      -0.00411427      -0.02774065      -0.00870141
O        0.77104551       2.16125132      10.97798619       18       0.00411427       0.02774065      -0.00870141
O        3.50327365       0.64987407       4.66698576       19       0.00411427      -0.02774065       0.00870141
O        0.77104551       0.64987407       3.15550022       20       0.00411427      -0.02774065      -0.00870141
O        3.50327365       2.16125132      12.48947174       21       0.00411427       0.02774065       0.00870141
O        4.69341078       3.46099947       4.66698576       22      -0.00411427      -0.02774065       0.00870141
O        1.96118264       4.97237672      10.97798619       23      -0.00411427       0.02774065      -0.00870141
O        3.87587593       2.96155426       9.78449074       24       0.07873322      -0.03844835       0.06727818
O        1.14364779       5.47182193       5.86048121       25       0.07873322       0.03844835      -0.06727818
O        1.58858036       0.15042886      13.68296719       26      -0.07873322      -0.03844835      -0.06727818
O        4.32080851       2.66069654       1.96200477       27      -0.07873322       0.03844835       0.06727818
O        1.58858036       2.66069654       5.86048121       28      -0.07873322       0.03844835      -0.06727818
O        4.32080851       0.15042886       9.78449074       29      -0.07873322      -0.03844835       0.06727818
O        3.87587593       5.47182193       1.96200477       30       0.07873322       0.03844835       0.06727818
O        1.14364779       2.96155426      13.68296719       31       0.07873322      -0.03844835      -0.06727818
O        3.51778379       3.71290616      14.81295174       32      -0.03533745       0.01999581      -0.07201431
O        0.78555564       4.72047004       0.83202022       33      -0.03533745      -0.01999581       0.07201431
O        1.94667251       0.90178076       8.65450620       34       0.03533745       0.01999581       0.07201431
O        4.67890065       1.90934464       6.99046576       35       0.03533745      -0.01999581      -0.07201431
O        1.94667251       1.90934464       0.83202022       36       0.03533745      -0.01999581       0.07201431
O        4.67890065       0.90178076      14.81295174       37       0.03533745       0.01999581      -0.07201431
O        3.51778379       4.72047004       6.99046576       38      -0.03533745      -0.01999581      -0.07201431
O        0.78555564       3.71290616       8.65450620       39      -0.03533745       0.01999581       0.07201431
40
Lattice="5.461683242690195 -9.988698863938317e-44 0.0 3.6836920396438405e-44 5.6338125873437415 0.0 0.0 0.0 15.620792212309846" Properties=species:S:1:pos:R:3:spacegroup_kinds:I:1:forces:R:3 spacegroup="P 1" unit_cell=conventional occupancy="_JSON {\"0\": {\"In\": 1}, \"1\": {\"In\": 1}, \"2\": {\"In\": 1}, \"3\": {\"In\": 1}, \"4\": {\"In\": 1}, \"5\": {\"In\": 1}, \"6\": {\"In\": 1}, \"7\": {\"In\": 1}, \"8\": {\"In\": 1}, \"9\": {\"In\": 1}, \"10\": {\"In\": 1}, \"11\": {\"In\": 1}, \"12\": {\"In\": 1}, \"13\": {\"In\": 1}, \"14\": {\"In\": 1}, \"15\": {\"In\": 1}, \"16\": {\"O\": 1}, \"17\": {\"O\": 1}, \"18\": {\"O\": 1}, \"19\": {\"O\": 1}, \"20\": {\"O\": 1}, \"21\": {\"O\": 1}, \"22\": {\"O\": 1}, \"23\": {\"O\": 1}, \"24\": {\"O\": 1}, \"25\": {\"O\": 1}, \"26\": {\"O\": 1}, \"27\": {\"O\": 1}, \"28\": {\"O\": 1}, \"29\": {\"O\": 1}, \"30\": {\"O\": 1}, \"31\": {\"O\": 1}, \"32\": {\"O\": 1}, \"33\": {\"O\": 1}, \"34\": {\"O\": 1}, \"35\": {\"O\": 1}, \"36\": {\"O\": 1}, \"37\": {\"O\": 1}, \"38\": {\"O\": 1}, \"39\": {\"O\": 1}}" n_minim_iter=4 energy=-45148.897696821594 stress="-0.07781072345622767 3.388322184704064e-14 1.1790702095432722e-13 3.388322184704064e-14 -0.07723723374315151 3.1405696612587153e-13 1.1790702095432722e-13 3.1405696612587153e-13 -0.07791506247273698" free_energy=-45148.897696821594 pbc="T T T"
In       2.72673605       4.49311766       8.91894686        0       0.05773707      -0.08865443      -0.02469452
In      -0.00410557       3.95760122       6.70184535        1       0.05773707       0.08865443       0.02469452
In       2.73494720       1.67621137      14.51224146        2      -0.05773707      -0.08865443       0.02469452
In       5.46578882       1.14069493       1.10855076        3      -0.05773707       0.08865443      -0.02469452
In       2.73494720       1.14069493       6.70184535        4      -0.05773707       0.08865443       0.02469452
In       5.46578882       1.67621137       8.91894686        5      -0.05773707      -0.08865443      -0.02469452
In       2.72673605       3.95760122       1.10855076        6       0.05773707       0.08865443      -0.02469452
In      -0.00410557       4.49311766      14.51224146        7       0.05773707      -0.08865443       0.02469452
In       2.72787709       4.21082486      12.77077748        8      -0.01923548       0.02195038      -0.04935071
In       5.45871871       4.23989402       2.85001473        9      -0.01923548      -0.02195038       0.04935071
In       2.73380615       1.39391857      10.66041084       10       0.01923548       0.02195038       0.04935071
In       0.00296453       1.42298772       4.96038138       11       0.01923548      -0.02195038      -0.04935071
In       2.73380615       1.42298772       2.85001473       12       0.01923548      -0.02195038       0.04935071
In       0.00296453       1.39391857      12.77077748       13       0.01923548       0.02195038      -0.04935071
In       2.72787709       4.23989402       4.96038138       14      -0.01923548      -0.02195038      -0.04935071
In       5.45871871       4.21082486      10.66041084       15      -0.01923548       0.02195038       0.04935071
O        4.69134305       4.98574553      12.47133250       16      -0.01631629       0.00905245      -0.01311210
O        1.96050143       3.46497335       3.14945972       17      -0.01631629      -0.00905245       0.01311210
O        0.77034019       2.16883924      10.95985582       18       0.01631629       0.00905245       0.01311210
O        3.50118181       0.64806706       4.66093639       19       0.01631629      -0.00905245      -0.01311210
O        0.77034019       0.64806706       3.14945972       20       0.01631629      -0.00905245       0.01311210
O        3.50118181       2.16883924      12.47133250       21       0.01631629       0.00905245      -0.01311210
O        4.69134305       3.46497335       4.66093639       22      -0.01631629      -0.00905245      -0.01311210
O        1.96050143       4.98574553      10.95985582       23      -0.01631629       0.00905245       0.01311210
O        3.88018589       2.96475057       9.77443384       24      -0.02388609       0.00098683       0.01996402
O        1.14934426       5.48596831       5.84635837       25      -0.02388609      -0.00098683      -0.01996402
O        1.58149736       0.14784427      13.65675448       26       0.02388609       0.00098683      -0.01996402
O        4.31233898       2.66906202       1.96403773       27       0.02388609      -0.00098683       0.01996402
O        1.58149736       2.66906202       5.84635837       28       0.02388609      -0.00098683      -0.01996402
O        4.31233898       0.14784427       9.77443384       29       0.02388609       0.00098683       0.01996402
O        3.88018589       5.48596831       1.96403773       30      -0.02388609      -0.00098683       0.01996402
O        1.14934426       2.96475057      13.65675448       31      -0.02388609       0.00098683      -0.01996402
O        3.51262521       3.72014244      14.78276926       32      -0.01485423       0.02170520       0.03597326
O        0.78178359       4.73057645       0.83802296       33      -0.01485423      -0.02170520      -0.03597326
O        1.94905803       0.90323614       8.64841906       34       0.01485423       0.02170520      -0.03597326
O        4.67989965       1.91367015       6.97237315       35       0.01485423      -0.02170520       0.03597326
O        1.94905803       1.91367015       0.83802296       36       0.01485423      -0.02170520      -0.03597326
O        4.67989965       0.90323614      14.78276926       37       0.01485423       0.02170520       0.03597326
O        3.51262521       4.73057645       6.97237315       38      -0.01485423      -0.02170520       0.03597326
O        0.78178359       3.72014244       8.64841906       39      -0.01485423       0.02170520      -0.03597326
40
Lattice="5.471250939685542 -9.895814235833999e-44 0.0 3.6580145112925896e-44 5.61645008176943 0.0 0.0 0.0 15.641680937511184" Properties=species:S:1:pos:R:3:spacegroup_kinds:I:1:forces:R:3 spacegroup="P 1" unit_cell=conventional occupancy="_JSON {\"0\": {\"In\": 1}, \"1\": {\"In\": 1}, \"2\": {\"In\": 1}, \"3\": {\"In\": 1}, \"4\": {\"In\": 1}, \"5\": {\"In\": 1}, \"6\": {\"In\": 1}, \"7\": {\"In\": 1}, \"8\": {\"In\": 1}, \"9\": {\"In\": 1}, \"10\": {\"In\": 1}, \"11\": {\"In\": 1}, \"12\": {\"In\": 1}, \"13\": {\"In\": 1}, \"14\": {\"In\": 1}, \"15\": {\"In\": 1}, \"16\": {\"O\": 1}, \"17\": {\"O\": 1}, \"18\": {\"O\": 1}, \"19\": {\"O\": 1}, \"20\": {\"O\": 1}, \"21\": {\"O\": 1}, \"22\": {\"O\": 1}, \"23\": {\"O\": 1}, \"24\": {\"O\": 1}, \"25\": {\"O\": 1}, \"26\": {\"O\": 1}, \"27\": {\"O\": 1}, \"28\": {\"O\": 1}, \"29\": {\"O\": 1}, \"30\": {\"O\": 1}, \"31\": {\"O\": 1}, \"32\": {\"O\": 1}, \"33\": {\"O\": 1}, \"34\": {\"O\": 1}, \"35\": {\"O\": 1}, \"36\": {\"O\": 1}, \"37\": {\"O\": 1}, \"38\": {\"O\": 1}, \"39\": {\"O\": 1}}" n_minim_iter=5 energy=-45148.90225859297 stress="-0.07595706357137716 -4.5439162428113206e-13 2.740989158316272e-13 -4.5439162428113206e-13 -0.07722794386498524 3.035049255930095e-13 2.740989158316272e-13 3.035049255930095e-13 -0.07554254282090249" free_energy=-45148.90225859297 pbc="T T T"
In       2.73388957       4.47279186       8.92924479        0       0.00949277      -0.03597868      -0.02885904
In      -0.00173590       3.95188326       6.71243615        1       0.00949277       0.03597868       0.02885904
In       2.73736137       1.66456682      14.53327662        2      -0.00949277      -0.03597868       0.02885904
In       5.47298684       1.14365822       1.10840432        3      -0.00949277       0.03597868      -0.02885904
In       2.73736137       1.14365822       6.71243615        4      -0.00949277       0.03597868       0.02885904
In       5.47298684       1.66456682       8.92924479        5      -0.00949277      -0.03597868      -0.02885904
In       2.73388957       3.95188326       1.10840432        6       0.00949277       0.03597868      -0.02885904
In      -0.00173590       4.47279186      14.53327662        7       0.00949277      -0.03597868       0.02885904
In       2.73348191       4.19899346      12.78319439        8      -0.01587802       0.01179751       0.00531137
In       5.46910738       4.22568166       2.85848655        9      -0.01587802      -0.01179751      -0.00531137
In       2.73776903       1.39076842      10.67932702       10       0.01587802       0.01179751      -0.00531137
In       0.00214356       1.41745662       4.96235392       11       0.01587802      -0.01179751       0.00531137
In       2.73776903       1.41745662       2.85848655       12       0.01587802      -0.01179751      -0.00531137
In       0.00214356       1.39076842      12.78319439       13       0.01587802       0.01179751       0.00531137
In       2.73348191       4.22568166       4.96235392       14      -0.01587802      -0.01179751       0.00531137
In       5.46910738       4.19899346      10.67932702       15      -0.01587802       0.01179751      -0.00531137
O        4.69888453       4.97245115      12.48793055       16      -0.02064110      -0.00936288       0.01634125
O        1.96325906       3.45222397       3.15375039       17      -0.02064110       0.00936288      -0.01634125
O        0.77236641       2.16422611      10.97459086       18       0.02064110      -0.00936288      -0.01634125
O        3.50799188       0.64399893       4.66709008       19       0.02064110       0.00936288       0.01634125
O        0.77236641       0.64399893       3.15375039       20       0.02064110       0.00936288      -0.01634125
O        3.50799188       2.16422611      12.48793055       21       0.02064110      -0.00936288       0.01634125
O        4.69888453       3.45222397       4.66709008       22      -0.02064110       0.00936288       0.01634125
O        1.96325906       4.97245115      10.97459086       23      -0.02064110      -0.00936288      -0.01634125
O        3.88920733       2.95407397       9.79129146       24      -0.01190346      -0.01245481       0.01980115
O        1.15358186       5.47060115       5.85038947       25      -0.01190346       0.01245481      -0.01980115
O        1.58204361       0.14584893      13.67122994       26       0.01190346      -0.01245481      -0.01980115
O        4.31766908       2.66237611       1.97045099       27       0.01190346       0.01245481       0.01980115
O        1.58204361       2.66237611       5.85038947       28       0.01190346       0.01245481      -0.01980115
O        4.31766908       0.14584893       9.79129146       29       0.01190346      -0.01245481       0.01980115
O        3.88920733       5.47060115       1.97045099       30      -0.01190346       0.01245481       0.01980115
O        1.15358186       2.95407397      13.67122994       31      -0.01190346      -0.01245481      -0.01980115
O        3.51619863       3.70971284      14.80053052       32       0.00674017       0.03412099       0.04339445
O        0.78057316       4.71496229       0.84115042       33       0.00674017      -0.03412099      -0.04339445
O        1.95505231       0.90148780       8.66199089       34      -0.00674017       0.03412099      -0.04339445
O        4.69067778       1.90673724       6.97969005       35      -0.00674017      -0.03412099       0.04339445
O        1.95505231       1.90673724       0.84115042       36      -0.00674017      -0.03412099      -0.04339445
O        4.69067778       0.90148780      14.80053052       37      -0.00674017       0.03412099       0.04339445
O        3.51619863       4.71496229       6.97969005       38       0.00674017      -0.03412099       0.04339445
O        0.78057316       3.70971284       8.66199089       39       0.00674017       0.03412099      -0.04339445
40