40
Lattice="5.911503508670141 3.2063276805292176e-43 0.0 -3.81715655799097e-43 6.356111082582691 0.0 0.0 0.0 17.286648859237346" Properties=species:S:1:pos:R:3:spacegroup_kinds:I:1:forces:R:3 spacegroup="P 1" unit_cell=conventional occupancy="_JSON {\"0\": {\"In\": 1}, \"1\": {\"In\": 1}, \"2\": {\"In\": 1}, \"3\": {\"In\": 1}, \"4\": {\"In\": 1}, \"5\": {\"In\": 1}, \"6\": {\"In\": 1}, \"7\": {\"In\": 1}, \"8\": {\"In\": 1}, \"9\": {\"In\": 1}, \"10\": {\"In\": 1}, \"11\": {\"In\": 1}, \"12\": {\"In\": 1}, \"13\": {\"In\": 1}, \"14\": {\"In\": 1}, \"15\": {\"In\": 1}, \"16\": {\"O\": 1}, \"17\": {\"O\": 1}, \"18\": {\"O\": 1}, \"19\": {\"O\": 1}, \"20\": {\"O\": 1}, \"21\": {\"O\": 1}, \"22\": {\"O\": 1}, \"23\": {\"O\": 1}, \"24\": {\"O\": 1}, \"25\": {\"O\": 1}, \"26\": {\"O\": 1}, \"27\": {\"O\": 1}, \"28\": {\"O\": 1}, \"29\": {\"O\": 1}, \"30\": {\"O\": 1}, \"31\": {\"O\": 1}, \"32\": {\"O\": 1}, \"33\": {\"O\": 1}, \"34\": {\"O\": 1}, \"35\": {\"O\": 1}, \"36\": {\"O\": 1}, \"37\": {\"O\": 1}, \"38\": {\"O\": 1}, \"39\": {\"O\": 1}}" n_minim_iter=8 energy=-45143.87747021721 stress="0.077786877332368 2.2950930545784355e-13 1.7900820127690747e-13 2.2950930545784355e-13 0.07778123802634775 9.898349955972828e-14 1.7900820127690747e-13 9.898349955972828e-14 0.07776785211455667" free_energy=-45143.87747021721 pbc="T T T"
In       2.74342161       5.30169507      10.00926373        0       0.00615904       0.00426441      -0.00103709
In      -0.21233014       4.23247156       7.27738513        1       0.00615904      -0.00426441       0.00103709
In       3.16808190       2.12363952      15.92070956        2      -0.00615904       0.00426441       0.00103709
In       6.12383365       1.05441602       1.36593930        3      -0.00615904      -0.00426441      -0.00103709
In       3.16808190       1.05441602       7.27738513        4      -0.00615904      -0.00426441       0.00103709
In       6.12383365       2.12363952      10.00926373        5      -0.00615904       0.00426441      -0.00103709
In       2.74342161       4.23247156       1.36593930        6       0.00615904      -0.00426441      -0.00103709
In      -0.21233014       5.30169507      15.92070956        7       0.00615904       0.00426441       0.00103709
In       2.75107525       5.03347229      14.08574470        8       0.00047952       0.00315695       0.00389125
In       5.70682701       4.50069433       3.20090416        9       0.00047952      -0.00315695      -0.00389125
In       3.16042826       1.85541675      11.84422859       10      -0.00047952       0.00315695      -0.00389125
In       0.20467650       1.32263879       5.44242027       11      -0.00047952      -0.00315695       0.00389125
In       3.16042826       1.32263879       3.20090416       12      -0.00047952      -0.00315695      -0.00389125
In       0.20467650       1.85541675      14.08574470       13      -0.00047952       0.00315695       0.00389125
In       2.75107525       4.50069433       5.44242027       14       0.00047952      -0.00315695       0.00389125
In       5.70682701       5.03347229      11.84422859       15       0.00047952       0.00315695      -0.00389125
O        4.91784823       5.73064781      13.83942163       16       0.00681846       0.00028034      -0.00397754
O        1.96209648       3.80351881       3.44722723       17       0.00681846      -0.00028034       0.00397754
O        0.99365528       2.55259227      12.09055165       18      -0.00681846       0.00028034       0.00397754
O        3.94940703       0.62546327       5.19609720       19      -0.00681846      -0.00028034      -0.00397754
O        0.99365528       0.62546327       3.44722723       20      -0.00681846      -0.00028034       0.00397754
O        3.94940703       2.55259227      13.83942163       21      -0.00681846       0.00028034      -0.00397754
O        4.91784823       3.80351881       5.19609720       22       0.00681846      -0.00028034      -0.00397754
O        1.96209648       5.73064781      12.09055165       23       0.00681846       0.00028034       0.00397754
O        4.14851407       3.70534833      10.94229102       24       0.00020486      -0.00688361       0.00075551
O        1.19276231       5.82881829       6.34435784       25       0.00020486       0.00688361      -0.00075551
O        1.76298944       0.52729279      14.98768227       26      -0.00020486      -0.00688361      -0.00075551
O        4.71874120       2.65076275       2.29896659       27      -0.00020486       0.00688361       0.00075551
O        1.76298944       2.65076275       6.34435784       28      -0.00020486       0.00688361      -0.00075551
O        4.71874120       0.52729279      10.94229102       29      -0.00020486      -0.00688361       0.00075551
O        4.14851407       5.82881829       2.29896659       30       0.00020486       0.00688361       0.00075551
O        1.19276231       3.70534833      14.98768227       31       0.00020486      -0.00688361      -0.00075551
O        3.73729874       4.23908247      16.45665839       32       0.00822029      -0.00053827      -0.00237344
O        0.78154698       5.29508415       0.82999047       33       0.00822029       0.00053827       0.00237344
O        2.17420477       1.06102693       9.47331490       34      -0.00822029      -0.00053827       0.00237344
O        5.12995652       2.11702861       7.81333396       35      -0.00822029       0.00053827      -0.00237344
O        2.17420477       2.11702861       0.82999047       36      -0.00822029       0.00053827       0.00237344
O        5.12995652       1.06102693      16.45665839       37      -0.00822029      -0.00053827      -0.00237344
O        3.73729874       5.29508415       7.81333396       38       0.00822029       0.00053827      -0.00237344
O        0.78154698       4.23908247       9.47331490       39       0.00822029      -0.00053827       0.00237344
