40
Lattice="5.786374991741917 5.493443593786617e-43 0.0 -2.0732867550790865e-42 5.978701781595263 0.0 0.0 0.0 17.27327158883525" Properties=species:S:1:pos:R:3:spacegroup_kinds:I:1:forces:R:3 spacegroup="P 1" unit_cell=conventional occupancy="_JSON {\"0\": {\"In\": 1}, \"1\": {\"In\": 1}, \"2\": {\"In\": 1}, \"3\": {\"In\": 1}, \"4\": {\"In\": 1}, \"5\": {\"In\": 1}, \"6\": {\"In\": 1}, \"7\": {\"In\": 1}, \"8\": {\"In\": 1}, \"9\": {\"In\": 1}, \"10\": {\"In\": 1}, \"11\": {\"In\": 1}, \"12\": {\"In\": 1}, \"13\": {\"In\": 1}, \"14\": {\"In\": 1}, \"15\": {\"In\": 1}, \"16\": {\"O\": 1}, \"17\": {\"O\": 1}, \"18\": {\"O\": 1}, \"19\": {\"O\": 1}, \"20\": {\"O\": 1}, \"21\": {\"O\": 1}, \"22\": {\"O\": 1}, \"23\": {\"O\": 1}, \"24\": {\"O\": 1}, \"25\": {\"O\": 1}, \"26\": {\"O\": 1}, \"27\": {\"O\": 1}, \"28\": {\"O\": 1}, \"29\": {\"O\": 1}, \"30\": {\"O\": 1}, \"31\": {\"O\": 1}, \"32\": {\"O\": 1}, \"33\": {\"O\": 1}, \"34\": {\"O\": 1}, \"35\": {\"O\": 1}, \"36\": {\"O\": 1}, \"37\": {\"O\": 1}, \"38\": {\"O\": 1}, \"39\": {\"O\": 1}}" n_minim_iter=13 energy=-45147.27189018788 stress="0.05802670728827558 1.1724254704978688e-13 -8.53282038160638e-14 1.1724254704978688e-13 0.05812513839123233 1.9432279288837469e-13 -8.53282038160638e-14 1.9432279288837469e-13 0.05828977961166854" free_energy=-45147.27189018788 pbc="T T T"
In       2.79283316       4.96089189      10.00199706        0       0.00177410      -0.00177207      -0.00261375
In      -0.10035434       4.00716078       7.27127453        1       0.00177410       0.00177207       0.00261375
In       2.99354184       1.97154100      15.90791033        2      -0.00177410      -0.00177207       0.00261375
In       5.88672933       1.01780989       1.36536126        3      -0.00177410       0.00177207      -0.00261375
In       2.99354184       1.01780989       7.27127453        4      -0.00177410       0.00177207       0.00261375
In       5.88672933       1.97154100      10.00199706        5      -0.00177410      -0.00177207      -0.00261375
In       2.79283316       4.00716078       1.36536126        6       0.00177410       0.00177207      -0.00261375
In      -0.10035434       4.96089189      15.90791033        7       0.00177410      -0.00177207       0.00261375
In       2.79012642       4.63357127      14.04502004        8      -0.00125059       0.00935866      -0.00107796
In       5.68331392       4.33448140       3.22825155        9      -0.00125059      -0.00935866       0.00107796
In       2.99624857       1.64422038      11.86488734       10       0.00125059       0.00935866       0.00107796
In       0.10306107       1.34513051       5.40838425       11       0.00125059      -0.00935866      -0.00107796
In       2.99624857       1.34513051       3.22825155       12       0.00125059      -0.00935866       0.00107796
In       0.10306107       1.64422038      14.04502004       13       0.00125059       0.00935866      -0.00107796
In       2.79012642       4.33448140       5.40838425       14      -0.00125059      -0.00935866      -0.00107796
In       5.68331392       4.63357127      11.86488734       15      -0.00125059       0.00935866       0.00107796
O        4.90109733       5.41045337      13.79143099       16       0.00614141       0.00125000      -0.00283835
O        2.00790983       3.55759930       3.48184059       17       0.00614141      -0.00125000       0.00283835
O        0.88527766       2.42110248      12.11847639       18      -0.00614141       0.00125000       0.00283835
O        3.77846516       0.56824841       5.15479520       19      -0.00614141      -0.00125000      -0.00283835
O        0.88527766       0.56824841       3.48184059       20      -0.00614141      -0.00125000       0.00283835
O        3.77846516       2.42110248      13.79143099       21      -0.00614141       0.00125000      -0.00283835
O        4.90109733       3.55759930       5.15479520       22       0.00614141      -0.00125000      -0.00283835
O        2.00790983       5.41045337      12.11847639       23       0.00614141       0.00125000       0.00283835
O        4.06145037       3.34248288      10.90574379       24       0.00082554       0.00106858       0.00664300
O        1.16826288       5.62556980       6.36752780       25       0.00082554      -0.00106858      -0.00664300
O        1.72492462       0.35313198      15.00416359       26      -0.00082554       0.00106858      -0.00664300
O        4.61811211       2.63621891       2.26910800       27      -0.00082554      -0.00106858       0.00664300
O        1.72492462       2.63621891       6.36752780       28      -0.00082554      -0.00106858      -0.00664300
O        4.61811211       0.35313198      10.90574379       29      -0.00082554       0.00106858       0.00664300
O        4.06145037       5.62556980       2.26910800       30       0.00082554      -0.00106858       0.00664300
O        1.16826288       3.34248288      15.00416359       31       0.00082554       0.00106858      -0.00664300
O        3.70245209       4.07351338      16.35802523       32       0.00133679      -0.00512323       0.00312307
O        0.80926459       4.89453929       0.91524636       33       0.00133679       0.00512323      -0.00312307
O        2.08392290       1.08416249       9.55188216       34      -0.00133679      -0.00512323      -0.00312307
O        4.97711040       1.90518840       7.72138943       35      -0.00133679       0.00512323       0.00312307
O        2.08392290       1.90518840       0.91524636       36      -0.00133679       0.00512323      -0.00312307
O        4.97711040       1.08416249      16.35802523       37      -0.00133679      -0.00512323       0.00312307
O        3.70245209       4.89453929       7.72138943       38       0.00133679       0.00512323       0.00312307
O        0.80926459       4.07351338       9.55188216       39       0.00133679      -0.00512323      -0.00312307
