40
Lattice="5.745339243179232 1.311158404757095e-42 0.0 -5.77117339538668e-43 5.944390664508487 0.0 0.0 0.0 17.116687788351452" Properties=species:S:1:pos:R:3:spacegroup_kinds:I:1:forces:R:3 spacegroup="P 1" unit_cell=conventional occupancy="_JSON {\"0\": {\"In\": 1}, \"1\": {\"In\": 1}, \"2\": {\"In\": 1}, \"3\": {\"In\": 1}, \"4\": {\"In\": 1}, \"5\": {\"In\": 1}, \"6\": {\"In\": 1}, \"7\": {\"In\": 1}, \"8\": {\"In\": 1}, \"9\": {\"In\": 1}, \"10\": {\"In\": 1}, \"11\": {\"In\": 1}, \"12\": {\"In\": 1}, \"13\": {\"In\": 1}, \"14\": {\"In\": 1}, \"15\": {\"In\": 1}, \"16\": {\"O\": 1}, \"17\": {\"O\": 1}, \"18\": {\"O\": 1}, \"19\": {\"O\": 1}, \"20\": {\"O\": 1}, \"21\": {\"O\": 1}, \"22\": {\"O\": 1}, \"23\": {\"O\": 1}, \"24\": {\"O\": 1}, \"25\": {\"O\": 1}, \"26\": {\"O\": 1}, \"27\": {\"O\": 1}, \"28\": {\"O\": 1}, \"29\": {\"O\": 1}, \"30\": {\"O\": 1}, \"31\": {\"O\": 1}, \"32\": {\"O\": 1}, \"33\": {\"O\": 1}, \"34\": {\"O\": 1}, \"35\": {\"O\": 1}, \"36\": {\"O\": 1}, \"37\": {\"O\": 1}, \"38\": {\"O\": 1}, \"39\": {\"O\": 1}}" n_minim_iter=24 energy=-45147.96569233542 stress="0.04899616156669936 -2.016489128610661e-13 8.931377550288907e-14 -2.016489128610661e-13 0.04899662920818699 1.848872202882206e-13 8.931377550288907e-14 1.848872202882206e-13 0.04899270859195695" free_energy=-45147.96569233542 pbc="T T T"
In       2.78946148       4.91486307       9.89642611        0       0.00078011       0.00688554      -0.00146683
In      -0.08320814       4.00172293       7.22026168        1       0.00078011      -0.00688554       0.00146683
In       2.95587777       1.94266774      15.77860557        2      -0.00078011       0.00688554       0.00146683
In       5.82854739       1.02952759       1.33808221        3      -0.00078011      -0.00688554      -0.00146683
In       2.95587777       1.02952759       7.22026168        4      -0.00078011      -0.00688554       0.00146683
In       5.82854739       1.94266774       9.89642611        5      -0.00078011       0.00688554      -0.00146683
In       2.78946148       4.00172293       1.33808221        6       0.00078011      -0.00688554      -0.00146683
In      -0.08320814       4.91486307      15.77860557        7       0.00078011       0.00688554       0.00146683
In       2.78484129       4.58958165      13.92627343        8       0.00333759      -0.00472686      -0.00257341
In       5.65751091       4.32700434       3.19041436        9       0.00333759       0.00472686       0.00257341
In       2.96049795       1.61738632      11.74875826       10      -0.00333759      -0.00472686       0.00257341
In       0.08782833       1.35480901       5.36792953       11      -0.00333759       0.00472686      -0.00257341
In       2.96049795       1.35480901       3.19041436       12      -0.00333759       0.00472686       0.00257341
In       0.08782833       1.61738632      13.92627343       13      -0.00333759      -0.00472686      -0.00257341
In       2.78484129       4.32700434       5.36792953       14       0.00333759       0.00472686      -0.00257341
In       5.65751091       4.58958165      11.74875826       15       0.00333759      -0.00472686       0.00257341
O        4.87512311       5.37276614      13.66202146       16       0.00706891       0.00529662       0.00378044
O        2.00245349       3.54381985       3.45466633       17       0.00706891      -0.00529662      -0.00378044
O        0.87021613       2.40057081      12.01301022       18      -0.00706891       0.00529662      -0.00378044
O        3.74288575       0.57162452       5.10367757       19      -0.00706891      -0.00529662       0.00378044
O        0.87021613       0.57162452       3.45466633       20      -0.00706891      -0.00529662      -0.00378044
O        3.74288575       2.40057081      13.66202146       21      -0.00706891       0.00529662       0.00378044
O        4.87512311       3.54381985       5.10367757       22       0.00706891      -0.00529662       0.00378044
O        2.00245349       5.37276614      12.01301022       23       0.00706891       0.00529662      -0.00378044
O        4.03041337       3.30491054      10.79806812       24       0.00538788      -0.00074231      -0.00192930
O        1.15774375       5.61167546       6.31861966       25       0.00538788       0.00074231       0.00192930
O        1.71492587       0.33271520      14.87696356       26      -0.00538788      -0.00074231       0.00192930
O        4.58759549       2.63948013       2.23972423       27      -0.00538788       0.00074231      -0.00192930
O        1.71492587       2.63948013       6.31861966       28      -0.00538788       0.00074231       0.00192930
O        4.58759549       0.33271520      10.79806812       29      -0.00538788      -0.00074231      -0.00192930
O        4.03041337       5.61167546       2.23972423       30       0.00538788       0.00074231      -0.00192930
O        1.15774375       3.30491054      14.87696356       31       0.00538788      -0.00074231       0.00192930
O        3.67745830       4.03805535      16.22783154       32      -0.00503042      -0.00500281      -0.00352298
O        0.80478867       4.87853065       0.88885625       33      -0.00503042       0.00500281       0.00352298
O        2.06788095       1.06586002       9.44720014       34       0.00503042      -0.00500281       0.00352298
O        4.94055057       1.90633531       7.66948764       35       0.00503042       0.00500281      -0.00352298
O        2.06788095       1.90633531       0.88885625       36       0.00503042       0.00500281       0.00352298
O        4.94055057       1.06586002      16.22783154       37       0.00503042      -0.00500281      -0.00352298
O        3.67745830       4.87853065       7.66948764       38      -0.00503042       0.00500281      -0.00352298
O        0.80478867       4.03805535       9.44720014       39      -0.00503042      -0.00500281       0.00352298
