40
Lattice="5.828005020133741 5.532966129589185e-43 0.0 -5.716870148182844e-43 6.021715503531582 0.0 0.0 0.0 17.39754400251206" Properties=species:S:1:pos:R:3:spacegroup_kinds:I:1:forces:R:3 spacegroup="P 1" unit_cell=conventional occupancy="_JSON {\"0\": {\"In\": 1}, \"1\": {\"In\": 1}, \"2\": {\"In\": 1}, \"3\": {\"In\": 1}, \"4\": {\"In\": 1}, \"5\": {\"In\": 1}, \"6\": {\"In\": 1}, \"7\": {\"In\": 1}, \"8\": {\"In\": 1}, \"9\": {\"In\": 1}, \"10\": {\"In\": 1}, \"11\": {\"In\": 1}, \"12\": {\"In\": 1}, \"13\": {\"In\": 1}, \"14\": {\"In\": 1}, \"15\": {\"In\": 1}, \"16\": {\"O\": 1}, \"17\": {\"O\": 1}, \"18\": {\"O\": 1}, \"19\": {\"O\": 1}, \"20\": {\"O\": 1}, \"21\": {\"O\": 1}, \"22\": {\"O\": 1}, \"23\": {\"O\": 1}, \"24\": {\"O\": 1}, \"25\": {\"O\": 1}, \"26\": {\"O\": 1}, \"27\": {\"O\": 1}, \"28\": {\"O\": 1}, \"29\": {\"O\": 1}, \"30\": {\"O\": 1}, \"31\": {\"O\": 1}, \"32\": {\"O\": 1}, \"33\": {\"O\": 1}, \"34\": {\"O\": 1}, \"35\": {\"O\": 1}, \"36\": {\"O\": 1}, \"37\": {\"O\": 1}, \"38\": {\"O\": 1}, \"39\": {\"O\": 1}}" n_minim_iter=1 energy=-45146.4369464841 stress="0.07106056237901676 9.058839493303877e-14 3.303722789949729e-14 9.058839493303877e-14 0.06912653043373002 -5.41350417336236e-14 3.303722789949729e-14 -5.41350417336236e-14 0.07043162838936047" free_energy=-45146.4369464841 pbc="T T T"
In       2.81292617       4.99658298      10.07395635        0      -0.05872333       0.04389364       0.00126445
In      -0.10107634       4.03599027       7.32358766        1      -0.05872333      -0.04389364      -0.00126445
In       3.01507885       1.98572523      16.02235966        2       0.05872333       0.04389364      -0.00126445
In       5.92908136       1.02513252       1.37518434        3       0.05872333      -0.04389364       0.00126445
In       3.01507885       1.02513252       7.32358766        4       0.05872333      -0.04389364      -0.00126445
In       5.92908136       1.98572523      10.07395635        5       0.05872333       0.04389364       0.00126445
In       2.81292617       4.03599027       1.37518434        6      -0.05872333      -0.04389364       0.00126445
In      -0.10107634       4.99658298      16.02235966        7      -0.05872333       0.04389364      -0.00126445
In       2.81019996       4.66690747      14.14606683        8      -0.06877990       0.01701251       0.01586050
In       5.72420247       4.36566579       3.25147718        9      -0.06877990      -0.01701251      -0.01586050
In       3.01780506       1.65604971      11.95024918       10       0.06877990       0.01701251      -0.01586050
In       0.10380255       1.35480804       5.44729482       11       0.06877990      -0.01701251       0.01586050
In       3.01780506       1.35480804       3.25147718       12       0.06877990      -0.01701251      -0.01586050
In       0.10380255       1.65604971      14.14606683       13       0.06877990       0.01701251       0.01586050
In       2.81019996       4.36566579       5.44729482       14      -0.06877990      -0.01701251       0.01586050
In       5.72420247       4.66690747      11.95024918       15      -0.06877990       0.01701251      -0.01586050
O        4.93635823       5.44937884      13.89065333       16       0.01512809      -0.03120378       0.04099313
O        2.02235572       3.58319442       3.50689067       17       0.01512809       0.03120378      -0.04099313
O        0.89164679       2.43852108      12.20566267       18      -0.01512809      -0.03120378      -0.04099313
O        3.80564930       0.57233667       5.19188133       19      -0.01512809       0.03120378       0.04099313
O        0.89164679       0.57233667       3.50689067       20      -0.01512809       0.03120378      -0.04099313
O        3.80564930       2.43852108      13.89065333       21      -0.01512809      -0.03120378       0.04099313
O        4.93635823       3.58319442       5.19188133       22       0.01512809       0.03120378       0.04099313
O        2.02235572       5.44937884      12.20566267       23       0.01512809      -0.03120378      -0.04099313
O        4.09067045       3.36653034      10.98420508       24       0.02882253       0.02970827       0.04006218
O        1.17666794       5.66604291       6.41333893       25       0.02882253      -0.02970827      -0.04006218
O        1.73733457       0.35567259      15.11211093       26      -0.02882253       0.02970827      -0.04006218
O        4.65133708       2.65518516       2.28543308       27      -0.02882253      -0.02970827       0.04006218
O        1.73733457       2.65518516       6.41333893       28      -0.02882253      -0.02970827      -0.04006218
O        4.65133708       0.35567259      10.98420508       29      -0.02882253       0.02970827       0.04006218
O        4.09067045       5.66604291       2.28543308       30       0.02882253      -0.02970827       0.04006218
O        1.17666794       3.36653034      15.11211093       31       0.02882253       0.02970827      -0.04006218
O        3.72908935       4.10282024      16.47571291       32       0.00193635      -0.04387489      -0.01465676
O        0.81508684       4.92975301       0.92183109       33       0.00193635       0.04387489       0.01465676
O        2.09891567       1.09196249       9.62060309       34      -0.00193635      -0.04387489       0.01465676
O        5.01291818       1.91889526       7.77694091       35      -0.00193635       0.04387489      -0.01465676
O        2.09891567       1.91889526       0.92183109       36      -0.00193635       0.04387489       0.01465676
O        5.01291818       1.09196249      16.47571291       37      -0.00193635      -0.04387489      -0.01465676
O        3.72908935       4.92975301       7.77694091       38       0.00193635       0.04387489      -0.01465676
O        0.81508684       4.10282024       9.62060309       39       0.00193635      -0.04387489       0.01465676
40
Lattice="5.82030391620249 5.452933685876945e-43 0.0 -5.560757922692033e-43 6.031786880589017 0.0 0.0 0.0 17.391476058745603" Properties=species:S:1:pos:R:3:spacegroup_kinds:I:1:forces:R:3 spacegroup="P 1" unit_cell=conventional occupancy="_JSON {\"0\": {\"In\": 1}, \"1\": {\"In\": 1}, \"2\": {\"In\": 1}, \"3\": {\"In\": 1}, \"4\": {\"In\": 1}, \"5\": {\"In\": 1}, \"6\": {\"In\": 1}, \"7\": {\"In\": 1}, \"8\": {\"In\": 1}, \"9\": {\"In\": 1}, \"10\": {\"In\": 1}, \"11\": {\"In\": 1}, \"12\": {\"In\": 1}, \"13\": {\"In\": 1}, \"14\": {\"In\": 1}, \"15\": {\"In\": 1}, \"16\": {\"O\": 1}, \"17\": {\"O\": 1}, \"18\": {\"O\": 1}, \"19\": {\"O\": 1}, \"20\": {\"O\": 1}, \"21\": {\"O\": 1}, \"22\": {\"O\": 1}, \"23\": {\"O\": 1}, \"24\": {\"O\": 1}, \"25\": {\"O\": 1}, \"26\": {\"O\": 1}, \"27\": {\"O\": 1}, \"28\": {\"O\": 1}, \"29\": {\"O\": 1}, \"30\": {\"O\": 1}, \"31\": {\"O\": 1}, \"32\": {\"O\": 1}, \"33\": {\"O\": 1}, \"34\": {\"O\": 1}, \"35\": {\"O\": 1}, \"36\": {\"O\": 1}, \"37\": {\"O\": 1}, \"38\": {\"O\": 1}, \"39\": {\"O\": 1}}" n_minim_iter=2 energy=-45146.4380376421 stress="0.06967485445670354 -3.1436149018429013e-13 -1.445876499250645e-15 -3.1436149018429013e-13 0.07014844614114989 2.571031715569667e-13 -1.445876499250645e-15 2.571031715569667e-13 0.06999488566077369" free_energy=-45146.4380376421 pbc="T T T"
In       2.80906052       5.00505127      10.07044594        0      -0.05331043       0.05020877      -0.00112189
In      -0.10109144       4.04262905       7.32103012        1      -0.05331043      -0.05020877       0.00112189
In       3.01124340       1.98915783      16.01676815        2       0.05331043       0.05020877       0.00112189
In       5.92139536       1.02673561       1.37470791        3       0.05331043      -0.05020877      -0.00112189
In       3.01124340       1.02673561       7.32103012        4       0.05331043      -0.05020877       0.00112189
In       5.92139536       1.98915783      10.07044594        5       0.05331043       0.05020877      -0.00112189
In       2.80906052       4.04262905       1.37470791        6      -0.05331043      -0.05020877      -0.00112189
In      -0.10109144       5.00505127      16.01676815        7      -0.05331043       0.05020877       0.00112189
In       2.80631245       4.67475611      14.14117313        8      -0.07263057       0.01252933       0.01854576
In       5.71646441       4.37292421       3.25030293        9      -0.07263057      -0.01252933      -0.01854576
In       3.01399146       1.65886267      11.94604096       10       0.07263057       0.01252933      -0.01854576
In       0.10383951       1.35703077       5.44543510       11       0.07263057      -0.01252933       0.01854576
In       3.01399146       1.35703077       3.25030293       12       0.07263057      -0.01252933      -0.01854576
In       0.10383951       1.65886267      14.14117313       13       0.07263057       0.01252933       0.01854576
In       2.80631245       4.37292421       5.44543510       14      -0.07263057      -0.01252933       0.01854576
In       5.71646441       4.67475611      11.94604096       15      -0.07263057       0.01252933      -0.01854576
O        4.92987365       5.45841374      13.88591241       16       0.00923307      -0.03143486       0.03814386
O        2.01972169       3.58926658       3.50556365       17       0.00923307       0.03143486      -0.03814386
O        0.89043027       2.44252030      12.20130168       18      -0.00923307      -0.03143486      -0.03814386
O        3.80058223       0.57337314       5.19017438       19      -0.00923307       0.03143486       0.03814386
O        0.89043027       0.57337314       3.50556365       20      -0.00923307       0.03143486      -0.03814386
O        3.80058223       2.44252030      13.88591241       21      -0.00923307      -0.03143486       0.03814386
O        4.92987365       3.58926658       5.19017438       22       0.00923307       0.03143486       0.03814386
O        2.01972169       5.45841374      12.20130168       23       0.00923307      -0.03143486      -0.03814386
O        4.08533802       3.37223633      10.98047551       24       0.02327179       0.02987156       0.04269322
O        1.17518606       5.67544399       6.41100055       25       0.02327179      -0.02987156      -0.04269322
O        1.73496590       0.35634289      15.10673858       26      -0.02327179       0.02987156      -0.04269322
O        4.64511786       2.65955055       2.28473748       27      -0.02327179      -0.02987156       0.04269322
O        1.73496590       2.65955055       6.41100055       28      -0.02327179      -0.02987156      -0.04269322
O        4.64511786       0.35634289      10.98047551       29      -0.02327179       0.02987156       0.04269322
O        4.08533802       5.67544399       2.28473748       30       0.02327179      -0.02987156       0.04269322
O        1.17518606       3.37223633      15.10673858       31       0.02327179       0.02987156      -0.04269322
O        3.72416665       4.10957084      16.46992934       32       0.00136993      -0.05247600      -0.00986036
O        0.81401469       4.93810948       0.92154672       33       0.00136993       0.05247600       0.00986036
O        2.09613727       1.09367740       9.61728475       34      -0.00136993      -0.05247600       0.00986036
O        5.00628923       1.92221604       7.77419131       35      -0.00136993       0.05247600      -0.00986036
O        2.09613727       1.92221604       0.92154672       36      -0.00136993       0.05247600       0.00986036
O        5.00628923       1.09367740      16.46992934       37      -0.00136993      -0.05247600      -0.00986036
O        3.72416665       4.93810948       7.77419131       38       0.00136993       0.05247600      -0.00986036
O        0.81401469       4.10957084       9.61728475       39       0.00136993      -0.05247600       0.00986036
40
Lattice="5.829492454730745 3.6742531228522246e-43 0.0 -4.951776552693404e-43 6.03882611308021 0.0 0.0 0.0 17.343822702554277" Properties=species:S:1:pos:R:3:spacegroup_kinds:I:1:forces:R:3 spacegroup="P 1" unit_cell=conventional occupancy="_JSON {\"0\": {\"In\": 1}, \"1\": {\"In\": 1}, \"2\": {\"In\": 1}, \"3\": {\"In\": 1}, \"4\": {\"In\": 1}, \"5\": {\"In\": 1}, \"6\": {\"In\": 1}, \"7\": {\"In\": 1}, \"8\": {\"In\": 1}, \"9\": {\"In\": 1}, \"10\": {\"In\": 1}, \"11\": {\"In\": 1}, \"12\": {\"In\": 1}, \"13\": {\"In\": 1}, \"14\": {\"In\": 1}, \"15\": {\"In\": 1}, \"16\": {\"O\": 1}, \"17\": {\"O\": 1}, \"18\": {\"O\": 1}, \"19\": {\"O\": 1}, \"20\": {\"O\": 1}, \"21\": {\"O\": 1}, \"22\": {\"O\": 1}, \"23\": {\"O\": 1}, \"24\": {\"O\": 1}, \"25\": {\"O\": 1}, \"26\": {\"O\": 1}, \"27\": {\"O\": 1}, \"28\": {\"O\": 1}, \"29\": {\"O\": 1}, \"30\": {\"O\": 1}, \"31\": {\"O\": 1}, \"32\": {\"O\": 1}, \"33\": {\"O\": 1}, \"34\": {\"O\": 1}, \"35\": {\"O\": 1}, \"36\": {\"O\": 1}, \"37\": {\"O\": 1}, \"38\": {\"O\": 1}, \"39\": {\"O\": 1}}" n_minim_iter=3 energy=-45146.44215332753 stress="0.07060620952009872 7.441745322960436e-14 -1.0225764475156815e-13 7.441745322960436e-14 0.06999159657526553 -7.722751597880825e-14 -1.0225764475156815e-13 -7.722751597880825e-14 0.06706910016007708" free_energy=-45146.44215332753 pbc="T T T"
In       2.81072148       5.01340580      10.04281863        0      -0.05123578       0.01491134       0.01405044
In      -0.10402475       4.04483337       7.30100407        1      -0.05123578      -0.01491134      -0.01405044
In       3.01877097       1.99399274      15.97291542        2       0.05123578       0.01491134      -0.01405044
In       5.93351720       1.02542031       1.37090728        3       0.05123578      -0.01491134       0.01405044
In       3.01877097       1.02542031       7.30100407        4       0.05123578      -0.01491134      -0.01405044
In       5.93351720       1.99399274      10.04281863        5       0.05123578       0.01491134       0.01405044
In       2.81072148       4.04483337       1.37090728        6      -0.05123578      -0.01491134       0.01405044
In      -0.10402475       5.01340580      15.97291542        7      -0.05123578       0.01491134      -0.01405044
In       2.80707354       4.68089825      14.10334369        8      -0.05464806       0.01327108       0.00115731
In       5.72181977       4.37734092       3.24047901        9      -0.05464806      -0.01327108      -0.00115731
In       3.02241892       1.66148519      11.91239036       10       0.05464806       0.01327108      -0.00115731
In       0.10767269       1.35792787       5.43143234       11       0.05464806      -0.01327108       0.00115731
In       3.02241892       1.35792787       3.24047901       12       0.05464806      -0.01327108      -0.00115731
In       0.10767269       1.66148519      14.10334369       13       0.05464806       0.01327108       0.00115731
In       2.80707354       4.37734092       5.43143234       14      -0.05464806      -0.01327108       0.00115731
In       5.72181977       4.68089825      11.91239036       15      -0.05464806       0.01327108      -0.00115731
O        4.93818529       5.46317370      13.84983397       16      -0.02006228      -0.03075059       0.03181768
O        2.02343906       3.59506547       3.49398873       17      -0.02006228       0.03075059      -0.03181768
O        0.89130717       2.44376064      12.16590008       18       0.02006228      -0.03075059      -0.03181768
O        3.80605340       0.57565241       5.17792262       19       0.02006228       0.03075059       0.03181768
O        0.89130717       0.57565241       3.49398873       20       0.02006228       0.03075059      -0.03181768
O        3.80605340       2.44376064      13.84983397       21       0.02006228      -0.03075059       0.03181768
O        4.93818529       3.59506547       5.17792262       22      -0.02006228       0.03075059       0.03181768
O        2.02343906       5.46317370      12.16590008       23      -0.02006228      -0.03075059      -0.03181768
O        4.09302952       3.37770242      10.95253631       24       0.01086340       0.03957385       0.01338548
O        1.17828329       5.68053675       6.39128639       25       0.01086340      -0.03957385      -0.01338548
O        1.73646293       0.35828936      15.06319774       26      -0.01086340       0.03957385      -0.01338548
O        4.65120916       2.66112369       2.28062496       27      -0.01086340      -0.03957385       0.01338548
O        1.73646293       2.66112369       6.39128639       28      -0.01086340      -0.03957385      -0.01338548
O        4.65120916       0.35828936      10.95253631       29      -0.01086340       0.03957385       0.01338548
O        4.09302952       5.68053675       2.28062496       30       0.01086340      -0.03957385       0.01338548
O        1.17828329       3.37770242      15.06319774       31       0.01086340       0.03957385      -0.01338548
O        3.73012146       4.11175939      16.42425240       32       0.00284706      -0.03639244       0.00403166
O        0.81537523       4.94647978       0.91957031       33       0.00284706       0.03639244      -0.00403166
O        2.09937100       1.09234633       9.59148166       34      -0.00284706      -0.03639244      -0.00403166
O        5.01411723       1.92706673       7.75234104       35      -0.00284706       0.03639244       0.00403166
O        2.09937100       1.92706673       0.91957031       36      -0.00284706       0.03639244      -0.00403166
O        5.01411723       1.09234633      16.42425240       37      -0.00284706      -0.03639244       0.00403166
O        3.73012146       4.94647978       7.75234104       38       0.00284706       0.03639244       0.00403166
O        0.81537523       4.11175939       9.59148166       39       0.00284706      -0.03639244      -0.00403166
40
Lattice="5.820741601896519 3.742696058778628e-43 0.0 -4.832393800184894e-43 6.034894692333894 0.0 0.0 0.0 17.38121284310676" Properties=species:S:1:pos:R:3:spacegroup_kinds:I:1:forces:R:3 spacegroup="P 1" unit_cell=conventional occupancy="_JSON {\"0\": {\"In\": 1}, \"1\": {\"In\": 1}, \"2\": {\"In\": 1}, \"3\": {\"In\": 1}, \"4\": {\"In\": 1}, \"5\": {\"In\": 1}, \"6\": {\"In\": 1}, \"7\": {\"In\": 1}, \"8\": {\"In\": 1}, \"9\": {\"In\": 1}, \"10\": {\"In\": 1}, \"11\": {\"In\": 1}, \"12\": {\"In\": 1}, \"13\": {\"In\": 1}, \"14\": {\"In\": 1}, \"15\": {\"In\": 1}, \"16\": {\"O\": 1}, \"17\": {\"O\": 1}, \"18\": {\"O\": 1}, \"19\": {\"O\": 1}, \"20\": {\"O\": 1}, \"21\": {\"O\": 1}, \"22\": {\"O\": 1}, \"23\": {\"O\": 1}, \"24\": {\"O\": 1}, \"25\": {\"O\": 1}, \"26\": {\"O\": 1}, \"27\": {\"O\": 1}, \"28\": {\"O\": 1}, \"29\": {\"O\": 1}, \"30\": {\"O\": 1}, \"31\": {\"O\": 1}, \"32\": {\"O\": 1}, \"33\": {\"O\": 1}, \"34\": {\"O\": 1}, \"35\": {\"O\": 1}, \"36\": {\"O\": 1}, \"37\": {\"O\": 1}, \"38\": {\"O\": 1}, \"39\": {\"O\": 1}}" n_minim_iter=4 energy=-45146.4496965948 stress="0.06815780785314138 -2.3405165608452454e-13 2.9444475279256636e-13 -2.3405165608452454e-13 0.06785282301210493 -1.619185295255905e-14 2.9444475279256636e-13 -1.619185295255905e-14 0.06799044133265814" free_energy=-45146.4496965948 pbc="T T T"
In       2.80125295       5.01473746      10.06448253        0      -0.02379368      -0.03242335       0.01570988
In      -0.10911785       4.03760458       7.31673032        1      -0.02379368       0.03242335      -0.01570988
In       3.01948865       1.99729011      16.00733674        2       0.02379368      -0.03242335      -0.01570988
In       5.92985945       1.02015723       1.37387611        3       0.02379368       0.03242335       0.01570988
In       3.01948865       1.02015723       7.31673032        4       0.02379368       0.03242335      -0.01570988
In       5.92985945       1.99729011      10.06448253        5       0.02379368      -0.03242335       0.01570988
In       2.80125295       4.03760458       1.37387611        6      -0.02379368       0.03242335       0.01570988
In      -0.10911785       5.01473746      16.00733674        7      -0.02379368      -0.03242335      -0.01570988
In       2.79598287       4.67915397      14.13540781        8      -0.01013971       0.01981372      -0.04442441
In       5.70635367       4.37318807       3.24580503        9      -0.01013971      -0.01981372       0.04442441
In       3.02475873       1.66170663      11.93641145       10       0.01013971       0.01981372       0.04442441
In       0.11438793       1.35574072       5.44480139       11       0.01013971      -0.01981372      -0.04442441
In       3.02475873       1.35574072       3.24580503       12       0.01013971      -0.01981372       0.04442441
In       0.11438793       1.66170663      14.13540781       13       0.01013971       0.01981372      -0.04442441
In       2.79598287       4.37318807       5.44480139       14      -0.01013971      -0.01981372      -0.04442441
In       5.70635367       4.67915397      11.93641145       15      -0.01013971       0.01981372       0.04442441
O        4.93161192       5.45655999      13.88340731       16      -0.04814608      -0.02393652      -0.00260725
O        2.02124112       3.59578205       3.49780554       17      -0.04814608       0.02393652       0.00260725
O        0.88912968       2.43911265      12.18841196       18       0.04814608      -0.02393652       0.00260725
O        3.79950048       0.57833470       5.19280089       19       0.04814608       0.02393652      -0.00260725
O        0.88912968       0.57833470       3.49780554       20       0.04814608       0.02393652       0.00260725
O        3.79950048       2.43911265      13.88340731       21       0.04814608      -0.02393652      -0.00260725
O        4.93161192       3.59578205       5.19280089       22      -0.04814608       0.02393652      -0.00260725
O        2.02124112       5.45655999      12.18841196       23      -0.04814608      -0.02393652       0.00260725
O        4.08917012       3.37846527      10.98008761       24      -0.02121114       0.03968567      -0.01432664
O        1.17879932       5.67387677       6.40112524       25      -0.02121114      -0.03968567       0.01432664
O        1.73157148       0.36101792      15.09173166       26       0.02121114       0.03968567       0.01432664
O        4.64194229       2.65642942       2.28948119       27       0.02121114      -0.03968567      -0.01432664
O        1.73157148       2.65642942       6.40112524       28       0.02121114      -0.03968567       0.01432664
O        4.64194229       0.36101792      10.98008761       29       0.02121114       0.03968567      -0.01432664
O        4.08917012       5.67387677       2.28948119       30      -0.02121114      -0.03968567      -0.01432664
O        1.17879932       3.37846527      15.09173166       31      -0.02121114       0.03968567       0.01432664
O        3.72467250       4.10420192      16.45869509       32       0.00193548      -0.00082283       0.03117908
O        0.81430170       4.94814012       0.92251775       33       0.00193548       0.00082283      -0.03117908
O        2.09606910       1.08675458       9.61312418       34      -0.00193548      -0.00082283      -0.03117908
O        5.00643990       1.93069277       7.76808867       35      -0.00193548       0.00082283       0.03117908
O        2.09606910       1.93069277       0.92251775       36      -0.00193548       0.00082283      -0.03117908
O        5.00643990       1.08675458      16.45869509       37      -0.00193548      -0.00082283       0.03117908
O        3.72467250       4.94814012       7.76808867       38       0.00193548       0.00082283       0.03117908
O        0.81430170       4.10420192       9.61312418       39       0.00193548      -0.00082283      -0.03117908
40
Lattice="5.809669144737046 1.0887779473852627e-42 0.0 -2.0706085296605234e-43 6.050904052737431 0.0 0.0 0.0 17.368264615778486" Properties=species:S:1:pos:R:3:spacegroup_kinds:I:1:forces:R:3 spacegroup="P 1" unit_cell=conventional occupancy="_JSON {\"0\": {\"In\": 1}, \"1\": {\"In\": 1}, \"2\": {\"In\": 1}, \"3\": {\"In\": 1}, \"4\": {\"In\": 1}, \"5\": {\"In\": 1}, \"6\": {\"In\": 1}, \"7\": {\"In\": 1}, \"8\": {\"In\": 1}, \"9\": {\"In\": 1}, \"10\": {\"In\": 1}, \"11\": {\"In\": 1}, \"12\": {\"In\": 1}, \"13\": {\"In\": 1}, \"14\": {\"In\": 1}, \"15\": {\"In\": 1}, \"16\": {\"O\": 1}, \"17\": {\"O\": 1}, \"18\": {\"O\": 1}, \"19\": {\"O\": 1}, \"20\": {\"O\": 1}, \"21\": {\"O\": 1}, \"22\": {\"O\": 1}, \"23\": {\"O\": 1}, \"24\": {\"O\": 1}, \"25\": {\"O\": 1}, \"26\": {\"O\": 1}, \"27\": {\"O\": 1}, \"28\": {\"O\": 1}, \"29\": {\"O\": 1}, \"30\": {\"O\": 1}, \"31\": {\"O\": 1}, \"32\": {\"O\": 1}, \"33\": {\"O\": 1}, \"34\": {\"O\": 1}, \"35\": {\"O\": 1}, \"36\": {\"O\": 1}, \"37\": {\"O\": 1}, \"38\": {\"O\": 1}, \"39\": {\"O\": 1}}" n_minim_iter=5 energy=-45146.45677506835 stress="0.06452473801382161 2.1420938092337877e-13 -9.822241009985247e-14 2.1420938092337877e-13 0.0676153975724335 2.345883023799931e-13 -9.822241009985247e-14 2.345883023799931e-13 0.06680138370815539" free_energy=-45146.45677506835 pbc="T T T"
In       2.78681123       5.02747375      10.05950566        0      -0.00698757      -0.00886587      -0.02662429
In      -0.11802334       4.04888233       7.30875896        1      -0.00698757       0.00886587       0.02662429
In       3.02285791       2.00202173      15.99289127        2       0.00698757      -0.00886587       0.02662429
In       5.92769248       1.02343030       1.37537335        3       0.00698757       0.00886587      -0.02662429
In       3.02285791       1.02343030       7.30875896        4       0.00698757       0.00886587       0.02662429
In       5.92769248       2.00202173      10.05950566        5       0.00698757      -0.00886587      -0.02662429
In       2.78681123       4.04888233       1.37537335        6      -0.00698757       0.00886587      -0.02662429
In      -0.11802334       5.02747375      15.99289127        7      -0.00698757      -0.00886587       0.02662429
In       2.78196813       4.69612196      14.11927541        8      -0.00701004      -0.00212936       0.01613407
In       5.68680271       4.38023412       3.24898920        9      -0.00701004       0.00212936      -0.01613407
In       3.02770101       1.67066993      11.93312151       10       0.00701004      -0.00212936      -0.01613407
In       0.12286644       1.35478209       5.43514310       11       0.00701004       0.00212936       0.01613407
In       3.02770101       1.35478209       3.24898920       12       0.00701004       0.00212936      -0.01613407
In       0.12286644       1.67066993      14.11927541       13       0.00701004      -0.00212936       0.01613407
In       2.78196813       4.38023412       5.43514310       14      -0.00701004       0.00212936       0.01613407
In       5.68680271       4.69612196      11.93312151       15      -0.00701004      -0.00212936      -0.01613407
O        4.91510874       5.46394076      13.87633080       16      -0.05957792       0.02020083      -0.01380528
O        2.01027417       3.61241532       3.49193382       17      -0.05957792      -0.02020083       0.01380528
O        0.89456041       2.43848874      12.17606612       18       0.05957792       0.02020083       0.01380528
O        3.79939498       0.58696329       5.19219849       19       0.05957792      -0.02020083      -0.01380528
O        0.89456041       0.58696329       3.49193382       20       0.05957792      -0.02020083       0.01380528
O        3.79939498       2.43848874      13.87633080       21       0.05957792       0.02020083      -0.01380528
O        4.91510874       3.61241532       5.19219849       22      -0.05957792      -0.02020083      -0.01380528
O        2.01027417       5.46394076      12.17606612       23      -0.05957792       0.02020083       0.01380528
O        4.08011711       3.39702355      10.97363806       24      -0.01762048       0.00254137       0.01782281
O        1.17528254       5.67933253       6.39462655       25      -0.01762048      -0.00254137      -0.01782281
O        1.72955203       0.37157153      15.07875886       26       0.01762048       0.00254137      -0.01782281
O        4.63438661       2.65388050       2.28950576       27       0.01762048      -0.00254137       0.01782281
O        1.72955203       2.65388050       6.39462655       28       0.01762048      -0.00254137      -0.01782281
O        4.63438661       0.37157153      10.97363806       29       0.01762048       0.00254137       0.01782281
O        4.08011711       5.67933253       2.28950576       30      -0.01762048      -0.00254137       0.01782281
O        1.17528254       3.39702355      15.07875886       31      -0.01762048       0.00254137      -0.01782281
O        3.71804314       4.10983500      16.45067047       32      -0.02000729      -0.01089205       0.03445667
O        0.81320857       4.96652108       0.91759415       33      -0.02000729       0.01089205      -0.03445667
O        2.09162601       1.08438297       9.60172645       34       0.02000729      -0.01089205      -0.03445667
O        4.99646058       1.94106906       7.76653816       35       0.02000729       0.01089205       0.03445667
O        2.09162601       1.94106906       0.91759415       36       0.02000729       0.01089205      -0.03445667
O        4.99646058       1.08438297      16.45067047       37       0.02000729      -0.01089205       0.03445667
O        3.71804314       4.96652108       7.76653816       38      -0.02000729       0.01089205       0.03445667
O        0.81320857       4.10983500       9.60172645       39      -0.02000729      -0.01089205      -0.03445667
40