40
Lattice="5.90733625504109 3.4118274318025362e-43 0.0 -3.590742979402234e-43 6.217115785821119 0.0 0.0 0.0 17.331879795660143" Properties=species:S:1:pos:R:3:spacegroup_kinds:I:1:forces:R:3 spacegroup="P 1" unit_cell=conventional occupancy="_JSON {\"0\": {\"In\": 1}, \"1\": {\"In\": 1}, \"2\": {\"In\": 1}, \"3\": {\"In\": 1}, \"4\": {\"In\": 1}, \"5\": {\"In\": 1}, \"6\": {\"In\": 1}, \"7\": {\"In\": 1}, \"8\": {\"In\": 1}, \"9\": {\"In\": 1}, \"10\": {\"In\": 1}, \"11\": {\"In\": 1}, \"12\": {\"In\": 1}, \"13\": {\"In\": 1}, \"14\": {\"In\": 1}, \"15\": {\"In\": 1}, \"16\": {\"O\": 1}, \"17\": {\"O\": 1}, \"18\": {\"O\": 1}, \"19\": {\"O\": 1}, \"20\": {\"O\": 1}, \"21\": {\"O\": 1}, \"22\": {\"O\": 1}, \"23\": {\"O\": 1}, \"24\": {\"O\": 1}, \"25\": {\"O\": 1}, \"26\": {\"O\": 1}, \"27\": {\"O\": 1}, \"28\": {\"O\": 1}, \"29\": {\"O\": 1}, \"30\": {\"O\": 1}, \"31\": {\"O\": 1}, \"32\": {\"O\": 1}, \"33\": {\"O\": 1}, \"34\": {\"O\": 1}, \"35\": {\"O\": 1}, \"36\": {\"O\": 1}, \"37\": {\"O\": 1}, \"38\": {\"O\": 1}, \"39\": {\"O\": 1}}" n_minim_iter=1 energy=-45144.79616389472 stress="0.07981584297685158 -2.0109595422442619e-13 2.199933760710501e-13 -2.0109595422442619e-13 0.07517406560584484 2.6604745831838148e-14 2.199933760710501e-13 2.6604745831838148e-14 0.07820129687811397" free_energy=-45144.79616389472 pbc="T T T"
In       2.73295190       5.17149678      10.02438264        0       0.00673144       0.06918427       0.03487836
In      -0.22071623       4.15417690       7.30749716        1       0.00673144      -0.06918427      -0.03487836
In       3.17438436       2.06293889      15.97343706        2      -0.00673144       0.06918427      -0.03487836
In       6.12805249       1.04561901       1.35844274        3      -0.00673144      -0.06918427       0.03487836
In       3.17438436       1.04561901       7.30749716        4      -0.00673144      -0.06918427      -0.03487836
In       6.12805249       2.06293889      10.02438264        5      -0.00673144       0.06918427       0.03487836
In       2.73295190       4.15417690       1.35844274        6       0.00673144      -0.06918427       0.03487836
In      -0.22071623       5.17149678      15.97343706        7       0.00673144       0.06918427      -0.03487836
In       2.74827181       4.88809277      14.10025426        8      -0.03587693       0.02524411       0.02494884
In       5.70193994       4.43758091       3.23162553        9      -0.03587693      -0.02524411      -0.02494884
In       3.15906445       1.77953488      11.89756543       10       0.03587693       0.02524411      -0.02494884
In       0.20539632       1.32902301       5.43431437       11       0.03587693      -0.02524411       0.02494884
In       3.15906445       1.32902301       3.23162553       12       0.03587693      -0.02524411      -0.02494884
In       0.20539632       1.77953488      14.10025426       13       0.03587693       0.02524411       0.02494884
In       2.74827181       4.43758091       5.43431437       14      -0.03587693      -0.02524411       0.02494884
In       5.70193994       4.88809277      11.89756543       15      -0.03587693       0.02524411      -0.02494884
O        4.91715049       5.66487506      13.86151655       16       0.01268488      -0.06071004       0.03378287
O        1.96348236       3.66079862       3.47036325       17       0.01268488       0.06071004      -0.03378287
O        0.99018576       2.55631716      12.13630314       18      -0.01268488      -0.06071004      -0.03378287
O        3.94385389       0.55224073       5.19557665       19      -0.01268488       0.06071004       0.03378287
O        0.99018576       0.55224073       3.47036325       20      -0.01268488       0.06071004      -0.03378287
O        3.94385389       2.55631716      13.86151655       21      -0.01268488      -0.06071004       0.03378287
O        4.91715049       3.66079862       5.19557665       22       0.01268488       0.06071004       0.03378287
O        1.96348236       5.66487506      12.13630314       23       0.01268488      -0.06071004      -0.03378287
O        4.13330073       3.57674415      10.94916688       24       0.04863556       0.07375230       0.02596273
O        1.17963260       5.74892952       6.38271292       25       0.04863556      -0.07375230      -0.02596273
O        1.77403553       0.46818626      15.04865282       26      -0.04863556       0.07375230      -0.02596273
O        4.72770366       2.64037163       2.28322698       27      -0.04863556      -0.07375230       0.02596273
O        1.77403553       2.64037163       6.38271292       28      -0.04863556      -0.07375230      -0.02596273
O        4.72770366       0.46818626      10.94916688       29      -0.04863556       0.07375230       0.02596273
O        4.13330073       5.74892952       2.28322698       30       0.04863556      -0.07375230       0.02596273
O        1.17963260       3.57674415      15.04865282       31       0.04863556       0.07375230      -0.02596273
O        3.73882207       4.17531302      16.50910107       32      -0.05452471      -0.08790550      -0.03201359
O        0.78515394       5.15036066       0.82277873       33      -0.05452471       0.08790550       0.03201359
O        2.16851418       1.06675512       9.48871863       34       0.05452471      -0.08790550       0.03201359
O        5.12218231       2.04180277       7.84316117       35       0.05452471       0.08790550      -0.03201359
O        2.16851418       2.04180277       0.82277873       36       0.05452471       0.08790550       0.03201359
O        5.12218231       1.06675512      16.50910107       37       0.05452471      -0.08790550      -0.03201359
O        3.73882207       5.15036066       7.84316117       38      -0.05452471       0.08790550      -0.03201359
O        0.78515394       4.17531302       9.48871863       39      -0.05452471      -0.08790550       0.03201359
40
Lattice="5.889465595633865 3.4161558890355787e-43 0.0 -3.5880960618465446e-43 6.240248272197177 0.0 0.0 0.0 17.32002675060836" Properties=species:S:1:pos:R:3:spacegroup_kinds:I:1:forces:R:3 spacegroup="P 1" unit_cell=conventional occupancy="_JSON {\"0\": {\"In\": 1}, \"1\": {\"In\": 1}, \"2\": {\"In\": 1}, \"3\": {\"In\": 1}, \"4\": {\"In\": 1}, \"5\": {\"In\": 1}, \"6\": {\"In\": 1}, \"7\": {\"In\": 1}, \"8\": {\"In\": 1}, \"9\": {\"In\": 1}, \"10\": {\"In\": 1}, \"11\": {\"In\": 1}, \"12\": {\"In\": 1}, \"13\": {\"In\": 1}, \"14\": {\"In\": 1}, \"15\": {\"In\": 1}, \"16\": {\"O\": 1}, \"17\": {\"O\": 1}, \"18\": {\"O\": 1}, \"19\": {\"O\": 1}, \"20\": {\"O\": 1}, \"21\": {\"O\": 1}, \"22\": {\"O\": 1}, \"23\": {\"O\": 1}, \"24\": {\"O\": 1}, \"25\": {\"O\": 1}, \"26\": {\"O\": 1}, \"27\": {\"O\": 1}, \"28\": {\"O\": 1}, \"29\": {\"O\": 1}, \"30\": {\"O\": 1}, \"31\": {\"O\": 1}, \"32\": {\"O\": 1}, \"33\": {\"O\": 1}, \"34\": {\"O\": 1}, \"35\": {\"O\": 1}, \"36\": {\"O\": 1}, \"37\": {\"O\": 1}, \"38\": {\"O\": 1}, \"39\": {\"O\": 1}}" n_minim_iter=2 energy=-45144.80159267706 stress="0.07631758017809259 7.682781609935712e-14 -1.473097429039591e-13 7.682781609935712e-14 0.07680993211518625 1.8174621969350255e-13 -1.473097429039591e-13 1.8174621969350255e-13 0.07725974111844824" free_energy=-45144.80159267706 pbc="T T T"
In       2.72469959       5.19089724      10.01760664        0       0.01947959       0.09372782       0.02585003
In      -0.22003321       4.16947517       7.30242011        1       0.01947959      -0.09372782      -0.02585003
In       3.16476601       2.07077311      15.96243348        2      -0.01947959       0.09372782      -0.02585003
In       6.10949881       1.04935103       1.35759327        3      -0.01947959      -0.09372782       0.02585003
In       3.16476601       1.04935103       7.30242011        4      -0.01947959      -0.09372782      -0.02585003
In       6.10949881       2.07077311      10.01760664        5      -0.01947959       0.09372782       0.02585003
In       2.72469959       4.16947517       1.35759327        6       0.01947959      -0.09372782       0.02585003
In      -0.22003321       5.19089724      15.96243348        7       0.01947959       0.09372782      -0.02585003
In       2.73987620       4.90633809      14.09066819        8      -0.04381937       0.02414559       0.04267468
In       5.68460900       4.45403432       3.22935856        9      -0.04381937      -0.02414559      -0.04267468
In       3.14958939       1.78621396      11.88937194       10       0.04381937       0.02414559      -0.04267468
In       0.20485660       1.33391018       5.43065481       11       0.04381937      -0.02414559       0.04267468
In       3.14958939       1.33391018       3.22935856       12       0.04381937      -0.02414559      -0.04267468
In       0.20485660       1.78621396      14.09066819       13       0.04381937       0.02414559       0.04267468
In       2.73987620       4.45403432       5.43065481       14      -0.04381937      -0.02414559       0.04267468
In       5.68460900       4.90633809      11.88937194       15      -0.04381937       0.02414559      -0.04267468
O        4.90230417       5.68581370      13.85211389       16       0.01137431      -0.07259771       0.03162480
O        1.95757137       3.67455871       3.46791286       17       0.01137431       0.07259771      -0.03162480
O        0.98716143       2.56568957      12.12792623       18      -0.01137431      -0.07259771      -0.03162480
O        3.93189422       0.55443457       5.19210052       19      -0.01137431       0.07259771       0.03162480
O        0.98716143       0.55443457       3.46791286       20      -0.01137431       0.07259771      -0.03162480
O        3.93189422       2.56568957      13.85211389       21      -0.01137431      -0.07259771       0.03162480
O        4.90230417       3.67455871       5.19210052       22       0.01137431       0.07259771       0.03162480
O        1.95757137       5.68581370      12.12792623       23       0.01137431      -0.07259771      -0.03162480
O        4.12090748       3.59022137      10.94173810       24       0.04049993       0.07019898       0.04141069
O        1.17617469       5.77015104       6.37828865       25       0.04049993      -0.07019898      -0.04141069
O        1.76855811       0.47009723      15.03830203       26      -0.04049993       0.07019898      -0.04141069
O        4.71329091       2.65002690       2.28172472       27      -0.04049993      -0.07019898       0.04141069
O        1.76855811       2.65002690       6.37828865       28      -0.04049993      -0.07019898      -0.04141069
O        4.71329091       0.47009723      10.94173810       29      -0.04049993       0.07019898       0.04141069
O        4.12090748       5.77015104       2.28172472       30       0.04049993      -0.07019898       0.04141069
O        1.17617469       3.59022137      15.03830203       31       0.04049993       0.07019898      -0.04141069
O        3.72738746       4.19064704      16.49773769       32      -0.04902102      -0.10486964      -0.01773561
O        0.78265466       5.16972537       0.82228906       33      -0.04902102       0.10486964       0.01773561
O        2.16207814       1.07052290       9.48230243       34       0.04902102      -0.10486964       0.01773561
O        5.10681094       2.04960124       7.83772432       35       0.04902102       0.10486964      -0.01773561
O        2.16207814       2.04960124       0.82228906       36       0.04902102       0.10486964       0.01773561
O        5.10681094       1.07052290      16.49773769       37       0.04902102      -0.10486964      -0.01773561
O        3.72738746       5.16972537       7.83772432       38      -0.04902102       0.10486964      -0.01773561
O        0.78265466       4.19064704       9.48230243       39      -0.04902102      -0.10486964       0.01773561
40
Lattice="5.895347284384009 3.3485995016554425e-43 0.0 -3.666969056461242e-43 6.247490154739041 0.0 0.0 0.0 17.28269008350723" Properties=species:S:1:pos:R:3:spacegroup_kinds:I:1:forces:R:3 spacegroup="P 1" unit_cell=conventional occupancy="_JSON {\"0\": {\"In\": 1}, \"1\": {\"In\": 1}, \"2\": {\"In\": 1}, \"3\": {\"In\": 1}, \"4\": {\"In\": 1}, \"5\": {\"In\": 1}, \"6\": {\"In\": 1}, \"7\": {\"In\": 1}, \"8\": {\"In\": 1}, \"9\": {\"In\": 1}, \"10\": {\"In\": 1}, \"11\": {\"In\": 1}, \"12\": {\"In\": 1}, \"13\": {\"In\": 1}, \"14\": {\"In\": 1}, \"15\": {\"In\": 1}, \"16\": {\"O\": 1}, \"17\": {\"O\": 1}, \"18\": {\"O\": 1}, \"19\": {\"O\": 1}, \"20\": {\"O\": 1}, \"21\": {\"O\": 1}, \"22\": {\"O\": 1}, \"23\": {\"O\": 1}, \"24\": {\"O\": 1}, \"25\": {\"O\": 1}, \"26\": {\"O\": 1}, \"27\": {\"O\": 1}, \"28\": {\"O\": 1}, \"29\": {\"O\": 1}, \"30\": {\"O\": 1}, \"31\": {\"O\": 1}, \"32\": {\"O\": 1}, \"33\": {\"O\": 1}, \"34\": {\"O\": 1}, \"35\": {\"O\": 1}, \"36\": {\"O\": 1}, \"37\": {\"O\": 1}, \"38\": {\"O\": 1}, \"39\": {\"O\": 1}}" n_minim_iter=3 energy=-45144.80329288332 stress="0.07708854091684177 -1.471867312517291e-13 3.066804788057582e-13 -1.471867312517291e-13 0.07707717226479005 -1.6285550192469528e-13 3.066804788057582e-13 -1.6285550192469528e-13 0.07535275737710087" free_energy=-45144.80329288332 pbc="T T T"
In       2.72755260       5.19759230       9.99620644        0       0.01303468       0.08056181       0.03050990
In      -0.22012104       4.17364294       7.28648365        1       0.01303468      -0.08056181      -0.03050990
In       3.16779469       2.07384722      15.92782869        2      -0.01303468       0.08056181      -0.03050990
In       6.11546833       1.04989786       1.35486140        3      -0.01303468      -0.08056181       0.03050990
In       3.16779469       1.04989786       7.28648365        4      -0.01303468      -0.08056181      -0.03050990
In       6.11546833       2.07384722       9.99620644        5      -0.01303468       0.08056181       0.03050990
In       2.72755260       4.17364294       1.35486140        6       0.01303468      -0.08056181       0.03050990
In      -0.22012104       5.19759230      15.92782869        7       0.01303468       0.08056181      -0.03050990
In       2.74230023       4.91221039      14.06059005        8      -0.04302975       0.02967966       0.05001955
In       5.68997387       4.45902484       3.22210004        9      -0.04302975      -0.02967966      -0.05001955
In       3.15304706       1.78846531      11.86344508       10       0.04302975       0.02967966      -0.05001955
In       0.20537342       1.33527976       5.41924501       11       0.04302975      -0.02967966       0.05001955
In       3.15304706       1.33527976       3.22210004       12       0.04302975      -0.02967966      -0.05001955
In       0.20537342       1.78846531      14.06059005       13       0.04302975       0.02967966       0.05001955
In       2.74230023       4.45902484       5.41924501       14      -0.04302975      -0.02967966       0.05001955
In       5.68997387       4.91221039      11.86344508       15      -0.04302975       0.02967966      -0.05001955
O        4.90728357       5.69188710      13.82248452       16       0.00305805      -0.07820862       0.03494006
O        1.95960993       3.67934813       3.46020557       17       0.00305805       0.07820862      -0.03494006
O        0.98806372       2.56814202      12.10155061       18      -0.00305805      -0.07820862      -0.03494006
O        3.93573736       0.55560305       5.18113948       19      -0.00305805       0.07820862       0.03494006
O        0.98806372       0.55560305       3.46020557       20      -0.00305805       0.07820862      -0.03494006
O        3.93573736       2.56814202      13.82248452       21      -0.00305805      -0.07820862       0.03494006
O        4.90728357       3.67934813       5.18113948       22       0.00305805       0.07820862       0.03494006
O        1.95960993       5.69188710      12.10155061       23       0.00305805      -0.07820862      -0.03494006
O        4.12532310       3.59490690      10.91844060       24       0.03547442       0.07505278       0.03171602
O        1.17764946       5.77632834       6.36424948       25       0.03547442      -0.07505278      -0.03171602
O        1.77002418       0.47116182      15.00559453       26      -0.03547442       0.07505278      -0.03171602
O        4.71769783       2.65258326       2.27709556       27      -0.03547442      -0.07505278       0.03171602
O        1.77002418       2.65258326       6.36424948       28      -0.03547442      -0.07505278      -0.03171602
O        4.71769783       0.47116182      10.91844060       29      -0.03547442       0.07505278       0.03171602
O        4.12532310       5.77632834       2.27709556       30       0.03547442      -0.07505278       0.03171602
O        1.17764946       3.59490690      15.00559453       31       0.03547442       0.07505278      -0.03171602
O        3.73074987       4.19475172      16.46203402       32      -0.04449672      -0.10206685      -0.01128406
O        0.78307622       5.17648351       0.82065607       33      -0.04449672       0.10206685       0.01128406
O        2.16459742       1.07100664       9.46200111       34       0.04449672      -0.10206685       0.01128406
O        5.11227106       2.05273844       7.82068898       35       0.04449672       0.10206685      -0.01128406
O        2.16459742       2.05273844       0.82065607       36       0.04449672       0.10206685       0.01128406
O        5.11227106       1.07100664      16.46203402       37       0.04449672      -0.10206685      -0.01128406
O        3.73074987       5.17648351       7.82068898       38      -0.04449672       0.10206685      -0.01128406
O        0.78307622       4.19475172       9.46200111       39      -0.04449672      -0.10206685       0.01128406
40
Lattice="5.886909376225351 2.767838625950606e-43 0.0 -3.821353276206542e-43 6.254426756923653 0.0 0.0 0.0 17.288266752203825" Properties=species:S:1:pos:R:3:spacegroup_kinds:I:1:forces:R:3 spacegroup="P 1" unit_cell=conventional occupancy="_JSON {\"0\": {\"In\": 1}, \"1\": {\"In\": 1}, \"2\": {\"In\": 1}, \"3\": {\"In\": 1}, \"4\": {\"In\": 1}, \"5\": {\"In\": 1}, \"6\": {\"In\": 1}, \"7\": {\"In\": 1}, \"8\": {\"In\": 1}, \"9\": {\"In\": 1}, \"10\": {\"In\": 1}, \"11\": {\"In\": 1}, \"12\": {\"In\": 1}, \"13\": {\"In\": 1}, \"14\": {\"In\": 1}, \"15\": {\"In\": 1}, \"16\": {\"O\": 1}, \"17\": {\"O\": 1}, \"18\": {\"O\": 1}, \"19\": {\"O\": 1}, \"20\": {\"O\": 1}, \"21\": {\"O\": 1}, \"22\": {\"O\": 1}, \"23\": {\"O\": 1}, \"24\": {\"O\": 1}, \"25\": {\"O\": 1}, \"26\": {\"O\": 1}, \"27\": {\"O\": 1}, \"28\": {\"O\": 1}, \"29\": {\"O\": 1}, \"30\": {\"O\": 1}, \"31\": {\"O\": 1}, \"32\": {\"O\": 1}, \"33\": {\"O\": 1}, \"34\": {\"O\": 1}, \"35\": {\"O\": 1}, \"36\": {\"O\": 1}, \"37\": {\"O\": 1}, \"38\": {\"O\": 1}, \"39\": {\"O\": 1}}" n_minim_iter=4 energy=-45144.82125932724 stress="0.07367467139109372 6.115557892761749e-15 2.6003918747256445e-15 6.115557892761749e-15 0.07350929557134882 2.99409042514193e-13 2.6003918747256445e-15 2.99409042514193e-13 0.0736696844260683" free_energy=-45144.82125932724 pbc="T T T"
In       2.72546097       5.21309866      10.00247130        0      -0.02183080      -0.04249479       0.00220291
In      -0.21799372       4.16854147       7.28579545        1      -0.02183080       0.04249479      -0.00220291
In       3.16144841       2.08588528      15.92992882        2       0.02183080      -0.04249479      -0.00220291
In       6.10490310       1.04132810       1.35833793        3       0.02183080       0.04249479       0.00220291
In       3.16144841       1.04132810       7.28579545        4       0.02183080       0.04249479      -0.00220291
In       6.10490310       2.08588528      10.00247130        5       0.02183080      -0.04249479       0.00220291
In       2.72546097       4.16854147       1.35833793        6      -0.02183080       0.04249479       0.00220291
In      -0.21799372       5.21309866      15.92992882        7      -0.02183080      -0.04249479      -0.00220291
In       2.73369711       4.92051981      14.06986800        8       0.02036393       0.05721143      -0.00664035
In       5.67715180       4.46112033       3.21839875        9       0.02036393      -0.05721143       0.00664035
In       3.15321227       1.79330643      11.86253212       10      -0.02036393       0.05721143       0.00664035
In       0.20975758       1.33390695       5.42573463       11      -0.02036393      -0.05721143      -0.00664035
In       3.15321227       1.33390695       3.21839875       12      -0.02036393      -0.05721143       0.00664035
In       0.20975758       1.79330643      14.06986800       13      -0.02036393       0.05721143      -0.00664035
In       2.73369711       4.46112033       5.42573463       14       0.02036393      -0.05721143      -0.00664035
In       5.67715180       4.92051981      11.86253212       15       0.02036393       0.05721143       0.00664035
O        4.90124548       5.69010028      13.83051533       16      -0.01419372      -0.06464780       0.00001111
O        1.95779080       3.69153985       3.45775142       17      -0.01419372       0.06464780      -0.00001111
O        0.98566389       2.56288690      12.10188479       18       0.01419372      -0.06464780      -0.00001111
O        3.92911858       0.56432647       5.18638196       19       0.01419372       0.06464780       0.00001111
O        0.98566389       0.56432647       3.45775142       20       0.01419372       0.06464780      -0.00001111
O        3.92911858       2.56288690      13.83051533       21       0.01419372      -0.06464780       0.00001111
O        4.90124548       3.69153985       5.18638196       22      -0.01419372       0.06464780       0.00001111
O        1.95779080       5.69010028      12.10188479       23      -0.01419372      -0.06464780      -0.00001111
O        4.12373254       3.60684218      10.92604730       24      -0.02968063       0.04201453       0.02845890
O        1.18027785       5.77479795       6.36221945       25      -0.02968063      -0.04201453      -0.02845890
O        1.76317684       0.47962881      15.00635283       26       0.02968063       0.04201453      -0.02845890
O        4.70663153       2.64758457       2.28191393       27       0.02968063      -0.04201453       0.02845890
O        1.76317684       2.64758457       6.36221945       28       0.02968063      -0.04201453      -0.02845890
O        4.70663153       0.47962881      10.92604730       29       0.02968063       0.04201453       0.02845890
O        4.12373254       5.77479795       2.28191393       30      -0.02968063      -0.04201453       0.02845890
O        1.18027785       3.60684218      15.00635283       31      -0.02968063       0.04201453      -0.02845890
O        3.72017463       4.18804740      16.46549949       32       0.04416172       0.02192521       0.01633476
O        0.77671995       5.19359274       0.82276726       33       0.04416172      -0.02192521      -0.01633476
O        2.16673474       1.06083402       9.46690064       34      -0.04416172       0.02192521      -0.01633476
O        5.11018943       2.06637936       7.82136611       35      -0.04416172      -0.02192521       0.01633476
O        2.16673474       2.06637936       0.82276726       36      -0.04416172      -0.02192521      -0.01633476
O        5.11018943       1.06083402      16.46549949       37      -0.04416172       0.02192521       0.01633476
O        3.72017463       5.19359274       7.82136611       38       0.04416172      -0.02192521       0.01633476
O        0.77671995       4.18804740       9.46690064       39       0.04416172       0.02192521      -0.01633476
40
Lattice="5.881938058070796 2.6846255349525165e-43 0.0 -3.900204796942182e-43 6.273265656133273 0.0 0.0 0.0 17.25091719020384" Properties=species:S:1:pos:R:3:spacegroup_kinds:I:1:forces:R:3 spacegroup="P 1" unit_cell=conventional occupancy="_JSON {\"0\": {\"In\": 1}, \"1\": {\"In\": 1}, \"2\": {\"In\": 1}, \"3\": {\"In\": 1}, \"4\": {\"In\": 1}, \"5\": {\"In\": 1}, \"6\": {\"In\": 1}, \"7\": {\"In\": 1}, \"8\": {\"In\": 1}, \"9\": {\"In\": 1}, \"10\": {\"In\": 1}, \"11\": {\"In\": 1}, \"12\": {\"In\": 1}, \"13\": {\"In\": 1}, \"14\": {\"In\": 1}, \"15\": {\"In\": 1}, \"16\": {\"O\": 1}, \"17\": {\"O\": 1}, \"18\": {\"O\": 1}, \"19\": {\"O\": 1}, \"20\": {\"O\": 1}, \"21\": {\"O\": 1}, \"22\": {\"O\": 1}, \"23\": {\"O\": 1}, \"24\": {\"O\": 1}, \"25\": {\"O\": 1}, \"26\": {\"O\": 1}, \"27\": {\"O\": 1}, \"28\": {\"O\": 1}, \"29\": {\"O\": 1}, \"30\": {\"O\": 1}, \"31\": {\"O\": 1}, \"32\": {\"O\": 1}, \"33\": {\"O\": 1}, \"34\": {\"O\": 1}, \"35\": {\"O\": 1}, \"36\": {\"O\": 1}, \"37\": {\"O\": 1}, \"38\": {\"O\": 1}, \"39\": {\"O\": 1}}" n_minim_iter=5 energy=-45144.8329346601 stress="0.07122578246408844 -2.1894419334322138e-13 -2.8295846735841545e-13 -2.1894419334322138e-13 0.07287066761050753 -8.362258973292691e-14 -2.8295846735841545e-13 -8.362258973292691e-14 0.07151821768863482" free_energy=-45144.8329346601 pbc="T T T"
In       2.72027544       5.22606396       9.98269657        0       0.02577890       0.01028374      -0.00732418
In      -0.22069359       4.18383453       7.26822062        1       0.02577890      -0.01028374       0.00732418
In       3.16166262       2.08943113      15.89367922        2      -0.02577890       0.01028374       0.00732418
In       6.10263164       1.04720170       1.35723797        3      -0.02577890      -0.01028374      -0.00732418
In       3.16166262       1.04720170       7.26822062        4      -0.02577890      -0.01028374       0.00732418
In       6.10263164       2.08943113       9.98269657        5      -0.02577890       0.01028374      -0.00732418
In       2.72027544       4.18383453       1.35723797        6       0.02577890      -0.01028374      -0.00732418
In      -0.22069359       5.22606396      15.89367922        7       0.02577890       0.01028374       0.00732418
In       2.73262424       4.94697442      14.04073728        8       0.01627995       0.00302989       0.03011554
In       5.67359327       4.46292407       3.21017991        9       0.01627995      -0.00302989      -0.03011554
In       3.14931381       1.81034159      11.83563850       10      -0.01627995       0.00302989      -0.03011554
In       0.20834479       1.32629124       5.41527869       11      -0.01627995      -0.00302989       0.03011554
In       3.14931381       1.32629124       3.21017991       12      -0.01627995      -0.00302989      -0.03011554
In       0.20834479       1.81034159      14.04073728       13      -0.01627995       0.00302989       0.03011554
In       2.73262424       4.46292407       5.41527869       14       0.01627995      -0.00302989       0.03011554
In       5.67359327       4.94697442      11.83563850       15       0.01627995       0.00302989      -0.03011554
O        4.89507400       5.69163549      13.80237743       16      -0.01555330      -0.01615285       0.01796296
O        1.95410497       3.71826300       3.44853976       17      -0.01555330       0.01615285      -0.01796296
O        0.98686406       2.55500266      12.07399836       18       0.01555330      -0.01615285      -0.01796296
O        3.92783309       0.58163017       5.17691883       19       0.01555330       0.01615285       0.01796296
O        0.98686406       0.58163017       3.44853976       20       0.01555330       0.01615285      -0.01796296
O        3.92783309       2.55500266      13.80237743       21       0.01555330      -0.01615285       0.01796296
O        4.89507400       3.71826300       5.17691883       22      -0.01555330       0.01615285       0.01796296
O        1.95410497       5.69163549      12.07399836       23      -0.01555330      -0.01615285      -0.01796296
O        4.11711240       3.62910328      10.90945272       24       0.02717128       0.02491734      -0.01115656
O        1.17614337       5.78079520       6.34146447       25       0.02717128      -0.02491734       0.01115656
O        1.76482566       0.49247045      14.96692307       26      -0.02717128       0.02491734       0.01115656
O        4.70579469       2.64416238       2.28399413       27      -0.02717128      -0.02491734      -0.01115656
O        1.76482566       2.64416238       6.34146447       28      -0.02717128      -0.02491734       0.01115656
O        4.70579469       0.49247045      10.90945272       29      -0.02717128       0.02491734      -0.01115656
O        4.11711240       5.78079520       2.28399413       30       0.02717128      -0.02491734      -0.01115656
O        1.17614337       3.62910328      14.96692307       31       0.02717128       0.02491734       0.01115656
O        3.72223492       4.19893187      16.43197758       32      -0.02357593      -0.01761574      -0.00679662
O        0.78126589       5.21096661       0.81893961       33      -0.02357593       0.01761574       0.00679662
O        2.15970313       1.06229905       9.44439821       34       0.02357593      -0.01761574       0.00679662
O        5.10067216       2.07433378       7.80651898       35       0.02357593       0.01761574      -0.00679662
O        2.15970313       2.07433378       0.81893961       36       0.02357593       0.01761574       0.00679662
O        5.10067216       1.06229905      16.43197758       37       0.02357593      -0.01761574      -0.00679662
O        3.72223492       5.21096661       7.80651898       38      -0.02357593       0.01761574      -0.00679662
O        0.78126589       4.19893187       9.44439821       39      -0.02357593      -0.01761574       0.00679662
40