40
Lattice="5.624223622040624 4.237538301622321e-43 0.0 -4.387596607391965e-43 5.823386770057463 0.0 0.0 0.0 16.26207191764201" Properties=species:S:1:pos:R:3:spacegroup_kinds:I:1:forces:R:3 spacegroup="P 1" unit_cell=conventional occupancy="_JSON {\"0\": {\"In\": 1}, \"1\": {\"In\": 1}, \"2\": {\"In\": 1}, \"3\": {\"In\": 1}, \"4\": {\"In\": 1}, \"5\": {\"In\": 1}, \"6\": {\"In\": 1}, \"7\": {\"In\": 1}, \"8\": {\"In\": 1}, \"9\": {\"In\": 1}, \"10\": {\"In\": 1}, \"11\": {\"In\": 1}, \"12\": {\"In\": 1}, \"13\": {\"In\": 1}, \"14\": {\"In\": 1}, \"15\": {\"In\": 1}, \"16\": {\"O\": 1}, \"17\": {\"O\": 1}, \"18\": {\"O\": 1}, \"19\": {\"O\": 1}, \"20\": {\"O\": 1}, \"21\": {\"O\": 1}, \"22\": {\"O\": 1}, \"23\": {\"O\": 1}, \"24\": {\"O\": 1}, \"25\": {\"O\": 1}, \"26\": {\"O\": 1}, \"27\": {\"O\": 1}, \"28\": {\"O\": 1}, \"29\": {\"O\": 1}, \"30\": {\"O\": 1}, \"31\": {\"O\": 1}, \"32\": {\"O\": 1}, \"33\": {\"O\": 1}, \"34\": {\"O\": 1}, \"35\": {\"O\": 1}, \"36\": {\"O\": 1}, \"37\": {\"O\": 1}, \"38\": {\"O\": 1}, \"39\": {\"O\": 1}}" n_minim_iter=1 energy=-45150.171105475136 stress="0.01853730555449764 1.0685005220750314e-15 1.7627705135620108e-14 1.0685005220750314e-15 0.020104588426574397 -4.202891877735947e-13 1.7627705135620108e-14 -4.202891877735947e-13 0.017600308020168518" free_energy=-45150.171105475136 pbc="T T T"
In       2.80595856       4.65487631       9.28343943        0      -0.00265188      -0.02196271       0.00807820
In      -0.00615326       4.08020384       6.97863249        1      -0.00265188       0.02196271      -0.00807820
In       2.81826507       1.74318293      15.10966845        2       0.00265188      -0.02196271      -0.00807820
In       5.63037688       1.16851046       1.15240347        3       0.00265188       0.02196271       0.00807820
In       2.81826507       1.16851046       6.97863249        4       0.00265188       0.02196271      -0.00807820
In       5.63037688       1.74318293       9.28343943        5       0.00265188      -0.02196271       0.00807820
In       2.80595856       4.08020384       1.15240347        6      -0.00265188       0.02196271       0.00807820
In      -0.00615326       4.65487631      15.10966845        7      -0.00265188      -0.02196271      -0.00807820
In       2.79571841       4.35215830      13.30619218        8      -0.02314794       0.01394884       0.00337033
In       5.60783022       4.38292185       2.95587974        9      -0.02314794      -0.01394884      -0.00337033
In       2.82850522       1.44046492      11.08691570       10       0.02314794       0.01394884      -0.00337033
In       0.01639341       1.47122847       5.17515622       11       0.02314794      -0.01394884       0.00337033
In       2.82850522       1.47122847       2.95587974       12       0.02314794      -0.01394884      -0.00337033
In       0.01639341       1.44046492      13.30619218       13       0.02314794       0.01394884       0.00337033
In       2.79571841       4.38292185       5.17515622       14      -0.02314794      -0.01394884       0.00337033
In       5.60783022       4.35215830      11.08691570       15      -0.02314794       0.01394884      -0.00337033
O        4.83002094       5.13420596      12.97971300       16      -0.00426276      -0.04435849      -0.01398166
O        2.01790913       3.60087419       3.28235892       17      -0.00426276       0.04435849       0.01398166
O        0.79420269       2.22251258      11.41339488       18       0.00426276      -0.04435849       0.01398166
O        3.60631450       0.68918081       4.84867704       19       0.00426276       0.04435849      -0.01398166
O        0.79420269       0.68918081       3.28235892       20       0.00426276       0.04435849       0.01398166
O        3.60631450       2.22251258      12.97971300       21       0.00426276      -0.04435849      -0.01398166
O        4.83002094       3.60087419       4.84867704       22      -0.00426276       0.04435849      -0.01398166
O        2.01790913       5.13420596      11.41339488       23      -0.00426276      -0.04435849       0.01398166
O        3.97314221       3.07249952      10.15470559       24      -0.07190595       0.01799744      -0.01029699
O        1.16103040       5.66258064       6.10736633       25      -0.07190595      -0.01799744       0.01029699
O        1.65108141       0.16080613      14.23840229       26       0.07190595       0.01799744       0.01029699
O        4.46319322       2.75088725       2.02366963       27       0.07190595      -0.01799744      -0.01029699
O        1.65108141       2.75088725       6.10736633       28       0.07190595      -0.01799744       0.01029699
O        4.46319322       0.16080613      10.15470559       29       0.07190595       0.01799744      -0.01029699
O        3.97314221       5.66258064       2.02366963       30      -0.07190595      -0.01799744      -0.01029699
O        1.16103040       3.07249952      14.23840229       31      -0.07190595       0.01799744       0.01029699
O        3.63115853       3.84707515      15.41313866       32       0.05401484       0.02951257       0.06081171
O        0.81904672       4.88800500       0.84893326       33       0.05401484      -0.02951257      -0.06081171
O        1.99306509       0.93538177       8.97996922       34      -0.05401484       0.02951257      -0.06081171
O        4.80517690       1.97631162       7.28210270       35      -0.05401484      -0.02951257       0.06081171
O        1.99306509       1.97631162       0.84893326       36      -0.05401484      -0.02951257      -0.06081171
O        4.80517690       0.93538177      15.41313866       37      -0.05401484       0.02951257       0.06081171
O        3.63115853       4.88800500       7.28210270       38       0.05401484      -0.02951257       0.06081171
O        0.81904672       3.84707515       8.97996922       39       0.05401484       0.02951257      -0.06081171
40
Lattice="5.625946999686164 4.241346709927872e-43 0.0 -4.376966609146416e-43 5.8118729013604735 0.0 0.0 0.0 16.28929724152391" Properties=species:S:1:pos:R:3:spacegroup_kinds:I:1:forces:R:3 spacegroup="P 1" unit_cell=conventional occupancy="_JSON {\"0\": {\"In\": 1}, \"1\": {\"In\": 1}, \"2\": {\"In\": 1}, \"3\": {\"In\": 1}, \"4\": {\"In\": 1}, \"5\": {\"In\": 1}, \"6\": {\"In\": 1}, \"7\": {\"In\": 1}, \"8\": {\"In\": 1}, \"9\": {\"In\": 1}, \"10\": {\"In\": 1}, \"11\": {\"In\": 1}, \"12\": {\"In\": 1}, \"13\": {\"In\": 1}, \"14\": {\"In\": 1}, \"15\": {\"In\": 1}, \"16\": {\"O\": 1}, \"17\": {\"O\": 1}, \"18\": {\"O\": 1}, \"19\": {\"O\": 1}, \"20\": {\"O\": 1}, \"21\": {\"O\": 1}, \"22\": {\"O\": 1}, \"23\": {\"O\": 1}, \"24\": {\"O\": 1}, \"25\": {\"O\": 1}, \"26\": {\"O\": 1}, \"27\": {\"O\": 1}, \"28\": {\"O\": 1}, \"29\": {\"O\": 1}, \"30\": {\"O\": 1}, \"31\": {\"O\": 1}, \"32\": {\"O\": 1}, \"33\": {\"O\": 1}, \"34\": {\"O\": 1}, \"35\": {\"O\": 1}, \"36\": {\"O\": 1}, \"37\": {\"O\": 1}, \"38\": {\"O\": 1}, \"39\": {\"O\": 1}}" n_minim_iter=2 energy=-45150.17253544684 stress="0.018358655938325443 -1.749960388789455e-13 -6.917582023158899e-14 -1.749960388789455e-13 0.018499190379169313 4.097241960478863e-13 -6.917582023158899e-14 4.097241960478863e-13 0.018896232712103604" free_energy=-45150.17253544684 pbc="T T T"
In       2.80681110       4.64561278       9.29900355        0       0.00102361      -0.02352789      -0.00757012
In      -0.00616240       4.07219657       6.99029369        1       0.00102361       0.02352789       0.00757012
In       2.81913590       1.73967633      15.13494231        2      -0.00102361      -0.02352789       0.00757012
In       5.63210940       1.16626012       1.15435493        3      -0.00102361       0.02352789      -0.00757012
In       2.81913590       1.16626012       6.99029369        4      -0.00102361       0.02352789       0.00757012
In       5.63210940       1.73967633       9.29900355        5      -0.00102361      -0.02352789      -0.00757012
In       2.80681110       4.07219657       1.15435493        6       0.00102361       0.02352789      -0.00757012
In      -0.00616240       4.64561278      15.13494231        7       0.00102361      -0.02352789       0.00757012
In       2.79651167       4.34359143      13.32847813        8      -0.02624194       0.02049237      -0.00517171
In       5.60948517       4.37421792       2.96081911        9      -0.02624194      -0.02049237       0.00517171
In       2.82943533       1.43765498      11.10546773       10       0.02624194       0.02049237       0.00517171
In       0.01646183       1.46828147       5.18382951       11       0.02624194      -0.02049237      -0.00517171
In       2.82943533       1.46828147       2.96081911       12       0.02624194      -0.02049237       0.00517171
In       0.01646183       1.43765498      13.32847813       13       0.02624194       0.02049237      -0.00517171
In       2.79651167       4.37421792       5.18382951       14      -0.02624194      -0.02049237      -0.00517171
In       5.60948517       4.34359143      11.10546773       15      -0.02624194       0.02049237       0.00517171
O        4.83148928       5.12393352      13.00140478       16       0.00197637      -0.04470622      -0.01964856
O        2.01851578       3.59387584       3.28789246       17       0.00197637       0.04470622       0.01964856
O        0.79445772       2.21799706      11.43254108       18      -0.00197637      -0.04470622       0.01964856
O        3.60743122       0.68793939       4.85675616       19      -0.00197637       0.04470622      -0.01964856
O        0.79445772       0.68793939       3.28789246       20      -0.00197637       0.04470622       0.01964856
O        3.60743122       2.21799706      13.00140478       21      -0.00197637      -0.04470622      -0.01964856
O        4.83148928       3.59387584       4.85675616       22       0.00197637       0.04470622      -0.01964856
O        2.01851578       5.12393352      11.43254108       23       0.00197637      -0.04470622       0.01964856
O        3.97416273       3.06647382      10.17167796       24      -0.06283293       0.01080419      -0.00546221
O        1.16118923       5.65133553       6.11761928       25      -0.06283293      -0.01080419       0.00546221
O        1.65178427       0.16053737      14.26226791       26       0.06283293       0.01080419       0.00546221
O        4.46475777       2.74539908       2.02702934       27       0.06283293      -0.01080419      -0.00546221
O        1.65178427       2.74539908       6.11761928       28       0.06283293      -0.01080419       0.00546221
O        4.46475777       0.16053737      10.17167796       29       0.06283293       0.01080419      -0.00546221
O        3.97416273       5.65133553       2.02702934       30      -0.06283293      -0.01080419      -0.00546221
O        1.16118923       3.06647382      14.26226791       31      -0.06283293       0.01080419       0.00546221
O        3.63241913       3.83954944      15.43910951       32       0.04660171       0.03281709       0.06417147
O        0.81944563       4.87825991       0.85018773       33       0.04660171      -0.03281709      -0.06417147
O        1.99352787       0.93361299       8.99483635       34      -0.04660171       0.03281709      -0.06417147
O        4.80650137       1.97232346       7.29446089       35      -0.04660171      -0.03281709       0.06417147
O        1.99352787       1.97232346       0.85018773       36      -0.04660171      -0.03281709      -0.06417147
O        4.80650137       0.93361299      15.43910951       37      -0.04660171       0.03281709       0.06417147
O        3.63241913       4.87825991       7.29446089       38       0.04660171      -0.03281709       0.06417147
O        0.81944563       3.83954944       8.99483635       39       0.04660171       0.03281709      -0.06417147
40
Lattice="5.637119272777056 4.404405002440861e-43 0.0 -4.611126609347021e-43 5.806079311469203 0.0 0.0 0.0 16.273235334369932" Properties=species:S:1:pos:R:3:spacegroup_kinds:I:1:forces:R:3 spacegroup="P 1" unit_cell=conventional occupancy="_JSON {\"0\": {\"In\": 1}, \"1\": {\"In\": 1}, \"2\": {\"In\": 1}, \"3\": {\"In\": 1}, \"4\": {\"In\": 1}, \"5\": {\"In\": 1}, \"6\": {\"In\": 1}, \"7\": {\"In\": 1}, \"8\": {\"In\": 1}, \"9\": {\"In\": 1}, \"10\": {\"In\": 1}, \"11\": {\"In\": 1}, \"12\": {\"In\": 1}, \"13\": {\"In\": 1}, \"14\": {\"In\": 1}, \"15\": {\"In\": 1}, \"16\": {\"O\": 1}, \"17\": {\"O\": 1}, \"18\": {\"O\": 1}, \"19\": {\"O\": 1}, \"20\": {\"O\": 1}, \"21\": {\"O\": 1}, \"22\": {\"O\": 1}, \"23\": {\"O\": 1}, \"24\": {\"O\": 1}, \"25\": {\"O\": 1}, \"26\": {\"O\": 1}, \"27\": {\"O\": 1}, \"28\": {\"O\": 1}, \"29\": {\"O\": 1}, \"30\": {\"O\": 1}, \"31\": {\"O\": 1}, \"32\": {\"O\": 1}, \"33\": {\"O\": 1}, \"34\": {\"O\": 1}, \"35\": {\"O\": 1}, \"36\": {\"O\": 1}, \"37\": {\"O\": 1}, \"38\": {\"O\": 1}, \"39\": {\"O\": 1}}" n_minim_iter=3 energy=-45150.173505124614 stress="0.019704328799928006 5.3716852231512995e-14 -3.643938534983427e-13 5.3716852231512995e-14 0.017731188567994917 -3.0247387303907323e-13 -3.643938534983427e-13 -3.0247387303907323e-13 0.017675212967139357" free_energy=-45150.173505124614 pbc="T T T"
In       2.81239366       4.64059568       9.28974389        0      -0.01477489      -0.02489870      -0.00600995
In      -0.00616598       4.06852328       6.98349144        1      -0.01477489       0.02489870       0.00600995
In       2.82472562       1.73755603      15.12010911        2       0.01477489      -0.02489870       0.00600995
In       5.64328525       1.16548363       1.15312622        3       0.01477489       0.02489870      -0.00600995
In       2.82472562       1.16548363       6.98349144        4       0.01477489       0.02489870       0.00600995
In       5.64328525       1.73755603       9.28974389        5       0.01477489      -0.02489870      -0.00600995
In       2.81239366       4.06852328       1.15312622        6      -0.01477489       0.02489870      -0.00600995
In      -0.00616598       4.64059568      15.12010911        7      -0.01477489      -0.02489870       0.00600995
In       2.80163443       4.33958599      13.31526899        8      -0.00780515       0.01798177      -0.00032399
In       5.62019406       4.36953297       2.95796634        9      -0.00780515      -0.01798177       0.00032399
In       2.83548484       1.43654634      11.09458401       10       0.00780515       0.01798177       0.00032399
In       0.01692521       1.46649332       5.17865133       11       0.00780515      -0.01798177      -0.00032399
In       2.83548484       1.46649332       2.95796634       12       0.00780515      -0.01798177       0.00032399
In       0.01692521       1.43654634      13.31526899       13       0.00780515       0.01798177      -0.00032399
In       2.80163443       4.36953297       5.17865133       14      -0.00780515      -0.01798177      -0.00032399
In       5.62019406       4.33958599      11.09458401       15      -0.00780515       0.01798177       0.00032399
O        4.84110257       5.11808607      12.98827018       16       0.00000970      -0.04043928      -0.00566907
O        2.02254293       3.59103290       3.28496516       17       0.00000970       0.04043928       0.00566907
O        0.79601671       2.21504641      11.42158282       18      -0.00000970      -0.04043928       0.00566907
O        3.61457634       0.68799324       4.85165251       19      -0.00000970       0.04043928      -0.00566907
O        0.79601671       0.68799324       3.28496516       20      -0.00000970       0.04043928       0.00566907
O        3.61457634       2.21504641      12.98827018       21      -0.00000970      -0.04043928      -0.00566907
O        4.84110257       3.59103290       4.85165251       22       0.00000970       0.04043928      -0.00566907
O        2.02254293       5.11808607      11.42158282       23       0.00000970      -0.04043928       0.00566907
O        3.98098584       3.06361231      10.16154614       24      -0.04678566       0.00928291      -0.00393297
O        1.16242621       5.64550665       6.11168920       25      -0.04678566      -0.00928291       0.00393297
O        1.65613343       0.16057266      14.24830687       26       0.04678566       0.00928291       0.00393297
O        4.47469307       2.74246700       2.02492847       27       0.04678566      -0.00928291      -0.00393297
O        1.65613343       2.74246700       6.11168920       28       0.04678566      -0.00928291       0.00393297
O        4.47469307       0.16057266      10.16154614       29       0.04678566       0.00928291      -0.00393297
O        3.98098584       5.64550665       2.02492847       30      -0.04678566      -0.00928291      -0.00393297
O        1.16242621       3.06361231      14.24830687       31      -0.04678566       0.00928291       0.00393297
O        3.64042695       3.83625796      15.42494832       32       0.04335917       0.03210390       0.04501555
O        0.82186732       4.87286100       0.84828702       33       0.04335917      -0.03210390      -0.04501555
O        1.99669232       0.93321831       8.98490469       34      -0.04335917       0.03210390      -0.04501555
O        4.81525195       1.96982135       7.28833065       35      -0.04335917      -0.03210390       0.04501555
O        1.99669232       1.96982135       0.84828702       36      -0.04335917      -0.03210390      -0.04501555
O        4.81525195       0.93321831      15.42494832       37      -0.04335917       0.03210390       0.04501555
O        3.64042695       4.87286100       7.28833065       38       0.04335917      -0.03210390       0.04501555
O        0.82186732       3.83625796       8.98490469       39       0.04335917       0.03210390      -0.04501555
40
Lattice="5.6270285598776235 4.511762752497438e-43 0.0 -4.6156382246911705e-43 5.811682022438552 0.0 0.0 0.0 16.286701210403233" Properties=species:S:1:pos:R:3:spacegroup_kinds:I:1:forces:R:3 spacegroup="P 1" unit_cell=conventional occupancy="_JSON {\"0\": {\"In\": 1}, \"1\": {\"In\": 1}, \"2\": {\"In\": 1}, \"3\": {\"In\": 1}, \"4\": {\"In\": 1}, \"5\": {\"In\": 1}, \"6\": {\"In\": 1}, \"7\": {\"In\": 1}, \"8\": {\"In\": 1}, \"9\": {\"In\": 1}, \"10\": {\"In\": 1}, \"11\": {\"In\": 1}, \"12\": {\"In\": 1}, \"13\": {\"In\": 1}, \"14\": {\"In\": 1}, \"15\": {\"In\": 1}, \"16\": {\"O\": 1}, \"17\": {\"O\": 1}, \"18\": {\"O\": 1}, \"19\": {\"O\": 1}, \"20\": {\"O\": 1}, \"21\": {\"O\": 1}, \"22\": {\"O\": 1}, \"23\": {\"O\": 1}, \"24\": {\"O\": 1}, \"25\": {\"O\": 1}, \"26\": {\"O\": 1}, \"27\": {\"O\": 1}, \"28\": {\"O\": 1}, \"29\": {\"O\": 1}, \"30\": {\"O\": 1}, \"31\": {\"O\": 1}, \"32\": {\"O\": 1}, \"33\": {\"O\": 1}, \"34\": {\"O\": 1}, \"35\": {\"O\": 1}, \"36\": {\"O\": 1}, \"37\": {\"O\": 1}, \"38\": {\"O\": 1}, \"39\": {\"O\": 1}}" n_minim_iter=4 energy=-45150.177139237116 stress="0.01769541960248534 -8.895527405317281e-14 3.243334739217021e-14 -8.895527405317281e-14 0.01787154748511474 5.878070779050367e-13 3.243334739217021e-14 5.878070779050367e-13 0.017932147322941672" free_energy=-45150.177139237116 pbc="T T T"
In       2.80721354       4.64348390       9.29705073        0      -0.00581042       0.03128922      -0.00520262
In      -0.00630074       4.07403913       6.98965048        1      -0.00581042      -0.03128922       0.00520262
In       2.81981502       1.73764289      15.13300108        2       0.00581042       0.03128922       0.00520262
In       5.63332930       1.16819812       1.15370013        3       0.00581042      -0.03128922      -0.00520262
In       2.81981502       1.16819812       6.98965048        4       0.00581042      -0.03128922       0.00520262
In       5.63332930       1.73764289       9.29705073        5       0.00581042       0.03128922      -0.00520262
In       2.80721354       4.07403913       1.15370013        6      -0.00581042      -0.03128922      -0.00520262
In      -0.00630074       4.64348390      15.13300108        7      -0.00581042       0.03128922       0.00520262
In       2.79508478       4.34507670      13.32605668        8       0.00336981      -0.01688892       0.01535602
In       5.60859906       4.37244634       2.96064453        9       0.00336981       0.01688892      -0.01535602
In       2.83194378       1.43923568      11.10399513       10      -0.00336981      -0.01688892      -0.01535602
In       0.01842950       1.46660533       5.18270608       11      -0.00336981       0.01688892       0.01535602
In       2.83194378       1.46660533       2.96064453       12      -0.00336981       0.01688892      -0.01535602
In       0.01842950       1.43923568      13.32605668       13      -0.00336981      -0.01688892       0.01535602
In       2.79508478       4.37244634       5.18270608       14       0.00336981       0.01688892       0.01535602
In       5.60859906       4.34507670      11.10399513       15       0.00336981      -0.01688892      -0.01535602
O        4.83250151       5.12006606      12.99789303       16       0.00404113      -0.01321848       0.01692272
O        2.01898723       3.59745697       3.28880818       17       0.00404113       0.01321848      -0.01692272
O        0.79452705       2.21422505      11.43215878       18      -0.00404113      -0.01321848      -0.01692272
O        3.60804133       0.69161596       4.85454243       19      -0.00404113       0.01321848       0.01692272
O        0.79452705       0.69161596       3.28880818       20      -0.00404113       0.01321848      -0.01692272
O        3.60804133       2.21422505      12.99789303       21      -0.00404113      -0.01321848       0.01692272
O        4.83250151       3.59745697       4.85454243       22       0.00404113       0.01321848       0.01692272
O        2.01898723       5.12006606      11.43215878       23       0.00404113      -0.01321848      -0.01692272
O        3.96973000       3.06733099      10.16956699       24       0.00798181      -0.00250695       0.00389178
O        1.15621572       5.65019204       6.11713422       25       0.00798181       0.00250695      -0.00389178
O        1.65729856       0.16148998      14.26048482       26      -0.00798181      -0.00250695      -0.00389178
O        4.47081284       2.74435103       2.02621639       27      -0.00798181       0.00250695       0.00389178
O        1.65729856       2.74435103       6.11713422       28      -0.00798181       0.00250695      -0.00389178
O        4.47081284       0.16148998      10.16956699       29      -0.00798181      -0.00250695       0.00389178
O        3.96973000       5.65019204       2.02621639       30       0.00798181       0.00250695       0.00389178
O        1.15621572       3.06733099      14.26048482       31       0.00798181      -0.00250695      -0.00389178
O        3.63708148       3.84213815      15.44181214       32      -0.00336321      -0.00899842       0.00468763
O        0.82356720       4.87538488       0.84488908       33      -0.00336321       0.00899842      -0.00468763
O        1.98994708       0.93629714       8.98823968       34       0.00336321      -0.00899842      -0.00468763
O        4.80346136       1.96954387       7.29846153       35       0.00336321       0.00899842       0.00468763
O        1.98994708       1.96954387       0.84488908       36       0.00336321       0.00899842      -0.00468763
O        4.80346136       0.93629714      15.44181214       37       0.00336321      -0.00899842       0.00468763
O        3.63708148       4.87538488       7.29846153       38      -0.00336321       0.00899842       0.00468763
O        0.82356720       3.84213815       8.98823968       39      -0.00336321      -0.00899842      -0.00468763
40
Lattice="5.628608648254116 4.667306965039455e-43 0.0 -4.535388402296301e-43 5.811397059527392 0.0 0.0 0.0 16.282927531429948" Properties=species:S:1:pos:R:3:spacegroup_kinds:I:1:forces:R:3 spacegroup="P 1" unit_cell=conventional occupancy="_JSON {\"0\": {\"In\": 1}, \"1\": {\"In\": 1}, \"2\": {\"In\": 1}, \"3\": {\"In\": 1}, \"4\": {\"In\": 1}, \"5\": {\"In\": 1}, \"6\": {\"In\": 1}, \"7\": {\"In\": 1}, \"8\": {\"In\": 1}, \"9\": {\"In\": 1}, \"10\": {\"In\": 1}, \"11\": {\"In\": 1}, \"12\": {\"In\": 1}, \"13\": {\"In\": 1}, \"14\": {\"In\": 1}, \"15\": {\"In\": 1}, \"16\": {\"O\": 1}, \"17\": {\"O\": 1}, \"18\": {\"O\": 1}, \"19\": {\"O\": 1}, \"20\": {\"O\": 1}, \"21\": {\"O\": 1}, \"22\": {\"O\": 1}, \"23\": {\"O\": 1}, \"24\": {\"O\": 1}, \"25\": {\"O\": 1}, \"26\": {\"O\": 1}, \"27\": {\"O\": 1}, \"28\": {\"O\": 1}, \"29\": {\"O\": 1}, \"30\": {\"O\": 1}, \"31\": {\"O\": 1}, \"32\": {\"O\": 1}, \"33\": {\"O\": 1}, \"34\": {\"O\": 1}, \"35\": {\"O\": 1}, \"36\": {\"O\": 1}, \"37\": {\"O\": 1}, \"38\": {\"O\": 1}, \"39\": {\"O\": 1}}" n_minim_iter=5 energy=-45150.17747289408 stress="0.018117387144843965 1.0437870179983214e-13 2.260036502968534e-13 1.0437870179983214e-13 0.017930386132177522 1.703594428269018e-13 2.260036502968534e-13 1.703594428269018e-13 0.017868579480462103" free_energy=-45150.17747289408 pbc="T T T"
In       2.80782446       4.64435737       9.29481520        0      -0.00386379       0.00966039      -0.00042735
In      -0.00647987       4.07273822       6.98811233        1      -0.00386379      -0.00966039       0.00042735
In       2.82078419       1.73865884      15.12957610        2       0.00386379       0.00966039       0.00042735
In       5.63508851       1.16703969       1.15335144        3       0.00386379      -0.00966039      -0.00042735
In       2.82078419       1.16703969       6.98811233        4       0.00386379      -0.00966039       0.00042735
In       5.63508851       1.73865884       9.29481520        5       0.00386379       0.00966039      -0.00042735
In       2.80782446       4.07273822       1.15335144        6      -0.00386379      -0.00966039      -0.00042735
In      -0.00647987       4.64435737      15.12957610        7      -0.00386379       0.00966039       0.00042735
In       2.79624224       4.34419312      13.32344235        8      -0.00020241      -0.00622183       0.00616557
In       5.61054656       4.37290247       2.95948518        9      -0.00020241       0.00622183      -0.00616557
In       2.83236641       1.43849459      11.10094895       10       0.00020241      -0.00622183      -0.00616557
In       0.01806208       1.46720394       5.18197859       11       0.00020241       0.00622183       0.00616557
In       2.83236641       1.46720394       2.95948518       12       0.00020241       0.00622183      -0.00616557
In       0.01806208       1.43849459      13.32344235       13       0.00020241      -0.00622183       0.00616557
In       2.79624224       4.37290247       5.18197859       14      -0.00020241       0.00622183       0.00616557
In       5.61054656       4.34419312      11.10094895       15      -0.00020241      -0.00622183      -0.00616557
O        4.83395530       5.11991300      12.99555671       16       0.00262951      -0.01852637       0.00859264
O        2.01965097       3.59718259       3.28737083       17       0.00262951       0.01852637      -0.00859264
O        0.79465335       2.21421447      11.42883459       18      -0.00262951      -0.01852637      -0.00859264
O        3.60895768       0.69148406       4.85409294       19      -0.00262951       0.01852637       0.00859264
O        0.79465335       0.69148406       3.28737083       20      -0.00262951       0.01852637      -0.00859264
O        3.60895768       2.21421447      12.99555671       21      -0.00262951      -0.01852637       0.00859264
O        4.83395530       3.59718259       4.85409294       22       0.00262951       0.01852637       0.00859264
O        2.01965097       5.11991300      11.42883459       23       0.00262951      -0.01852637      -0.00859264
O        3.97173437       3.06699197      10.16738116       24      -0.00722624       0.00340598      -0.00062495
O        1.15743005       5.65010361       6.11554638       25      -0.00722624      -0.00340598       0.00062495
O        1.65687428       0.16129345      14.25701014       26       0.00722624       0.00340598       0.00062495
O        4.47117860       2.74440508       2.02591739       27       0.00722624      -0.00340598      -0.00062495
O        1.65687428       2.74440508       6.11554638       28       0.00722624      -0.00340598       0.00062495
O        4.47117860       0.16129345      10.16738116       29       0.00722624       0.00340598      -0.00062495
O        3.97173437       5.65010361       2.02591739       30      -0.00722624      -0.00340598      -0.00062495
O        1.15743005       3.06699197      14.25701014       31      -0.00722624       0.00340598       0.00062495
O        3.63751837       3.84136749      15.43769159       32       0.00756107       0.00079683       0.01122319
O        0.82321404       4.87572810       0.84523594       33       0.00756107      -0.00079683      -0.01122319
O        1.99109028       0.93566896       8.98669971       34      -0.00756107       0.00079683      -0.01122319
O        4.80539460       1.97002957       7.29622782       35      -0.00756107      -0.00079683       0.01122319
O        1.99109028       1.97002957       0.84523594       36      -0.00756107      -0.00079683      -0.01122319
O        4.80539460       0.93566896      15.43769159       37      -0.00756107       0.00079683       0.01122319
O        3.63751837       4.87572810       7.29622782       38       0.00756107      -0.00079683       0.01122319
O        0.82321404       3.84136749       8.98669971       39       0.00756107       0.00079683      -0.01122319
40