40
Lattice="5.787585901874336 1.3207996216246196e-42 0.0 -1.3665596770099724e-42 5.9881009891602455 0.0 0.0 0.0 17.242550306886564" Properties=species:S:1:pos:R:3:spacegroup_kinds:I:1:forces:R:3 spacegroup="P 1" unit_cell=conventional occupancy="_JSON {\"0\": {\"In\": 1}, \"1\": {\"In\": 1}, \"2\": {\"In\": 1}, \"3\": {\"In\": 1}, \"4\": {\"In\": 1}, \"5\": {\"In\": 1}, \"6\": {\"In\": 1}, \"7\": {\"In\": 1}, \"8\": {\"In\": 1}, \"9\": {\"In\": 1}, \"10\": {\"In\": 1}, \"11\": {\"In\": 1}, \"12\": {\"In\": 1}, \"13\": {\"In\": 1}, \"14\": {\"In\": 1}, \"15\": {\"In\": 1}, \"16\": {\"O\": 1}, \"17\": {\"O\": 1}, \"18\": {\"O\": 1}, \"19\": {\"O\": 1}, \"20\": {\"O\": 1}, \"21\": {\"O\": 1}, \"22\": {\"O\": 1}, \"23\": {\"O\": 1}, \"24\": {\"O\": 1}, \"25\": {\"O\": 1}, \"26\": {\"O\": 1}, \"27\": {\"O\": 1}, \"28\": {\"O\": 1}, \"29\": {\"O\": 1}, \"30\": {\"O\": 1}, \"31\": {\"O\": 1}, \"32\": {\"O\": 1}, \"33\": {\"O\": 1}, \"34\": {\"O\": 1}, \"35\": {\"O\": 1}, \"36\": {\"O\": 1}, \"37\": {\"O\": 1}, \"38\": {\"O\": 1}, \"39\": {\"O\": 1}}" n_minim_iter=1 energy=-45147.25210665599 stress="0.06155870000831546 -1.983948435927823e-14 1.337262937645841e-13 -1.983948435927823e-14 0.061476197673161447 -2.4869138145325653e-13 1.337262937645841e-13 -2.4869138145325653e-13 0.05943698797004198" free_energy=-45147.25210665599 pbc="T T T"
In       2.80997296       4.95100307       9.96919656        0      -0.05487683       0.05335053       0.03357821
In      -0.08381999       4.03114842       7.27335375        1      -0.05487683      -0.05335053      -0.03357821
In       2.97761294       1.95695257      15.89462890        2       0.05487683       0.05335053      -0.03357821
In       5.87140589       1.03709792       1.34792141        3       0.05487683      -0.05335053       0.03357821
In       2.97761294       1.03709792       7.27335375        4       0.05487683      -0.05335053      -0.03357821
In       5.87140589       1.95695257       9.96919656        5       0.05487683       0.05335053       0.03357821
In       2.80997296       4.03114842       1.34792141        6      -0.05487683      -0.05335053       0.03357821
In      -0.08381999       4.95100307      15.89462890        7      -0.05487683       0.05335053      -0.03357821
In       2.80531880       4.62332979      14.02867617        8      -0.05073307       0.01749887      -0.01388105
In       5.69911175       4.35882170       3.21387413        9      -0.05073307      -0.01749887       0.01388105
In       2.98226710       1.62927929      11.83514929       10       0.05073307       0.01749887       0.01388105
In       0.08847415       1.36477120       5.40740102       11       0.05073307      -0.01749887      -0.01388105
In       2.98226710       1.36477120       3.21387413       12       0.05073307      -0.01749887       0.01388105
In       0.08847415       1.62927929      14.02867617       13       0.05073307       0.01749887      -0.01388105
In       2.80531880       4.35882170       5.40740102       14      -0.05073307      -0.01749887      -0.01388105
In       5.69911175       4.62332979      11.83514929       15      -0.05073307       0.01749887       0.01388105
O        4.91097090       5.41227320      13.76248111       16       0.02375320      -0.02388500       0.03440916
O        2.01717794       3.56987829       3.48006920       17       0.02375320       0.02388500      -0.03440916
O        0.87661501       2.41822270      12.10134435       18      -0.02375320      -0.02388500      -0.03440916
O        3.77040796       0.57582779       5.14120596       19      -0.02375320       0.02388500       0.03440916
O        0.87661501       0.57582779       3.48006920       20      -0.02375320       0.02388500      -0.03440916
O        3.77040796       2.41822270      13.76248111       21      -0.02375320      -0.02388500       0.03440916
O        4.91097090       3.56987829       5.14120596       22       0.02375320       0.02388500       0.03440916
O        2.01717794       5.41227320      12.10134435       23       0.02375320      -0.02388500      -0.03440916
O        4.06004983       3.32921222      10.87746854       24       0.02611287       0.01851349       0.03784747
O        1.16625688       5.65293926       6.36508177       25       0.02611287      -0.01851349      -0.03784747
O        1.72753607       0.33516173      14.98635692       26      -0.02611287       0.01851349      -0.03784747
O        4.62132902       2.65888877       2.25619338       27      -0.02611287      -0.01851349       0.03784747
O        1.72753607       2.65888877       6.36508177       28      -0.02611287      -0.01851349      -0.03784747
O        4.62132902       0.33516173      10.87746854       29      -0.02611287       0.01851349       0.03784747
O        4.06004983       5.65293926       2.25619338       30       0.02611287      -0.01851349       0.03784747
O        1.16625688       3.32921222      14.98635692       31       0.02611287       0.01851349      -0.03784747
O        3.70449940       4.06774800      16.34715811       32       0.01324329      -0.02374856      -0.03585672
O        0.81070645       4.91440348       0.89539219       33       0.01324329       0.02374856       0.03585672
O        2.08308650       1.07369751       9.51666735       34      -0.01324329      -0.02374856       0.03585672
O        4.97687945       1.92035299       7.72588296       35      -0.01324329       0.02374856      -0.03585672
O        2.08308650       1.92035299       0.89539219       36      -0.01324329       0.02374856       0.03585672
O        4.97687945       1.07369751      16.34715811       37      -0.01324329      -0.02374856      -0.03585672
O        3.70449940       4.91440348       7.72588296       38       0.01324329       0.02374856      -0.03585672
O        0.81070645       4.06774800       9.51666735       39       0.01324329      -0.02374856       0.03585672
40
Lattice="5.781832718558106 1.3197865299594589e-42 0.0 -1.3660119591469091e-42 5.98281658318372 0.0 0.0 0.0 17.274952295785386" Properties=species:S:1:pos:R:3:spacegroup_kinds:I:1:forces:R:3 spacegroup="P 1" unit_cell=conventional occupancy="_JSON {\"0\": {\"In\": 1}, \"1\": {\"In\": 1}, \"2\": {\"In\": 1}, \"3\": {\"In\": 1}, \"4\": {\"In\": 1}, \"5\": {\"In\": 1}, \"6\": {\"In\": 1}, \"7\": {\"In\": 1}, \"8\": {\"In\": 1}, \"9\": {\"In\": 1}, \"10\": {\"In\": 1}, \"11\": {\"In\": 1}, \"12\": {\"In\": 1}, \"13\": {\"In\": 1}, \"14\": {\"In\": 1}, \"15\": {\"In\": 1}, \"16\": {\"O\": 1}, \"17\": {\"O\": 1}, \"18\": {\"O\": 1}, \"19\": {\"O\": 1}, \"20\": {\"O\": 1}, \"21\": {\"O\": 1}, \"22\": {\"O\": 1}, \"23\": {\"O\": 1}, \"24\": {\"O\": 1}, \"25\": {\"O\": 1}, \"26\": {\"O\": 1}, \"27\": {\"O\": 1}, \"28\": {\"O\": 1}, \"29\": {\"O\": 1}, \"30\": {\"O\": 1}, \"31\": {\"O\": 1}, \"32\": {\"O\": 1}, \"33\": {\"O\": 1}, \"34\": {\"O\": 1}, \"35\": {\"O\": 1}, \"36\": {\"O\": 1}, \"37\": {\"O\": 1}, \"38\": {\"O\": 1}, \"39\": {\"O\": 1}}" n_minim_iter=2 energy=-45147.25341074197 stress="0.060600167081198454 8.700644421815863e-14 -1.4821837247202368e-13 8.700644421815863e-14 0.0604759387687901 5.83564299852968e-14 -1.4821837247202368e-13 5.83564299852968e-14 0.06083954230631332" free_energy=-45147.25341074197 pbc="T T T"
In       2.80705551       4.94675463       9.98800676        0      -0.04931113       0.05630935       0.02980604
In      -0.08386085       4.02747025       7.28694554        1      -0.04931113      -0.05630935      -0.02980604
In       2.97477721       1.95534634      15.92442169        2       0.04931113       0.05630935      -0.02980604
In       5.86569357       1.03606196       1.35053061        3       0.04931113      -0.05630935       0.02980604
In       2.97477721       1.03606196       7.28694554        4       0.04931113      -0.05630935      -0.02980604
In       5.86569357       1.95534634       9.98800676        5       0.04931113       0.05630935       0.02980604
In       2.80705551       4.02747025       1.35053061        6      -0.04931113      -0.05630935       0.02980604
In      -0.08386085       4.94675463      15.92442169        7      -0.04931113       0.05630935      -0.02980604
In       2.80241535       4.61928938      14.05500719        8      -0.04873420       0.02172291      -0.02050020
In       5.69333171       4.35493550       3.21994511        9      -0.04873420      -0.02172291       0.02050020
In       2.97941737       1.62788108      11.85742126       10       0.04873420       0.02172291       0.02050020
In       0.08850101       1.36352721       5.41753104       11       0.04873420      -0.02172291      -0.02050020
In       2.97941737       1.36352721       3.21994511       12       0.04873420      -0.02172291       0.02050020
In       0.08850101       1.62788108      14.05500719       13       0.04873420       0.02172291      -0.02050020
In       2.80241535       4.35493550       5.41753104       14      -0.04873420      -0.02172291      -0.02050020
In       5.69333171       4.61928938      11.85742126       15      -0.04873420       0.02172291       0.02050020
O        4.90614287       5.40744289      13.78842149       16       0.03002182      -0.02294268       0.02678514
O        2.01522651       3.56678198       3.48653081       17       0.03002182       0.02294268      -0.02678514
O        0.87568985       2.41603460      12.12400696       18      -0.03002182      -0.02294268      -0.02678514
O        3.76660621       0.57537369       5.15094534       19      -0.03002182       0.02294268       0.02678514
O        0.87568985       0.57537369       3.48653081       20      -0.03002182       0.02294268      -0.02678514
O        3.76660621       2.41603460      13.78842149       21      -0.03002182      -0.02294268       0.02678514
O        4.90614287       3.56678198       5.15094534       22       0.03002182       0.02294268       0.02678514
O        2.01522651       5.40744289      12.12400696       23       0.03002182      -0.02294268      -0.02678514
O        4.05607301       3.32631614      10.89799523       24       0.02410549       0.01517672       0.04527245
O        1.16515665       5.64790873       6.37695706       25       0.02410549      -0.01517672      -0.04527245
O        1.72575971       0.33490785      15.01443321       26      -0.02410549       0.01517672      -0.04527245
O        4.61667607       2.65650044       2.26051909       27      -0.02410549      -0.01517672       0.04527245
O        1.72575971       2.65650044       6.37695706       28      -0.02410549      -0.01517672      -0.04527245
O        4.61667607       0.33490785      10.89799523       29      -0.02410549       0.01517672       0.04527245
O        4.05607301       5.64790873       2.26051909       30       0.02410549      -0.01517672       0.04527245
O        1.16515665       3.32631614      15.01443321       31       0.02410549       0.01517672      -0.04527245
O        3.70084689       4.06410453      16.37779612       32       0.01194544      -0.02151369      -0.03761701
O        0.80993053       4.91012035       0.89715618       33       0.01194545       0.02151369       0.03761701
O        2.08098583       1.07269624       9.53463233       34      -0.01194544      -0.02151369       0.03761701
O        4.97190219       1.91871205       7.74031997       35      -0.01194545       0.02151369      -0.03761701
O        2.08098583       1.91871205       0.89715618       36      -0.01194544       0.02151369       0.03761701
O        4.97190219       1.07269624      16.37779612       37      -0.01194544      -0.02151369      -0.03761701
O        3.70084689       4.91012035       7.74031997       38       0.01194544       0.02151369      -0.03761701
O        0.80993053       4.06410453       9.53463233       39       0.01194544      -0.02151369       0.03761701
40
Lattice="5.769368147453681 1.3466473926365355e-42 0.0 -1.369197466923067e-42 5.995870408427177 0.0 0.0 0.0 17.274583209149853" Properties=species:S:1:pos:R:3:spacegroup_kinds:I:1:forces:R:3 spacegroup="P 1" unit_cell=conventional occupancy="_JSON {\"0\": {\"In\": 1}, \"1\": {\"In\": 1}, \"2\": {\"In\": 1}, \"3\": {\"In\": 1}, \"4\": {\"In\": 1}, \"5\": {\"In\": 1}, \"6\": {\"In\": 1}, \"7\": {\"In\": 1}, \"8\": {\"In\": 1}, \"9\": {\"In\": 1}, \"10\": {\"In\": 1}, \"11\": {\"In\": 1}, \"12\": {\"In\": 1}, \"13\": {\"In\": 1}, \"14\": {\"In\": 1}, \"15\": {\"In\": 1}, \"16\": {\"O\": 1}, \"17\": {\"O\": 1}, \"18\": {\"O\": 1}, \"19\": {\"O\": 1}, \"20\": {\"O\": 1}, \"21\": {\"O\": 1}, \"22\": {\"O\": 1}, \"23\": {\"O\": 1}, \"24\": {\"O\": 1}, \"25\": {\"O\": 1}, \"26\": {\"O\": 1}, \"27\": {\"O\": 1}, \"28\": {\"O\": 1}, \"29\": {\"O\": 1}, \"30\": {\"O\": 1}, \"31\": {\"O\": 1}, \"32\": {\"O\": 1}, \"33\": {\"O\": 1}, \"34\": {\"O\": 1}, \"35\": {\"O\": 1}, \"36\": {\"O\": 1}, \"37\": {\"O\": 1}, \"38\": {\"O\": 1}, \"39\": {\"O\": 1}}" n_minim_iter=3 energy=-45147.25757393051 stress="0.058130838798184495 -3.867319495383449e-14 8.08886606379154e-14 -3.867319495383449e-14 0.06193119654714601 -2.291586827093837e-13 8.08886606379154e-14 -2.291586827093837e-13 0.05999789789201203" free_energy=-45147.25757393051 pbc="T T T"
In       2.79796450       4.96096275       9.98964753        0      -0.02352498       0.03990291       0.02434900
In      -0.08671957       4.03284286       7.28493568        1      -0.02352498      -0.03990291      -0.02434900
In       2.97140365       1.96302755      15.92222728        2       0.02352498       0.03990291      -0.02434900
In       5.85608772       1.03490766       1.35235593        3       0.02352498      -0.03990291       0.02434900
In       2.97140365       1.03490766       7.28493568        4       0.02352498      -0.03990291      -0.02434900
In       5.85608772       1.96302755       9.98964753        5       0.02352498       0.03990291       0.02434900
In       2.79796450       4.03284286       1.35235593        6      -0.02352498      -0.03990291       0.02434900
In      -0.08671957       4.96096275      15.92222728        7      -0.02352498       0.03990291      -0.02434900
In       2.79339679       4.63066175      14.05350270        8      -0.03575725       0.01102165      -0.02117015
In       5.67808086       4.36314386       3.22108051        9      -0.03575725      -0.01102165       0.02117015
In       2.97597136       1.63272655      11.85837211       10       0.03575725       0.01102165       0.02117015
In       0.09128728       1.36520866       5.41621110       11       0.03575725      -0.01102165      -0.02117015
In       2.97597136       1.36520866       3.22108051       12       0.03575725      -0.01102165       0.02117015
In       0.09128728       1.63272655      14.05350270       13       0.03575725       0.01102165      -0.02117015
In       2.79339679       4.36314386       5.41621110       14      -0.03575725      -0.01102165      -0.02117015
In       5.67808086       4.63066175      11.85837211       15      -0.03575725       0.01102165       0.02117015
O        4.89734252       5.41783340      13.78982581       16      -0.00447775      -0.01868204       0.00876464
O        2.01265845       3.57597221       3.48475740       17      -0.00447775       0.01868204      -0.00876464
O        0.87202563       2.41989820      12.12204901       18       0.00447775      -0.01868204      -0.00876464
O        3.75670970       0.57803701       5.15253420       19       0.00447775       0.01868204       0.00876464
O        0.87202563       0.57803701       3.48475740       20       0.00447775       0.01868204      -0.00876464
O        3.75670970       2.41989820      13.78982581       21       0.00447775      -0.01868204       0.00876464
O        4.89734252       3.57597221       5.15253420       22      -0.00447775       0.01868204       0.00876464
O        2.01265845       5.41783340      12.12204901       23      -0.00447775      -0.01868204      -0.00876464
O        4.04880923       3.33452605      10.90047722       24      -0.00176940       0.02236519       0.03173480
O        1.16412515       5.65927956       6.37410599       25      -0.00176940      -0.02236519      -0.03173480
O        1.72055892       0.33659085      15.01139760       26       0.00176940       0.02236519      -0.03173480
O        4.60524299       2.66134435       2.26318561       27       0.00176940      -0.02236519       0.03173480
O        1.72055892       2.66134435       6.37410599       28       0.00176940      -0.02236519      -0.03173480
O        4.60524299       0.33659085      10.90047722       29       0.00176940       0.02236519       0.03173480
O        4.04880923       5.65927956       2.26318561       30      -0.00176940      -0.02236519       0.03173480
O        1.16412515       3.33452605      15.01139760       31      -0.00176940       0.02236519      -0.03173480
O        3.69360447       4.07164130      16.37515643       32       0.00788747      -0.01392502      -0.02124224
O        0.80892039       4.92216431       0.89942678       33       0.00788747       0.01392502       0.02124224
O        2.07576368       1.07370610       9.53671838       34      -0.00788747      -0.01392502       0.02124224
O        4.96044775       1.92422911       7.73786483       35      -0.00788747       0.01392502      -0.02124224
O        2.07576368       1.92422911       0.89942678       36      -0.00788747       0.01392502       0.02124224
O        4.96044775       1.07370610      16.37515643       37      -0.00788747      -0.01392502      -0.02124224
O        3.69360447       4.92216431       7.73786483       38       0.00788747       0.01392502      -0.02124224
O        0.80892039       4.07164130       9.53671838       39       0.00788747      -0.01392502       0.02124224
40
Lattice="5.78151370532508 1.3526503195517645e-42 0.0 -1.3621044104473745e-42 5.98386198846273 0.0 0.0 0.0 17.27288732401969" Properties=species:S:1:pos:R:3:spacegroup_kinds:I:1:forces:R:3 spacegroup="P 1" unit_cell=conventional occupancy="_JSON {\"0\": {\"In\": 1}, \"1\": {\"In\": 1}, \"2\": {\"In\": 1}, \"3\": {\"In\": 1}, \"4\": {\"In\": 1}, \"5\": {\"In\": 1}, \"6\": {\"In\": 1}, \"7\": {\"In\": 1}, \"8\": {\"In\": 1}, \"9\": {\"In\": 1}, \"10\": {\"In\": 1}, \"11\": {\"In\": 1}, \"12\": {\"In\": 1}, \"13\": {\"In\": 1}, \"14\": {\"In\": 1}, \"15\": {\"In\": 1}, \"16\": {\"O\": 1}, \"17\": {\"O\": 1}, \"18\": {\"O\": 1}, \"19\": {\"O\": 1}, \"20\": {\"O\": 1}, \"21\": {\"O\": 1}, \"22\": {\"O\": 1}, \"23\": {\"O\": 1}, \"24\": {\"O\": 1}, \"25\": {\"O\": 1}, \"26\": {\"O\": 1}, \"27\": {\"O\": 1}, \"28\": {\"O\": 1}, \"29\": {\"O\": 1}, \"30\": {\"O\": 1}, \"31\": {\"O\": 1}, \"32\": {\"O\": 1}, \"33\": {\"O\": 1}, \"34\": {\"O\": 1}, \"35\": {\"O\": 1}, \"36\": {\"O\": 1}, \"37\": {\"O\": 1}, \"38\": {\"O\": 1}, \"39\": {\"O\": 1}}" n_minim_iter=4 energy=-45147.26360097135 stress="0.05918937980678058 -1.780457374663234e-13 1.9388999525562267e-13 -1.780457374663234e-13 0.059279095255857533 3.610499293742802e-13 1.9388999525562267e-13 3.610499293742802e-13 0.05906842820628099" free_energy=-45147.26360097135 pbc="T T T"
In       2.79943297       4.95603766       9.99140421        0      -0.00615799      -0.01629230       0.02659090
In      -0.09132388       4.01975533       7.28148312        1      -0.00615799       0.01629230      -0.02659090
In       2.98208074       1.96410666      15.91792678        2       0.00615799      -0.01629230      -0.02659090
In       5.87283759       1.02782433       1.35496054        3       0.00615799       0.01629230       0.02659090
In       2.98208074       1.02782433       7.28148312        4       0.00615799       0.01629230      -0.02659090
In       5.87283759       1.96410666       9.99140421        5       0.00615799      -0.01629230       0.02659090
In       2.79943297       4.01975533       1.35496054        6      -0.00615799       0.01629230       0.02659090
In      -0.09132388       4.95603766      15.91792678        7      -0.00615799      -0.01629230      -0.02659090
In       2.79488882       4.62326757      14.05031974        8       0.00175124       0.01314750      -0.02699521
In       5.68564567       4.35252541       3.22256758        9       0.00175124      -0.01314750       0.02699521
In       2.98662489       1.63133658      11.85901125       10      -0.00175124       0.01314750       0.02699521
In       0.09586803       1.36059442       5.41387608       11      -0.00175124      -0.01314750      -0.02699521
In       2.98662489       1.36059442       3.22256758       12      -0.00175124      -0.01314750       0.02699521
In       0.09586803       1.63133658      14.05031974       13      -0.00175124       0.01314750      -0.02699521
In       2.79488882       4.35252541       5.41387608       14       0.00175124      -0.01314750      -0.02699521
In       5.68564567       4.62326757      11.85901125       15       0.00175124       0.01314750       0.02699521
O        4.91015582       5.40490704      13.79091823       16      -0.04148420      -0.01097003      -0.00460674
O        2.01939897       3.57088594       3.48196910       17      -0.04148420       0.01097003       0.00460674
O        0.87135788       2.41297605      12.11841276       18       0.04148420      -0.01097003       0.00460674
O        3.76211474       0.57895495       5.15447456       19       0.04148420       0.01097003      -0.00460674
O        0.87135788       0.57895495       3.48196910       20       0.04148420       0.01097003       0.00460674
O        3.76211474       2.41297605      13.79091823       21       0.04148420      -0.01097003      -0.00460674
O        4.91015582       3.57088594       5.15447456       22      -0.04148420       0.01097003      -0.00460674
O        2.01939897       5.40490704      12.11841276       23      -0.04148420      -0.01097003       0.00460674
O        4.05942688       3.32929522      10.90339906       24      -0.01955683       0.03636971      -0.00202440
O        1.16867003       5.64649776       6.36948826       25      -0.01955683      -0.03636971       0.00202440
O        1.72208683       0.33736423      15.00593192       26       0.01955683       0.03636971       0.00202440
O        4.61284368       2.65456677       2.26695540       27       0.01955683      -0.03636971      -0.00202440
O        1.72208683       2.65456677       6.36948826       28       0.01955683      -0.03636971       0.00202440
O        4.61284368       0.33736423      10.90339906       29       0.01955683       0.03636971      -0.00202440
O        4.05942688       5.64649776       2.26695540       30      -0.01955683      -0.03636971      -0.00202440
O        1.16867003       3.32929522      15.00593192       31      -0.01955683       0.03636971       0.00202440
O        3.70246062       4.06154204      16.37020753       32       0.00609916       0.02149941      -0.01310991
O        0.81170377       4.91425095       0.90267979       33       0.00609916      -0.02149941       0.01310991
O        2.07905308       1.06961104       9.53912345       34      -0.00609916       0.02149941       0.01310991
O        4.96980993       1.92231995       7.73376387       35      -0.00609916      -0.02149941      -0.01310991
O        2.07905308       1.92231995       0.90267979       36      -0.00609916      -0.02149941       0.01310991
O        4.96980993       1.06961104      16.37020753       37      -0.00609916       0.02149941      -0.01310991
O        3.70246062       4.91425095       7.73376387       38       0.00609916      -0.02149941      -0.01310991
O        0.81170377       4.06154204       9.53912345       39       0.00609916       0.02149941       0.01310991
40
Lattice="5.783039122811724 1.023566350240247e-42 0.0 -1.732009186544032e-42 5.975767722726004 0.0 0.0 0.0 17.29172138899908" Properties=species:S:1:pos:R:3:spacegroup_kinds:I:1:forces:R:3 spacegroup="P 1" unit_cell=conventional occupancy="_JSON {\"0\": {\"In\": 1}, \"1\": {\"In\": 1}, \"2\": {\"In\": 1}, \"3\": {\"In\": 1}, \"4\": {\"In\": 1}, \"5\": {\"In\": 1}, \"6\": {\"In\": 1}, \"7\": {\"In\": 1}, \"8\": {\"In\": 1}, \"9\": {\"In\": 1}, \"10\": {\"In\": 1}, \"11\": {\"In\": 1}, \"12\": {\"In\": 1}, \"13\": {\"In\": 1}, \"14\": {\"In\": 1}, \"15\": {\"In\": 1}, \"16\": {\"O\": 1}, \"17\": {\"O\": 1}, \"18\": {\"O\": 1}, \"19\": {\"O\": 1}, \"20\": {\"O\": 1}, \"21\": {\"O\": 1}, \"22\": {\"O\": 1}, \"23\": {\"O\": 1}, \"24\": {\"O\": 1}, \"25\": {\"O\": 1}, \"26\": {\"O\": 1}, \"27\": {\"O\": 1}, \"28\": {\"O\": 1}, \"29\": {\"O\": 1}, \"30\": {\"O\": 1}, \"31\": {\"O\": 1}, \"32\": {\"O\": 1}, \"33\": {\"O\": 1}, \"34\": {\"O\": 1}, \"35\": {\"O\": 1}, \"36\": {\"O\": 1}, \"37\": {\"O\": 1}, \"38\": {\"O\": 1}, \"39\": {\"O\": 1}}" n_minim_iter=5 energy=-45147.26719040112 stress="0.05857327267728519 2.2485755302614792e-13 -4.316736037024564e-15 2.2485755302614792e-13 0.05757234105628641 -4.4562521951498965e-13 -4.316736037024564e-15 -4.4562521951498965e-13 0.05955254943523407" free_energy=-45147.26719040112 pbc="T T T"
In       2.79658041       4.95007987      10.00778903        0       0.00009661       0.00134276      -0.00678842
In      -0.09493915       4.01357171       7.28393236        1       0.00009661      -0.00134276       0.00678842
In       2.98645871       1.96219601      15.92979305        2      -0.00009661       0.00134276       0.00678842
In       5.87797827       1.02568785       1.36192834        3      -0.00009661      -0.00134276      -0.00678842
In       2.98645871       1.02568785       7.28393236        4      -0.00009661      -0.00134276       0.00678842
In       5.87797827       1.96219601      10.00778903        5      -0.00009661       0.00134276      -0.00678842
In       2.79658041       4.01357171       1.36192834        6       0.00009661      -0.00134276      -0.00678842
In      -0.09493915       4.95007987      15.92979305        7       0.00009661       0.00134276       0.00678842
In       2.79321001       4.62010719      14.06058846        8       0.00095022       0.00864833       0.01235628
In       5.68472958       4.34354440       3.23113293        9       0.00095022      -0.00864833      -0.01235628
In       2.98982911       1.63222333      11.87699362       10      -0.00095022       0.00864833      -0.01235628
In       0.09830955       1.35566054       5.41472777       11      -0.00095022      -0.00864833       0.01235628
In       2.98982911       1.35566054       3.23113293       12      -0.00095022      -0.00864833      -0.01235628
In       0.09830955       1.63222333      14.06058846       13      -0.00095022       0.00864833       0.01235628
In       2.79321001       4.34354440       5.41472777       14       0.00095022      -0.00864833       0.01235628
In       5.68472958       4.62010719      11.87699362       15       0.00095022       0.00864833      -0.01235628
O        4.90715704       5.39476434      13.80676142       16      -0.02583576       0.01412449      -0.00653832
O        2.01563748       3.56888724       3.48495997       17      -0.02583576      -0.01412449       0.00653832
O        0.87588208       2.40688048      12.13082067       18       0.02583576       0.01412449       0.00653832
O        3.76740165       0.58100338       5.16090072       19       0.02583576      -0.01412449      -0.00653832
O        0.87588208       0.58100338       3.48495997       20       0.02583576      -0.01412449       0.00653832
O        3.76740165       2.40688048      13.80676142       21       0.02583576       0.01412449      -0.00653832
O        4.90715704       3.56888724       5.16090072       22      -0.02583576      -0.01412449      -0.00653832
O        2.01563748       5.39476434      12.13082067       23      -0.02583576       0.01412449       0.00653832
O        4.05901594       3.33084026      10.91750827       24       0.00245440       0.00691914       0.01449321
O        1.16749638       5.63281132       6.37421312       25       0.00245440      -0.00691914      -0.01449321
O        1.72402318       0.34295640      15.02007381       26      -0.00245440       0.00691914      -0.01449321
O        4.61554275       2.64492746       2.27164758       27      -0.00245440      -0.00691914       0.01449321
O        1.72402318       2.64492746       6.37421312       28      -0.00245440      -0.00691914      -0.01449321
O        4.61554275       0.34295640      10.91750827       29      -0.00245440       0.00691914       0.01449321
O        4.05901594       5.63281132       2.27164758       30       0.00245440      -0.00691914       0.01449321
O        1.16749638       3.33084026      15.02007381       31       0.00245440       0.00691914      -0.01449321
O        3.70496924       4.05796592      16.38407208       32      -0.01371123       0.01943933      -0.02286898
O        0.81344968       4.90568567       0.90764931       33      -0.01371123      -0.01943933       0.02286898
O        2.07806989       1.07008206       9.55351000       34       0.01371123       0.01943933       0.02286898
O        4.96958945       1.91780181       7.73821139       35       0.01371123      -0.01943933      -0.02286898
O        2.07806989       1.91780181       0.90764931       36       0.01371123      -0.01943933       0.02286898
O        4.96958945       1.07008206      16.38407208       37       0.01371123       0.01943933      -0.02286898
O        3.70496924       4.90568567       7.73821139       38      -0.01371123      -0.01943933      -0.02286898
O        0.81344968       4.05796592       9.55351000       39      -0.01371123       0.01943933       0.02286898
40