1
Lattice="3.585567464903244 0.31507202972880144 -3.0331998857137176e-10 0.5624728871850787 3.5551636643721176 -7.400751259565355e-10 -2.0740201758951846 -1.9351178466127898 2.215699361147739" Properties=species:S:1:pos:R:3:spacegroup_kinds:I:1:forces:R:3 spacegroup="P 1" unit_cell=conventional occupancy="_JSON {\"0\": {\"In\": 1}}" n_minim_iter=2 energy=-1969.9104132548703 stress="-0.12361883967554806 -0.0011650719764042762 5.432044174514306e-13 -0.0011650719764042762 -0.12345718327709809 6.393154950698012e-13 5.432044174514306e-13 6.393154950698012e-13 -0.12237013908638851" free_energy=-1969.9104132548703 pbc="T T T"
In       0.00000000       0.00000000       0.00000000        0       0.00000000      -0.00000000      -0.00000000
