1
Lattice="3.8857196445560342 0.5523826333292746 -3.7037581349260875e-10 0.8199879186589715 3.838171901171934 -8.132875168698033e-10 -2.352853781456424 -2.195277266806765 2.246949161556637" Properties=species:S:1:pos:R:3:spacegroup_kinds:I:1:forces:R:3 spacegroup="P 1" unit_cell=conventional occupancy="_JSON {\"0\": {\"In\": 1}}" n_minim_iter=2 energy=-1969.9995032394454 stress="0.024709749347613958 0.005456744320125328 -2.1707579109835324e-13 0.005456744320125328 0.023952613610974425 -2.716619397040024e-12 -2.1707579109835324e-13 -2.716619397040024e-12 0.018861321133346827" free_energy=-1969.9995032394454 pbc="T T T"
In       0.00000000       0.00000000       0.00000000        0      -0.00000000       0.00000000       0.00000000
