1
Lattice="4.15635481110334 0.657015742797663 -4.0924488496071846e-10 0.9431007334895561 4.10091648397737 -8.734618707693263e-10 -2.549727772138098 -2.3789661129223205 2.3550718722834767" Properties=species:S:1:pos:R:3:spacegroup_kinds:I:1:forces:R:3 spacegroup="P 1" unit_cell=conventional occupancy="_JSON {\"0\": {\"In\": 1}}" n_minim_iter=1 energy=-1969.7213493292643 stress="0.061896272730393324 0.0035026770983943314 -1.7612226203960021e-12 0.0035026770983943314 0.06141026828138671 -2.998635162711953e-12 -1.7612226203960021e-12 -2.998635162711953e-12 0.05814217424507724" free_energy=-1969.7213493292643 pbc="T T T"
In       0.00000000       0.00000000       0.00000000        0       0.00000000      -0.00000000      -0.00000000
