1
Lattice="3.4527172441972747 0.24184941880810204 -2.7991995720335806e-10 0.48023131927140333 3.427699722809144 -7.093662669563257e-10 -1.9664742815878575 -1.8347745703782812 2.1786070516506078" Properties=species:S:1:pos:R:3:spacegroup_kinds:I:1:forces:R:3 spacegroup="P 1" unit_cell=conventional occupancy="_JSON {\"0\": {\"In\": 1}}" n_minim_iter=1 energy=-1969.0779468004494 stress="-0.4572444398938565 -0.017570140187333924 4.31086386710934e-12 -0.017570140187333924 -0.45480654281613153 3.5530863637830307e-12 4.31086386710934e-12 3.5530863637830307e-12 -0.4384131189551598" free_energy=-1969.0779468004494 pbc="T T T"
In       0.00000000       0.00000000       0.00000000        0      -0.00000000       0.00000000      -0.00000000
1
Lattice="3.6872075387357692 0.6960942434672692 -3.8541331198807254e-10 0.9496159461960968 3.630189552107196 -7.809226423078146e-10 -2.318411742331026 -2.163141897390899 2.0064472966594136" Properties=species:S:1:pos:R:3:spacegroup_kinds:I:1:forces:R:3 spacegroup="P 1" unit_cell=conventional occupancy="_JSON {\"0\": {\"In\": 1}}" n_minim_iter=2 energy=-1969.3562397650571 stress="-0.18056282286655156 -0.001736436288825046 4.856841971533126e-13 -0.001736436288825046 -0.18032188836631513 8.397788642507815e-13 4.856841971533126e-13 8.397788642507815e-13 -0.1787017455669133" free_energy=-1969.3562397650571 pbc="T T T"
In       0.00000000       0.00000000       0.00000000        0      -0.00000000       0.00000000       0.00000000
