1
Lattice="3.6807723607714706 0.38239491894808864 -3.2302061068304684e-10 0.6362234552687405 3.645480868256258 -7.628718283266915e-10 -2.1584979078700703 -2.0139378931613976 2.231423758515099" Properties=species:S:1:pos:R:3:spacegroup_kinds:I:1:forces:R:3 spacegroup="P 1" unit_cell=conventional occupancy="_JSON {\"0\": {\"In\": 1}}" n_minim_iter=2 energy=-1970.0241632162824 stress="-0.02852349022550286 -0.00022257260425332412 -2.896797930957058e-13 -0.00022257260425332412 -0.02849260776482388 -1.1186693743820526e-12 -2.896797930957058e-13 -1.1186693743820526e-12 -0.028284941415952634" free_energy=-1970.0241632162824 pbc="T T T"
In       0.00000000       0.00000000       0.00000000        0      -0.00000000      -0.00000000      -0.00000000
