1
Lattice="3.6111608581135 0.6817376725230417 -3.774673037534508e-10 0.9300306259190214 3.5553188369203728 -7.648165557334024e-10 -2.2705957418841356 -2.118528254333546 1.9650653958167006" Properties=species:S:1:pos:R:3:spacegroup_kinds:I:1:forces:R:3 spacegroup="P 1" unit_cell=conventional occupancy="_JSON {\"0\": {\"In\": 1}}" n_minim_iter=1 energy=-1969.195107915929 stress="-0.23595046770081318 0.00844024064050834 -2.581526443712387e-12 0.00844024064050834 -0.23712157036521506 -2.4086863069356758e-12 -2.581526443712387e-12 -2.4086863069356758e-12 -0.24499654693829281" free_energy=-1969.195107915929 pbc="T T T"
In       0.00000000       0.00000000       0.00000000        0       0.00000000       0.00000000       0.00000000
