1
Lattice="3.648197445672326 0.3790107156347194 -3.201620709563363e-10 0.6305928639123333 3.6132182836301023 -7.561226984902803e-10 -2.1393951546436223 -1.996114499195536 2.2116756099312505" Properties=species:S:1:pos:R:3:spacegroup_kinds:I:1:forces:R:3 spacegroup="P 1" unit_cell=conventional occupancy="_JSON {\"0\": {\"In\": 1}}" n_minim_iter=1 energy=-1969.9829063995394 stress="-0.07573175085235137 0.009649452686579187 -2.108203507564624e-12 0.009649452686579187 -0.07707063445105301 -2.9558552443101105e-12 -2.108203507564624e-12 -2.9558552443101105e-12 -0.08607383911363255" free_energy=-1969.9829063995394 pbc="T T T"
In       0.00000000       0.00000000       0.00000000        0      -0.00000000      -0.00000000       0.00000000
