1
Lattice="4.0129164487748135 0.6343417251899269 -3.9511913467790983e-10 0.9105537467979508 3.959391332434395 -8.433215674953671e-10 -2.4617350976334973 -2.2968665283630187 2.273796892673002" Properties=species:S:1:pos:R:3:spacegroup_kinds:I:1:forces:R:3 spacegroup="P 1" unit_cell=conventional occupancy="_JSON {\"0\": {\"In\": 1}}" n_minim_iter=2 energy=-1969.9477511062337 stress="0.040274366283792856 0.0045683349801260865 -2.3271093009007546e-12 0.0045683349801260865 0.03964049937188958 2.5027136214276618e-14 -2.3271093009007546e-12 2.5027136214276618e-14 0.03537811722380571" free_energy=-1969.9477511062337 pbc="T T T"
In       0.00000000       0.00000000       0.00000000        0       0.00000000       0.00000000      -0.00000000
