1
Lattice="4.128458971853257 0.6526061083032988 -4.064981922350913e-10 0.9367710076471475 4.073392725247859 -8.675995339272052e-10 -2.532614989592915 -2.3629994163135053 2.3392655445378017" Properties=species:S:1:pos:R:3:spacegroup_kinds:I:1:forces:R:3 spacegroup="P 1" unit_cell=conventional occupancy="_JSON {\"0\": {\"In\": 1}}" n_minim_iter=1 energy=-1969.7213493292643 stress="0.061896272730393324 0.0035026770983943314 -1.7612226203960021e-12 0.0035026770983943314 0.06141026828138671 -2.998635162711953e-12 -1.7612226203960021e-12 -2.998635162711953e-12 0.05814217424507724" free_energy=-1969.7213493292643 pbc="T T T"
In       0.00000000       0.00000000       0.00000000        0       0.00000000      -0.00000000      -0.00000000
