1
Lattice="4.042424247080094 0.6390061700948895 -3.9802690468103356e-10 0.9172492353907516 3.9885055495731083 -8.495216017902691e-10 -2.4798367410814133 -2.313755859381555 2.290516587925231" Properties=species:S:1:pos:R:3:spacegroup_kinds:I:1:forces:R:3 spacegroup="P 1" unit_cell=conventional occupancy="_JSON {\"0\": {\"In\": 1}}" n_minim_iter=1 energy=-1969.8685952677713 stress="0.05996250829948047 -0.0018117017242065589 1.357197017510153e-13 -0.0018117017242065589 0.06021388605146988 8.337123552468509e-13 1.357197017510153e-13 8.337123552468509e-13 0.06190425357257774" free_energy=-1969.8685952677713 pbc="T T T"
In       0.00000000       0.00000000       0.00000000        0       0.00000000       0.00000000      -0.00000000
