1
Lattice="3.6111608581134993 0.6817376725230423 -3.7746761125973305e-10 0.9300306259190214 3.5553188369203736 -7.64816953371147e-10 -2.270595741884135 -2.118528254333547 1.965065395816701" Properties=species:S:1:pos:R:3:spacegroup_kinds:I:1:forces:R:3 spacegroup="P 1" unit_cell=conventional occupancy="_JSON {\"0\": {\"In\": 1}}" n_minim_iter=1 energy=-1968.9816040080862 stress="-0.3032541021891183 0.029340222625733055 -6.57218254852967e-12 0.029340222625733055 -0.3073251250876678 -8.03193833689707e-12 -6.57218254852967e-12 -8.03193833689707e-12 -0.3347003594776249" free_energy=-1968.9816040080862 pbc="T T T"
In       0.00000000       0.00000000       0.00000000        0       0.00000000      -0.00000000       0.00000000
1
Lattice="3.5898941747830837 0.6437800275299191 -3.6853989654169193e-10 0.8906921358874011 3.536730188897124 -7.585001192480985e-10 -2.240293155202228 -2.0902551078227445 1.978310661388378" Properties=species:S:1:pos:R:3:spacegroup_kinds:I:1:forces:R:3 spacegroup="P 1" unit_cell=conventional occupancy="_JSON {\"0\": {\"In\": 1}}" n_minim_iter=2 energy=-1968.987478451415 stress="-0.30095201334152133 -0.010690745630485185 1.6215058329757438e-12 -0.010690745630485185 -0.29946864796902023 2.584214054989903e-12 1.6215058329757438e-12 2.584214054989903e-12 -0.28949388836558393" free_energy=-1968.987478451415 pbc="T T T"
In       0.00000000       0.00000000       0.00000000        0      -0.00000000      -0.00000000       0.00000000
1
Lattice="3.5955279471571746 0.6538862997237299 -3.709150351824965e-10 0.9011640867172181 3.5416509992609115 -7.601762251418081e-10 -2.248346016804421 -2.0977686491022434 1.974764643019044" Properties=species:S:1:pos:R:3:spacegroup_kinds:I:1:forces:R:3 spacegroup="P 1" unit_cell=conventional occupancy="_JSON {\"0\": {\"In\": 1}}" n_minim_iter=3 energy=-1968.9884287418315 stress="-0.3013057361078972 -0.00028516978190068324 2.0162800517897158e-13 -0.00028516978190068324 -0.30126616814963664 1.4216635290319123e-13 2.0162800517897158e-13 1.4216635290319123e-13 -0.3010000969016399" free_energy=-1968.9884287418315 pbc="T T T"
In       0.00000000       0.00000000       0.00000000        0      -0.00000000      -0.00000000       0.00000000
