1
Lattice="4.071507435849925 0.6436034948520275 -4.0089050604911645e-10 0.9238483776458282 4.017200820706894 -8.556334781295133e-10 -2.497677906592759 -2.3304021573237614 2.3069956911156435" Properties=species:S:1:pos:R:3:spacegroup_kinds:I:1:forces:R:3 spacegroup="P 1" unit_cell=conventional occupancy="_JSON {\"0\": {\"In\": 1}}" n_minim_iter=1 energy=-1969.8685952677713 stress="0.05996250829948047 -0.0018117017242065589 1.357197017510153e-13 -0.0018117017242065589 0.06021388605146988 8.337123552468509e-13 1.357197017510153e-13 8.337123552468509e-13 0.06190425357257774" free_energy=-1969.8685952677713 pbc="T T T"
In       0.00000000       0.00000000       0.00000000        0       0.00000000       0.00000000      -0.00000000
