1
Lattice="3.5955279471571746 0.6538862997237299 -3.709150351824965e-10 0.9011640867172181 3.5416509992609115 -7.601762251418081e-10 -2.248346016804421 -2.0977686491022434 1.974764643019044" Properties=species:S:1:pos:R:3:spacegroup_kinds:I:1:forces:R:3 spacegroup="P 1" unit_cell=conventional occupancy="_JSON {\"0\": {\"In\": 1}}" n_minim_iter=3 energy=-1968.9884287418315 stress="-0.3013057361078972 -0.00028516978190068324 2.0162800517897158e-13 -0.00028516978190068324 -0.30126616814963664 1.4216635290319123e-13 2.0162800517897158e-13 1.4216635290319123e-13 -0.3010000969016399" free_energy=-1968.9884287418315 pbc="T T T"
In       0.00000000       0.00000000       0.00000000        0      -0.00000000      -0.00000000       0.00000000
