1
Lattice="3.946443822253928 0.5610150062876574 -3.761653912415682e-10 0.8328022996842559 3.898153025360439 -8.259974067588595e-10 -2.389623060815652 -2.229584015373272 2.282063413907721" Properties=species:S:1:pos:R:3:spacegroup_kinds:I:1:forces:R:3 spacegroup="P 1" unit_cell=conventional occupancy="_JSON {\"0\": {\"In\": 1}}" n_minim_iter=1 energy=-1969.9407279534905 stress="0.04439390625785073 -0.011828187159654592 2.8592564432372408e-12 -0.011828187159654592 0.04603509424071575 3.548211770248123e-12 2.8592564432372408e-12 3.548211770248123e-12 0.05707111806095398" free_energy=-1969.9407279534905 pbc="T T T"
In       0.00000000       0.00000000       0.00000000        0      -0.00000000       0.00000000      -0.00000000
1
Lattice="3.9829681949837985 0.6296076552887162 -3.9217037452452233e-10 0.9037583163304685 3.929842534697055 -8.370278884085526e-10 -2.4433632555053895 -2.2797250945470955 2.2568276267338163" Properties=species:S:1:pos:R:3:spacegroup_kinds:I:1:forces:R:3 spacegroup="P 1" unit_cell=conventional occupancy="_JSON {\"0\": {\"In\": 1}}" n_minim_iter=2 energy=-1969.9477511062337 stress="0.040274366283792856 0.0045683349801260865 -2.3271093009007546e-12 0.0045683349801260865 0.03964049937188958 2.5027136214276618e-14 -2.3271093009007546e-12 2.5027136214276618e-14 0.03537811722380571" free_energy=-1969.9477511062337 pbc="T T T"
In       0.00000000       0.00000000       0.00000000        0       0.00000000       0.00000000      -0.00000000
