1
Lattice="4.156354811103339 0.6570157427976632 -4.092458084556871e-10 0.9431007334895567 4.100916483977369 -8.734624235415516e-10 -2.549727772138096 -2.3789661129223205 2.355071872283477" Properties=species:S:1:pos:R:3:spacegroup_kinds:I:1:forces:R:3 spacegroup="P 1" unit_cell=conventional occupancy="_JSON {\"0\": {\"In\": 1}}" n_minim_iter=1 energy=-1969.6767826019927 stress="0.05706375831373325 0.006548987525897848 -5.79480948970102e-15 0.006548987525897848 0.056155071337113 -2.0874579890685045e-13 -5.79480948970102e-15 -2.0874579890685045e-13 0.050044685917049817" free_energy=-1969.6767826019927 pbc="T T T"
In       0.00000000       0.00000000       0.00000000        0      -0.00000000      -0.00000000      -0.00000000
