1
Lattice="3.6872075387357692 0.6960942434672692 -3.8541331198807254e-10 0.9496159461960968 3.630189552107196 -7.809226423078146e-10 -2.318411742331026 -2.163141897390899 2.0064472966594136" Properties=species:S:1:pos:R:3:spacegroup_kinds:I:1:forces:R:3 spacegroup="P 1" unit_cell=conventional occupancy="_JSON {\"0\": {\"In\": 1}}" n_minim_iter=2 energy=-1969.3562397650571 stress="-0.18056282286655156 -0.001736436288825046 4.856841971533126e-13 -0.001736436288825046 -0.18032188836631513 8.397788642507815e-13 4.856841971533126e-13 8.397788642507815e-13 -0.1787017455669133" free_energy=-1969.3562397650571 pbc="T T T"
In       0.00000000       0.00000000       0.00000000        0      -0.00000000       0.00000000       0.00000000
