1
Lattice="3.6495803465472823 0.6889907453307857 -3.814832147805388e-10 0.9399253113898385 3.5931442167083083 -7.729535127872388e-10 -2.2947528288350294 -2.1410674806272563 1.9859719159670228" Properties=species:S:1:pos:R:3:spacegroup_kinds:I:1:forces:R:3 spacegroup="P 1" unit_cell=conventional occupancy="_JSON {\"0\": {\"In\": 1}}" n_minim_iter=1 energy=-1969.195107915929 stress="-0.23595046770081318 0.00844024064050834 -2.581526443712387e-12 0.00844024064050834 -0.23712157036521506 -2.4086863069356758e-12 -2.581526443712387e-12 -2.4086863069356758e-12 -0.24499654693829281" free_energy=-1969.195107915929 pbc="T T T"
In       0.00000000       0.00000000       0.00000000        0       0.00000000       0.00000000       0.00000000
