40
Lattice="8.409557158053133 0.0 -2.973227446617621 -4.204778579026566 7.282890133451279 -2.9732274466176203 0.0 0.0 8.91968233985286" Properties=species:S:1:pos:R:3:momenta:R:3:forces:R:3 time=17475.0 energy=-45083.34553498337 free_energy=-45139.09523184416 origin=md_surface-Ia3-mill-110_1750C uid=8a102666346b4c8eab0167c937dde7a6 virial="129.60324726479877 -6.034053689008504 6.742290082099111 -6.034053689008504 109.79720586680385 -9.898757236291173 6.742290082099111 -9.898757236291173 120.84107902761757" qe_fenergy=-45083.34553498337 U=-45083.29637366886 pbc="T T T"
In       2.70408395       5.49965910      -5.09967830       7.27618282      -0.94056088       3.26260831      -2.20687090      -0.12593908       2.37925507
In       1.22332804       2.12274405       7.99892565       2.71126716      -0.77388182       4.12348571       0.64980305      -0.04436053       0.18059286
In       5.63268031       2.07048895       0.80887459      -8.88669112      -2.21700535       3.73402649      -0.95203989       1.65786375      -0.67955194
In       1.96735355       3.12860275       2.04148015      -5.00176573      -4.50765380     -13.63094612       0.89991879      -0.96460489      -3.52765887
In       2.79106758       1.75571484       4.92819068      -0.52626433      -0.17928562      -2.63465082      -0.26157377      -0.27990587       0.91417171
In       1.95804171       7.91055470       1.20596418      -2.64920162      -0.82177375       2.68672598      -0.13254521       0.51814734       0.12996963
In       3.96646365       4.60939872      -2.46588024       1.53418803       0.78595004      -6.92276198       1.35889855      -0.75985347      -1.14776899
In       3.24192757       0.22722107       1.34651889      -6.81920531      -1.34292309       2.55921046      -0.10140606      -0.03431999       3.07887344
In       1.39343585       5.04167654      -0.35438257      -3.16988744       5.62888567      -4.36224614       0.50922902      -1.16423432      -0.36967557
In       0.13904205       0.28651789       4.29721645       3.61325583      -4.26650303       2.91495126      -0.86606136       0.30256850      -2.89950893
In      -1.08287393       1.75754928       1.23211778       0.97270178       2.76410631      -0.54658997       3.27072237      -1.29658727       1.07307175
In       5.00877900       6.09045236       0.67154452       0.83079010      -3.25503061      -6.64549311       0.98346464      -2.36039964       2.17431043
In      -0.38052019       3.66048764       4.60740927       4.83024108      -0.28496786       3.94476658       0.81000656       0.05194925       0.76818387
In      -0.87272977       5.45242093       1.84683612      -4.07689790      -1.21572483      -3.02436284       0.90252774      -3.73030030      -2.05555628
In      -2.38824303       4.13003998      -2.04496681       9.47329565       2.59502821       1.66784353      -0.03626486       0.61977258       0.71229345
In       4.55256782       0.24737311      -1.33023209       7.40243936       2.02101999       4.38607766      -0.10101369      -0.56046942      -2.14495713
O        4.32906471      -0.82816315       3.44718484      -0.89796456      -0.47564565      -1.68712617       3.63488976       1.74447191      -1.27973058
O        4.67755743       2.33879491       4.22057641       0.19168544      -0.80425007       2.44098014       0.72408640      -0.49847683      -0.33114916
O       -5.37787310       6.92370685       2.69414790       2.08412964       3.85204989      -0.26505514       1.76951246      -0.28514083       0.70370236
O        2.13866943       0.20609737      -1.69185503       2.15231599       1.45306360      -2.22297421       0.62119512       1.52711917      -0.18543469
O        1.10204151       2.31756781       3.69447516      -1.10259481      -1.46933990       1.01003180      -0.55092416      -0.53654326       1.43656237
O       -1.02885994       6.96163512       3.08198357       3.01724245      -1.15137196      -1.55427336      -2.10092164       3.90619407       1.77168321
O        0.00484305      -0.03780098       2.31218590      -0.70447616      -0.68448519       2.61566848      -2.17822245       0.46946994      -1.01294819
O        3.61058778      -1.81292497       2.59347347       1.51493864      -0.64749381      -0.52612048      -2.56901577      -0.33177195      -1.17559675
O        1.32614129      -1.45435535       4.40631081       1.58594733       1.35828726      -0.41656123      -1.99691794      -0.68013887       1.83537004
O        1.30186594       5.94226173       1.48343934      -2.23948566      -1.28570335       2.61612834      -2.22068499      -0.61043953      -0.09889361
O        0.61682206       2.05782728       5.13587304      -1.55964819       0.31130404       0.17847968       2.02658047      -0.11417777       1.65439833
O        0.68580656       5.31312897       4.19679803      -2.15615114      -0.01046681       0.33051026       1.81650539       1.36126447       0.36209218
O        7.88961138       1.25096422       5.31122959      -0.93952813       1.61953989       1.15808701       1.10098142      -3.99007601       0.95251414
O       -3.98156590       5.45842556      -3.00473100      -1.62954627       0.10754725      -2.85958685       2.17142581      -0.19082288      -0.81656242
O        1.24877566       9.32453532      -4.79582389      -1.34702708      -0.27109641       1.38236745      -3.39728907      -0.66397266      -0.49302099
O       -0.68427938       5.30549240      -2.04655495      -1.86910735       2.22351780       0.46890970       0.11416077       0.37067698       0.27410875
O        7.34098324       2.36720942      -4.18617965       0.56954001      -1.88881041      -0.55205685      -1.97068028       2.92813561      -1.96338055
O        6.55770654       0.80991753       2.06144508      -3.63851682      -0.78820120       2.31547424       0.07997836       0.54773133       0.68699664
O        8.22899968       3.30705466      -0.67202340      -0.91372639       1.31366917       2.28016006       1.18730822       0.52037023      -0.64686808
O        6.23391616       4.28935720       1.27081331      -0.01644117      -0.10714647       0.00788951      -2.33245970       0.24437164      -0.53971930
O        2.79934470       2.83106665      -2.13280386       2.09885709       2.17806525       1.70441027       0.56513152      -0.34538466      -0.00363335
O        5.71861519       4.30946962      -0.27724689      -0.00283718      -0.51044852       2.32865550      -2.27008269       2.80266045       0.74117731
O       -2.14754434       7.07505553       1.92624297      -1.04526080       1.22839783      -0.70993550      -0.35703099      -1.08178414       0.26579447
O        3.52381233       6.56401767       2.43303117      -0.66679325       0.45933819      -1.55670764       1.40567902       1.07693697      -0.72350660
