80
Lattice="11.758812762970885 0.0 0.0 6.452317444010323 9.830426094342354 0.0 6.452317444010323 3.4829815090918417 9.192720870539437" Properties=species:S:1:pos:R:3:initial_magmoms:R:1:forces:R:3 uid=supercell-003.xyz_R3c type=Bulk energy=-90301.49049020217 stress="0.0027775739011292673 -0.0004565814821385129 -0.00031117447467964954 -0.0004565814821385129 0.0033231652086897247 -0.00016483256597373143 -0.00031117447467964954 -0.00016483256597373143 0.003481159226727057" virial="-2.085809515918755e-06 7.931951680254419e-07 5.538541423794208e-07 7.931951680254419e-07 -3.0906962048224462e-06 2.9118384708559254e-07 5.538541423794208e-07 2.9118384708559254e-07 -3.3473181709483243e-06" pbc="T T T"
In      10.57093864       5.70622635       3.94006911      10.00000000       0.00187301       0.00064013       0.00048228
In      16.45034502       5.70622635       3.94006911      10.00000000       0.00338463       0.00095026       0.00084628
In      13.79709736      10.62143940       3.94006911      10.00000000       0.00445681       0.00296130       0.00178243
In      19.67650374      10.62143940       3.94006911      10.00000000       0.00176551       0.00103040       0.00103900
In      13.79709736       7.44771711       8.53642955      10.00000000       0.01481652       0.01629069      -0.00095070
In      19.67650374       7.44771711       8.53642955      10.00000000       0.00034528       0.00345716       0.00015062
In      17.02325608      12.36293015       8.53642955      10.00000000      -0.00048502      -0.00398307      -0.00181029
In      22.90266246      12.36293015       8.53642955      10.00000000       0.00373345       0.00107710       0.00155758
In       7.92664710       4.27882935       2.95447155      10.00000000      -0.00434620      -0.00090332      -0.00571609
In      13.80605348       4.27882935       2.95447155      10.00000000      -0.00178612      -0.00087915      -0.00086713
In      11.15280582       9.19404240       2.95447155      10.00000000      -0.00222927      -0.00377644       0.00371948
In      17.03221221       9.19404240       2.95447155      10.00000000      -0.00306441      -0.00156394      -0.00099102
In      11.15280582       6.02032010       7.55083198      10.00000000       0.00504529       0.00735924      -0.00056830
In      17.03221221       6.02032010       7.55083198      10.00000000      -0.00651299      -0.00121366       0.00165060
In      14.37896455      10.93553315       7.55083198      10.00000000      -0.00358638      -0.00367206      -0.00056402
In      20.25837093      10.93553315       7.55083198      10.00000000      -0.00161851      -0.00249005      -0.00092468
In       4.40507673       2.37787445       1.64188889      10.00000000       0.01956965       0.00710052      -0.01168908
In      10.28448311       2.37787445       1.64188889      10.00000000      -0.00088194       0.00204429      -0.00120257
In       7.63123545       7.29308750       1.64188889      10.00000000       0.00099441      -0.00365863       0.00042863
In      13.51064183       7.29308750       1.64188889      10.00000000       0.00349315      -0.00038786       0.00113335
In       7.63123545       4.11936520       6.23824933      10.00000000       0.00158908       0.00165028      -0.00016427
In      13.51064183       4.11936520       6.23824933      10.00000000       0.00503981       0.00426717      -0.00016789
In      10.85739417       9.03457825       6.23824933      10.00000000       0.00408293       0.00043848       0.00445724
In      16.73680055       9.03457825       6.23824933      10.00000000       0.00180425       0.00064587       0.00183338
In       1.76078518       0.95047746       0.65629133      10.00000000      -0.00636196      -0.00051278      -0.00099094
In       7.64019156       0.95047746       0.65629133      10.00000000      -0.00029892       0.00932030      -0.00326589
In       4.98694390       5.86569050       0.65629133      10.00000000       0.00165013      -0.00469084      -0.00203027
In      10.86635028       5.86569050       0.65629133      10.00000000      -0.00364424      -0.00296258      -0.00113921
In       4.98694390       2.69196821       5.25265176      10.00000000      -0.00202161       0.00035628       0.00034422
In      10.86635028       2.69196821       5.25265176      10.00000000      -0.00337590      -0.00248773      -0.00382502
In       8.21310263       7.60718126       5.25265176      10.00000000      -0.00280068      -0.00170760      -0.00115625
In      14.09250901       7.60718126       5.25265176      10.00000000      -0.00314844      -0.00296568       0.00156538
O        6.02844157       2.31817494       0.21474656       4.00000000      -0.05810999      -0.04725659       0.01087920
O       11.90204053       2.30932705       0.21474656       4.00000000       0.00318136       0.00819700      -0.01339784
O        9.24879287       7.22454010       0.21474656       4.00000000       0.00185681       0.01148624      -0.01349168
O       15.12819925       7.22454010       0.21474656       4.00000000      -0.00083160       0.01031197      -0.01329271
O        9.24879287       4.05081780       4.81110699       4.00000000       0.00119750       0.00880480      -0.01203330
O       15.12819925       4.05081780       4.81110699       4.00000000       0.00029486       0.00906045      -0.01362200
O       12.47495159       8.96603085       4.81110699       4.00000000      -0.00023165       0.00942342      -0.01504511
O       18.35435798       8.96603085       4.81110699       4.00000000       0.00000761       0.00943861      -0.01299731
O        7.09636398       5.12094207       1.14909010       4.00000000      -0.00458424       0.02637188       0.00573380
O       12.97577036       5.12094207       1.14909010       4.00000000      -0.00742105       0.01408585      -0.00029425
O       10.32252270      10.03615511       1.14909010       4.00000000       0.00021720       0.02226316      -0.00244997
O       16.20192908      10.03615511       1.14909010       4.00000000      -0.00772144       0.01315263      -0.00017569
O       10.32252270       6.86243282       5.74545054       4.00000000      -0.00816053       0.01344021       0.00004059
O       16.20192908       6.86243282       5.74545054       4.00000000      -0.00722841       0.01433004      -0.00067930
O       13.54868142      11.77764587       5.74545054       4.00000000      -0.00771508       0.01427777       0.00008956
O       19.42808780      11.77764587       5.74545054       4.00000000      -0.00824569       0.01497603       0.00067149
O        8.17506304       2.18091283       2.51292678       4.00000000       0.00891318      -0.00751540      -0.00937358
O       14.05446942       2.18091283       2.51292678       4.00000000       0.00820537      -0.00563109      -0.01407407
O       11.40122176       7.09612588       2.51292678       4.00000000       0.00837441      -0.00315329      -0.01416617
O       17.28062814       7.09612588       2.51292678       4.00000000       0.00656069      -0.00370599      -0.01244880
O       11.40122176       3.92240358       7.10928721       4.00000000       0.00878749      -0.00089398      -0.00551387
O       17.28062814       3.92240358       7.10928721       4.00000000       0.00837419      -0.00611474      -0.01343408
O       14.62738048       8.83761663       7.10928721       4.00000000       0.00809886      -0.00392440      -0.01407542
O       20.50678687       8.83761663       7.10928721       4.00000000       0.00655814      -0.00486433      -0.01331648
O        4.15666079       4.47579097       2.08343366       4.00000000      -0.00962181       0.00425809       0.01396425
O       10.03606717       4.47579097       2.08343366       4.00000000      -0.00626253       0.00582439       0.01356502
O        7.38281951       9.39100402       2.08343366       4.00000000      -0.00605520       0.00577183       0.01254259
O       13.26222589       9.39100402       2.08343366       4.00000000      -0.00961393       0.00813919       0.00991250
O        7.38281951       6.21728172       6.67979410       4.00000000      -0.00712008       0.00503672       0.01377461
O       13.26222589       6.21728172       6.67979410       4.00000000      -0.00880931       0.00186976       0.00543062
O       10.60897823      11.13249477       6.67979410       4.00000000      -0.00832378       0.00630408       0.01226042
O       16.48838462      11.13249477       6.67979410       4.00000000      -0.00711172       0.00628823       0.01346584
O        6.30908968       4.34737676       4.38161388       4.00000000      -0.00009551      -0.00880882       0.01423939
O       12.18849606       4.34737676       4.38161388       4.00000000      -0.00029448      -0.01027428       0.01325294
O        9.53524840       9.26258981       4.38161388       4.00000000       0.00067687      -0.00840144       0.01194662
O       15.41465478       9.26258981       4.38161388       4.00000000      -0.00032848      -0.00935106       0.01301010
O        9.53524840       6.08886751       8.97797431       4.00000000       0.00920224      -0.01371965       0.01553120
O       15.41465478       6.08886751       8.97797431       4.00000000       0.01285201      -0.01152911       0.01197869
O       12.76140712      11.00408056       8.97797431       4.00000000       0.00028877      -0.00713108       0.01166749
O       18.64081350      11.00408056       8.97797431       4.00000000      -0.00001629      -0.00836571       0.01392924
O        5.23535984       1.53576173       3.44727032       4.00000000       0.00689506      -0.01527981      -0.00437935
O       11.11476623       1.53576173       3.44727032       4.00000000       0.00819031      -0.01405371       0.00076719
O        8.46151857       6.45097478       3.44727032       4.00000000       0.00834602      -0.01350175       0.00158448
O       14.34092495       6.45097478       3.44727032       4.00000000       0.00687973      -0.01330723      -0.00067778
O        8.46151857       3.27725249       8.04363076       4.00000000       0.00919743      -0.01377444       0.00085253
O       14.34092495       3.27725249       8.04363076       4.00000000       0.00490232      -0.01394246       0.00214771
O       11.68767729       8.19246553       8.04363076       4.00000000      -0.00006044      -0.00676105      -0.00695135
O       17.56708367       8.19246553       8.04363076       4.00000000       0.00842347      -0.01358496      -0.00031487
