20
Lattice="5.462171135117508 -4.3438545341666014e-61 1.4825451042057697e-45 4.604005330149946e-61 5.5749250298857085 -6.281101660398713e-17 -2.11951224337462e-45 8.798124607776513e-17 7.808962144521813" Properties=species:S:1:pos:R:3:spacegroup_kinds:I:1:forces:R:3 spacegroup="P 1" unit_cell=conventional occupancy="_JSON {\"0\": {\"In\": 1}, \"1\": {\"In\": 1}, \"2\": {\"In\": 1}, \"3\": {\"In\": 1}, \"4\": {\"In\": 1}, \"5\": {\"In\": 1}, \"6\": {\"In\": 1}, \"7\": {\"In\": 1}, \"8\": {\"O\": 1}, \"9\": {\"O\": 1}, \"10\": {\"O\": 1}, \"11\": {\"O\": 1}, \"12\": {\"O\": 1}, \"13\": {\"O\": 1}, \"14\": {\"O\": 1}, \"15\": {\"O\": 1}, \"16\": {\"O\": 1}, \"17\": {\"O\": 1}, \"18\": {\"O\": 1}, \"19\": {\"O\": 1}}" n_minim_iter=1 energy=-22574.88128564852 stress="-0.005572554308625164 -6.404657593910236e-13 -5.544567999391797e-13 -6.404657593910236e-13 -0.00522747243857498 -1.1588156588262021e-14 -5.544567999391797e-13 -1.1588156588262021e-14 -0.0004706480112841523" free_energy=-22574.88128564852 pbc="T T T"
In       1.35918439       2.94730776       0.89369802        0       0.01868520      -0.01041480       0.03144702
In       1.37190118       0.15984524       3.01078306        1      -0.01868520      -0.01041480      -0.03144702
In       1.37190118       2.62761727       4.79817909        2      -0.01868520       0.01041480       0.03144702
In       1.35918439       5.41507979       6.91526413        3       0.01868520       0.01041480      -0.03144702
In       4.10298675       2.62761727       6.91526413        4      -0.01868520       0.01041480      -0.03144702
In       4.09026995       5.41507979       4.79817909        5       0.01868520       0.01041480       0.03144702
In       4.09026995       2.94730776       3.01078306        6       0.01868520      -0.01041480      -0.03144702
In       4.10298675       0.15984524       0.89369802        7      -0.01868520      -0.01041480       0.03144702
O        2.12572640       3.36939251       6.63862122        8      -0.04138803       0.01200499       0.05448416
O        0.60535917       0.58192999       5.07482200        9       0.04138803       0.01200499      -0.05448416
O        0.60535917       2.20553252       2.73414015       10       0.04138803      -0.01200499       0.05448416
O        2.12572640       4.99299504       1.17034093       11      -0.04138803      -0.01200499      -0.05448416
O        3.33644474       2.20553252       1.17034093       12       0.04138803      -0.01200499      -0.05448416
O        4.85681197       4.99299504       2.73414015       13      -0.04138803      -0.01200499       0.05448416
O        4.85681197       3.36939251       5.07482200       14      -0.04138803       0.01200499      -0.05448416
O        3.33644474       0.58192999       6.63862122       15       0.04138803       0.01200499       0.05448416
O        5.24299230       4.18119377       0.00000000       16       0.07307161      -0.00000000      -0.00000000
O        2.95026440       1.39373126       3.90448107       17      -0.07307161       0.00000000      -0.00000000
O        0.21917884       1.39373126       0.00000000       18      -0.07307161       0.00000000      -0.00000000
O        2.51190673       4.18119377       3.90448107       19       0.07307161      -0.00000000      -0.00000000
20
Lattice="5.47466871095724 -4.383681612770056e-61 1.495807045195251e-45 4.56041170477004e-61 5.585254044370906 -5.5394189245719764e-17 -2.0967006829060626e-45 9.817004447658881e-17 7.776727410398179" Properties=species:S:1:pos:R:3:spacegroup_kinds:I:1:forces:R:3 spacegroup="P 1" unit_cell=conventional occupancy="_JSON {\"0\": {\"In\": 1}, \"1\": {\"In\": 1}, \"2\": {\"In\": 1}, \"3\": {\"In\": 1}, \"4\": {\"In\": 1}, \"5\": {\"In\": 1}, \"6\": {\"In\": 1}, \"7\": {\"In\": 1}, \"8\": {\"O\": 1}, \"9\": {\"O\": 1}, \"10\": {\"O\": 1}, \"11\": {\"O\": 1}, \"12\": {\"O\": 1}, \"13\": {\"O\": 1}, \"14\": {\"O\": 1}, \"15\": {\"O\": 1}, \"16\": {\"O\": 1}, \"17\": {\"O\": 1}, \"18\": {\"O\": 1}, \"19\": {\"O\": 1}}" n_minim_iter=2 energy=-22574.8839335719 stress="-0.0022299940958300335 9.269996501965606e-13 -2.865646880162113e-14 9.269996501965606e-13 -0.003395665931965946 6.370964929121202e-14 -2.865646880162113e-14 6.370964929121202e-14 -0.003085457681673718" free_energy=-22574.8839335719 pbc="T T T"
In       1.36239336       2.95271319       0.89017468        0       0.04750237       0.00108076       0.01721076
In       1.37494099       0.16008616       2.99818903        1      -0.04750237       0.00108076      -0.01721076
In       1.37494099       2.63254086       4.77853838        2      -0.04750237      -0.00108076       0.01721076
In       1.36239336       5.42516788       6.88655273        3       0.04750237      -0.00108076      -0.01721076
In       4.11227535       2.63254086       6.88655273        4      -0.04750237      -0.00108076      -0.01721076
In       4.09972772       5.42516788       4.77853838        5       0.04750237      -0.00108076       0.01721076
In       4.09972772       2.95271319       2.99818903        6       0.04750237       0.00108076      -0.01721076
In       4.11227535       0.16008616       0.89017468        7      -0.04750237       0.00108076       0.01721076
O        2.13037053       3.37569886       6.61150477        8      -0.00913364       0.02051102       0.07292757
O        0.60696383       0.58307184       5.05358635        9       0.00913364       0.02051102      -0.07292757
O        0.60696383       2.20955519       2.72314106       10       0.00913364      -0.02051102       0.07292757
O        2.13037053       5.00218221       1.16522264       11      -0.00913364      -0.02051102      -0.07292757
O        3.34429818       2.20955519       1.16522264       12       0.00913364      -0.02051102      -0.07292757
O        4.86770488       5.00218221       2.72314106       13      -0.00913364      -0.02051102       0.07292757
O        4.86770488       3.37569886       5.05358635       14      -0.00913364       0.02051102      -0.07292757
O        3.34429818       0.58307184       6.61150477       15       0.00913364       0.02051102       0.07292757
O        5.25537607       4.18894053       0.00000000       16       0.06667434      -0.00000000      -0.00000000
O        2.95662700       1.39631351       3.88836371       17      -0.06667434      -0.00000000      -0.00000000
O        0.21929264       1.39631351       0.00000000       18      -0.06667434      -0.00000000       0.00000000
O        2.51804171       4.18894053       3.88836371       19       0.06667434       0.00000000      -0.00000000
20
Lattice="5.466291783515223 -4.3234324015320814e-61 1.495410916486139e-45 4.67125236396021e-61 5.59813877924288 -7.229335301136026e-17 -2.0923895162519878e-45 7.466540407296534e-17 7.770718583851012" Properties=species:S:1:pos:R:3:spacegroup_kinds:I:1:forces:R:3 spacegroup="P 1" unit_cell=conventional occupancy="_JSON {\"0\": {\"In\": 1}, \"1\": {\"In\": 1}, \"2\": {\"In\": 1}, \"3\": {\"In\": 1}, \"4\": {\"In\": 1}, \"5\": {\"In\": 1}, \"6\": {\"In\": 1}, \"7\": {\"In\": 1}, \"8\": {\"O\": 1}, \"9\": {\"O\": 1}, \"10\": {\"O\": 1}, \"11\": {\"O\": 1}, \"12\": {\"O\": 1}, \"13\": {\"O\": 1}, \"14\": {\"O\": 1}, \"15\": {\"O\": 1}, \"16\": {\"O\": 1}, \"17\": {\"O\": 1}, \"18\": {\"O\": 1}, \"19\": {\"O\": 1}}" n_minim_iter=3 energy=-22574.884969909814 stress="-0.003192036444863604 3.4361388496995855e-13 -3.1159047611706684e-13 3.4361388496995855e-13 -0.0018210737709659943 -2.81220562361316e-13 -3.1159047611706684e-13 -2.81220562361316e-13 -0.002882820783523484" free_energy=-22574.884969909814 pbc="T T T"
In       1.36102656       2.95952183       0.88978770        0       0.02008976       0.01509380       0.01114094
In       1.37211934       0.16045244       2.99557159        1      -0.02008976       0.01509380      -0.01114094
In       1.37211934       2.63861695       4.77514699        2      -0.02008976      -0.01509380       0.01114094
In       1.36102656       5.43768634       6.88093088        3       0.02008976      -0.01509380      -0.01114094
In       4.10526523       2.63861695       6.88093088        4      -0.02008976      -0.01509380      -0.01114094
In       4.09417245       5.43768634       4.77514699        5       0.02008976      -0.01509380       0.01114094
In       4.09417245       2.95952183       2.99557159        6       0.02008976       0.01509380      -0.01114094
In       4.10526523       0.16045244       0.88978770        7      -0.02008976       0.01509380       0.01114094
O        2.12690531       3.38380425       6.60753118        8      -0.01707437       0.02840881       0.05694200
O        0.60624058       0.58473486       5.04854670        9       0.01707437       0.02840881      -0.05694200
O        0.60624058       2.21433453       2.72217188       10       0.01707437      -0.02840881       0.05694200
O        2.12690531       5.01340392       1.16318741       11      -0.01707437      -0.02840881      -0.05694200
O        3.33938647       2.21433453       1.16318741       12       0.01707437      -0.02840881      -0.05694200
O        4.86005120       5.01340392       2.72217188       13      -0.01707437      -0.02840881       0.05694200
O        4.86005120       3.38380425       5.04854670       14      -0.01707437       0.02840881      -0.05694200
O        3.33938647       0.58473486       6.60753118       15       0.01707437       0.02840881       0.05694200
O        5.24842584       4.19860408       0.00000000       16       0.04379987       0.00000000       0.00000000
O        2.95101184       1.39953469       3.88535929       17      -0.04379987      -0.00000000      -0.00000000
O        0.21786594       1.39953469       0.00000000       18      -0.04379987       0.00000000       0.00000000
O        2.51527995       4.19860408       3.88535929       19       0.04379987       0.00000000      -0.00000000
20
Lattice="5.470082389257829 1.3496830161516156e-60 7.238702398844159e-45 -1.4506516410634275e-60 5.595122625215911 -8.526008782932822e-17 6.117334610797704e-45 5.64512162201319e-17 7.769519751417266" Properties=species:S:1:pos:R:3:spacegroup_kinds:I:1:forces:R:3 spacegroup="P 1" unit_cell=conventional occupancy="_JSON {\"0\": {\"In\": 1}, \"1\": {\"In\": 1}, \"2\": {\"In\": 1}, \"3\": {\"In\": 1}, \"4\": {\"In\": 1}, \"5\": {\"In\": 1}, \"6\": {\"In\": 1}, \"7\": {\"In\": 1}, \"8\": {\"O\": 1}, \"9\": {\"O\": 1}, \"10\": {\"O\": 1}, \"11\": {\"O\": 1}, \"12\": {\"O\": 1}, \"13\": {\"O\": 1}, \"14\": {\"O\": 1}, \"15\": {\"O\": 1}, \"16\": {\"O\": 1}, \"17\": {\"O\": 1}, \"18\": {\"O\": 1}, \"19\": {\"O\": 1}}" n_minim_iter=4 energy=-22574.886404316385 stress="-0.002506657938395007 3.6132954843701555e-13 2.582302163409584e-13 3.6132954843701555e-13 -0.001779555979596829 -5.463334936873771e-13 2.582302163409584e-13 -5.463334936873771e-13 -0.002386135742215603" free_energy=-22574.886404316385 pbc="T T T"
In       1.36310245       2.95817294       0.89017657        0      -0.00340818      -0.01240392       0.02803681
In       1.37193875       0.16061162       2.99458331        1       0.00340818      -0.01240392      -0.02803681
In       1.37193875       2.63694969       4.77493645        2       0.00340818       0.01240392       0.02803681
In       1.36310245       5.43451100       6.87934318        3      -0.00340818       0.01240392      -0.02803681
In       4.10697994       2.63694969       6.87934318        4       0.00340818       0.01240392      -0.02803681
In       4.09814364       5.43451100       4.77493645        5      -0.00340818       0.01240392       0.02803681
In       4.09814364       2.95817294       2.99458331        6      -0.00340818      -0.01240392      -0.02803681
In       4.10697994       0.16061162       0.89017657        7       0.00340818      -0.01240392       0.02803681
O        2.12785379       3.38281131       6.60871804        8      -0.01109936       0.01120176       0.02347237
O        0.60718741       0.58525000       5.04556159        9       0.01109936       0.01120176      -0.02347237
O        0.60718741       2.21231132       2.72395816       10       0.01109936      -0.01120176       0.02347237
O        2.12785379       5.00987263       1.16080171       11      -0.01109936      -0.01120176      -0.02347237
O        3.34222860       2.21231132       1.16080171       12       0.01109936      -0.01120176      -0.02347237
O        4.86289498       5.00987263       2.72395816       13      -0.01109936      -0.01120176       0.02347237
O        4.86289498       3.38281131       5.04556159       14      -0.01109936       0.01120176      -0.02347237
O        3.34222860       0.58525000       6.60871804       15       0.01109936       0.01120176       0.02347237
O        5.25402416       4.19634197       0.00000000       16       0.01500436       0.00000000      -0.00000000
O        2.95109942       1.39878066       3.88475988       17      -0.01500436      -0.00000000       0.00000000
O        0.21605823       1.39878066       0.00000000       18      -0.01500436      -0.00000000      -0.00000000
O        2.51898297       4.19634197       3.88475988       19       0.01500436      -0.00000000       0.00000000
20
Lattice="5.473822509382215 1.323856947468874e-60 -4.2486072942395837e-45 -1.465104587162095e-60 5.590356105996504 -9.398968319575687e-17 6.11598765627591e-45 4.4207937344525786e-17 7.770831059810687" Properties=species:S:1:pos:R:3:spacegroup_kinds:I:1:forces:R:3 spacegroup="P 1" unit_cell=conventional occupancy="_JSON {\"0\": {\"In\": 1}, \"1\": {\"In\": 1}, \"2\": {\"In\": 1}, \"3\": {\"In\": 1}, \"4\": {\"In\": 1}, \"5\": {\"In\": 1}, \"6\": {\"In\": 1}, \"7\": {\"In\": 1}, \"8\": {\"O\": 1}, \"9\": {\"O\": 1}, \"10\": {\"O\": 1}, \"11\": {\"O\": 1}, \"12\": {\"O\": 1}, \"13\": {\"O\": 1}, \"14\": {\"O\": 1}, \"15\": {\"O\": 1}, \"16\": {\"O\": 1}, \"17\": {\"O\": 1}, \"18\": {\"O\": 1}, \"19\": {\"O\": 1}}" n_minim_iter=5 energy=-22574.886998260554 stress="-0.0019323053598096019 -6.652101408711516e-14 6.029240750753002e-13 -6.652101408711516e-14 -0.0018461815768172074 -2.0910039523042056e-13 6.029240750753002e-13 -2.0910039523042056e-13 -0.001935241217037829" free_energy=-22574.886998260554 pbc="T T T"
In       1.36467435       2.95539574       0.89129862        0      -0.01632271      -0.02874290       0.03319985
In       1.37223690       0.16021768       2.99411691        1       0.01632271      -0.02874290      -0.03319985
In       1.37223690       2.63496037       4.77671415        2       0.01632271       0.02874290       0.03319985
In       1.36467435       5.43013842       6.87953244        3      -0.01632271       0.02874290      -0.03319985
In       4.10914815       2.63496037       6.87953244        4       0.01632271       0.02874290      -0.03319985
In       4.10158561       5.43013842       4.77671415        5      -0.01632271       0.02874290       0.03319985
In       4.10158561       2.95539574       2.99411691        6      -0.01632271      -0.02874290      -0.03319985
In       4.10914815       0.16021768       0.89129862        7       0.01632271      -0.02874290       0.03319985
O        2.12879678       3.38057203       6.61159817        8      -0.00514687      -0.00224170       0.00362949
O        0.60811448       0.58539398       5.04464842        9       0.00514687      -0.00224170      -0.00362949
O        0.60811448       2.20978408       2.72618264       10       0.00514687       0.00224170       0.00362949
O        2.12879678       5.00496213       1.15923289       11      -0.00514687       0.00224170      -0.00362949
O        3.34502573       2.20978408       1.15923289       12       0.00514687       0.00224170      -0.00362949
O        4.86570803       5.00496213       2.72618264       13      -0.00514687       0.00224170       0.00362949
O        4.86570803       3.38057203       5.04464842       14      -0.00514687      -0.00224170      -0.00362949
O        3.34502573       0.58539398       6.61159817       15       0.00514687      -0.00224170       0.00362949
O        5.25911834       4.19276708       0.00000000       16      -0.00299346      -0.00000000       0.00000000
O        2.95161542       1.39758903       3.88541553       17       0.00299346       0.00000000      -0.00000000
O        0.21470417       1.39758903       0.00000000       18       0.00299346       0.00000000       0.00000000
O        2.52220709       4.19276708       3.88541553       19      -0.00299346       0.00000000       0.00000000
20
Lattice="5.479340039888874 1.339043591528084e-60 -4.2873640490837644e-45 -4.6772210089426455e-60 5.581579841392876 -9.339087423079175e-17 2.6879013444485555e-43 4.505733139290711e-17 7.775212323340262" Properties=species:S:1:pos:R:3:spacegroup_kinds:I:1:forces:R:3 spacegroup="P 1" unit_cell=conventional occupancy="_JSON {\"0\": {\"In\": 1}, \"1\": {\"In\": 1}, \"2\": {\"In\": 1}, \"3\": {\"In\": 1}, \"4\": {\"In\": 1}, \"5\": {\"In\": 1}, \"6\": {\"In\": 1}, \"7\": {\"In\": 1}, \"8\": {\"O\": 1}, \"9\": {\"O\": 1}, \"10\": {\"O\": 1}, \"11\": {\"O\": 1}, \"12\": {\"O\": 1}, \"13\": {\"O\": 1}, \"14\": {\"O\": 1}, \"15\": {\"O\": 1}, \"16\": {\"O\": 1}, \"17\": {\"O\": 1}, \"18\": {\"O\": 1}, \"19\": {\"O\": 1}}" n_minim_iter=6 energy=-22574.887578232214 stress="-0.0011345364349613738 -1.193606251018758e-12 8.840407213429379e-14 -1.193606251018758e-12 -0.0016448208138250787 1.4372675762008863e-14 8.840407213429379e-14 1.4372675762008863e-14 -0.0012433537519233745" free_energy=-22574.887578232214 pbc="T T T"
In       1.36637427       2.94920508       0.89455957        0      -0.02410802      -0.03218010       0.01874484
In       1.37329575       0.15841516       2.99304659        1       0.02410802      -0.03218010      -0.01874484
In       1.37329575       2.63237476       4.78216573        2       0.02410802       0.03218010       0.01874484
In       1.36637427       5.42316468       6.88065276        3      -0.02410802       0.03218010      -0.01874484
In       4.11296577       2.63237476       6.88065276        4       0.02410802       0.03218010      -0.01874484
In       4.10604429       5.42316468       4.78216573        5      -0.02410802       0.03218010       0.01874484
In       4.10604429       2.94920508       2.99304659        6      -0.02410802      -0.03218010      -0.01874484
In       4.11296577       0.15841516       0.89455957        7       0.02410802      -0.03218010       0.01874484
O        2.12998318       3.37612244       6.61815717        8       0.00497104      -0.01723173      -0.01074090
O        0.60968684       0.58533252       5.04466131        9      -0.00497104      -0.01723173       0.01074090
O        0.60968684       2.20545740       2.73055101       10      -0.00497104       0.01723173      -0.01074090
O        2.12998318       4.99624732       1.15705515       11       0.00497104       0.01723173       0.01074090
O        3.34935686       2.20545740       1.15705515       12      -0.00497104       0.01723173       0.01074090
O        4.86965320       4.99624732       2.73055101       13       0.00497104       0.01723173      -0.01074090
O        4.86965320       3.37612244       5.04466131       14       0.00497104      -0.01723173       0.01074090
O        3.34935686       0.58533252       6.61815717       15      -0.00497104      -0.01723173      -0.01074090
O        5.26657088       4.18618488       0.00000000       16      -0.02036339      -0.00000000       0.00000000
O        2.95243918       1.39539496       3.88760616       17       0.02036339       0.00000000       0.00000000
O        0.21276916       1.39539496       0.00000000       18       0.02036339       0.00000000      -0.00000000
O        2.52690086       4.18618488       3.88760616       19      -0.02036339       0.00000000      -0.00000000
20
Lattice="5.478733124420679 5.626000575914703e-61 -7.318232496992713e-44 -3.682601079413783e-59 5.580001133101197 -1.0093782735769363e-16 4.3297427268147665e-43 3.453264736468213e-17 7.77827366176281" Properties=species:S:1:pos:R:3:spacegroup_kinds:I:1:forces:R:3 spacegroup="P 1" unit_cell=conventional occupancy="_JSON {\"0\": {\"In\": 1}, \"1\": {\"In\": 1}, \"2\": {\"In\": 1}, \"3\": {\"In\": 1}, \"4\": {\"In\": 1}, \"5\": {\"In\": 1}, \"6\": {\"In\": 1}, \"7\": {\"In\": 1}, \"8\": {\"O\": 1}, \"9\": {\"O\": 1}, \"10\": {\"O\": 1}, \"11\": {\"O\": 1}, \"12\": {\"O\": 1}, \"13\": {\"O\": 1}, \"14\": {\"O\": 1}, \"15\": {\"O\": 1}, \"16\": {\"O\": 1}, \"17\": {\"O\": 1}, \"18\": {\"O\": 1}, \"19\": {\"O\": 1}}" n_minim_iter=7 energy=-22574.8880140269 stress="-0.0013107941165104832 2.0266456413466585e-13 -2.9860944462068207e-13 2.0266456413466585e-13 -0.0012638076989727658 2.777459829362637e-13 -2.9860944462068207e-13 2.777459829362637e-13 -0.0013272709361227004" free_energy=-22574.8880140269 pbc="T T T"
In       1.36513931       2.94685387       0.89625959        0      -0.00492378      -0.00058481      -0.00735942
In       1.37422725       0.15685330       2.99287724        1       0.00492378      -0.00058481       0.00735942
In       1.37422725       2.63314726       4.78539642        2       0.00492378       0.00058481      -0.00735942
In       1.36513931       5.42314783       6.88201408        3      -0.00492378       0.00058481       0.00735942
In       4.11359381       2.63314726       6.88201408        4       0.00492378       0.00058481       0.00735942
In       4.10450587       5.42314783       4.78539642        5      -0.00492378       0.00058481      -0.00735942
In       4.10450587       2.94685387       2.99287724        6      -0.00492378      -0.00058481       0.00735942
In       4.11359381       0.15685330       0.89625959        7       0.00492378      -0.00058481      -0.00735942
O        2.12969091       3.37476428       6.62079031        8       0.00401569      -0.00641775       0.01096346
O        0.60967565       0.58476371       5.04662018        9      -0.00401569      -0.00641775      -0.01096346
O        0.60967565       2.20523686       2.73165348       10      -0.00401569       0.00641775       0.01096346
O        2.12969091       4.99523742       1.15748335       11       0.00401569       0.00641775      -0.01096346
O        3.34904222       2.20523686       1.15748335       12      -0.00401569       0.00641775      -0.01096346
O        4.86905747       4.99523742       2.73165348       13       0.00401569       0.00641775       0.01096346
O        4.86905747       3.37476428       5.04662018       14       0.00401569      -0.00641775      -0.01096346
O        3.34904222       0.58476371       6.62079031       15      -0.00401569      -0.00641775       0.01096346
O        5.26544550       4.18500085       0.00000000       16      -0.00162716      -0.00000000       0.00000000
O        2.95265418       1.39500028       3.88913683       17       0.00162716      -0.00000000      -0.00000000
O        0.21328762       1.39500028       0.00000000       18       0.00162716      -0.00000000       0.00000000
O        2.52607894       4.18500085       3.88913683       19      -0.00162716       0.00000000      -0.00000000
20
Lattice="5.47970744924462 -3.6402826910414663e-60 -7.334815160083476e-44 -3.8436943879422546e-59 5.5778758282654435 -9.453621534441584e-17 5.149324054121246e-43 4.351628318801221e-17 7.779853820454673" Properties=species:S:1:pos:R:3:spacegroup_kinds:I:1:forces:R:3 spacegroup="P 1" unit_cell=conventional occupancy="_JSON {\"0\": {\"In\": 1}, \"1\": {\"In\": 1}, \"2\": {\"In\": 1}, \"3\": {\"In\": 1}, \"4\": {\"In\": 1}, \"5\": {\"In\": 1}, \"6\": {\"In\": 1}, \"7\": {\"In\": 1}, \"8\": {\"O\": 1}, \"9\": {\"O\": 1}, \"10\": {\"O\": 1}, \"11\": {\"O\": 1}, \"12\": {\"O\": 1}, \"13\": {\"O\": 1}, \"14\": {\"O\": 1}, \"15\": {\"O\": 1}, \"16\": {\"O\": 1}, \"17\": {\"O\": 1}, \"18\": {\"O\": 1}, \"19\": {\"O\": 1}}" n_minim_iter=8 energy=-22574.888094675574 stress="-0.001281853074048407 -3.208686068674144e-13 9.006671199578035e-14 -3.208686068674144e-13 -0.001307493697141641 3.1800945787013003e-13 9.006671199578035e-14 3.1800945787013003e-13 -0.001186162103335919" free_energy=-22574.888094675574 pbc="T T T"
In       1.36488878       2.94526058       0.89642271        0      -0.00059579       0.00235604       0.00207860
In       1.37496494       0.15632266       2.99350420        1       0.00059579       0.00235604      -0.00207860
In       1.37496494       2.63261525       4.78634962        2       0.00059579      -0.00235604       0.00207860
In       1.36488878       5.42155317       6.88343111        3      -0.00059579      -0.00235604      -0.00207860
In       4.11481866       2.63261525       6.88343111        4       0.00059579      -0.00235604      -0.00207860
In       4.10474251       5.42155317       4.78634962        5      -0.00059579      -0.00235604       0.00207860
In       4.10474251       2.94526058       2.99350420        6      -0.00059579       0.00235604      -0.00207860
In       4.11481866       0.15632266       0.89642271        7       0.00059579       0.00235604       0.00207860
O        2.13025444       3.37301661       6.62320078        8       0.00123745      -0.00607475      -0.00001671
O        0.60959929       0.58407870       5.04657995        9      -0.00123745      -0.00607475       0.00001671
O        0.60959929       2.20485921       2.73327387       10      -0.00123745       0.00607475      -0.00001671
O        2.13025444       4.99379713       1.15665304       11       0.00123745       0.00607475       0.00001671
O        3.34945301       2.20485921       1.15665304       12      -0.00123745       0.00607475       0.00001671
O        4.87010816       4.99379713       2.73327387       13       0.00123745       0.00607475      -0.00001671
O        4.87010816       3.37301661       5.04657995       14       0.00123745      -0.00607475       0.00001671
O        3.34945301       0.58407870       6.62320078       15      -0.00123745      -0.00607475      -0.00001671
O        5.26640294       4.18340687       0.00000000       16       0.00259453      -0.00000000       0.00000000
O        2.95315823       1.39446896       3.88992691       17      -0.00259453       0.00000000      -0.00000000
O        0.21330451       1.39446896       0.00000000       18      -0.00259453      -0.00000000       0.00000000
O        2.52654922       4.18340687       3.88992691       19       0.00259453      -0.00000000       0.00000000
