20
Lattice="5.7634248452626196 4.60677761571889e-62 -1.390172750862946e-43 -3.504897485770111e-61 5.9377161578083735 -4.348831046150821e-18 7.717767295942287e-43 -1.81280357597107e-18 8.638805419548161" Properties=species:S:1:pos:R:3:spacegroup_kinds:I:1:forces:R:3 spacegroup="P 1" unit_cell=conventional occupancy="_JSON {\"0\": {\"In\": 1}, \"1\": {\"In\": 1}, \"2\": {\"In\": 1}, \"3\": {\"In\": 1}, \"4\": {\"In\": 1}, \"5\": {\"In\": 1}, \"6\": {\"In\": 1}, \"7\": {\"In\": 1}, \"8\": {\"O\": 1}, \"9\": {\"O\": 1}, \"10\": {\"O\": 1}, \"11\": {\"O\": 1}, \"12\": {\"O\": 1}, \"13\": {\"O\": 1}, \"14\": {\"O\": 1}, \"15\": {\"O\": 1}, \"16\": {\"O\": 1}, \"17\": {\"O\": 1}, \"18\": {\"O\": 1}, \"19\": {\"O\": 1}}" n_minim_iter=9 energy=-22574.04961010221 stress="0.04142261178116629 1.3825321481617773e-14 -2.39473609143276e-13 1.3825321481617773e-14 0.04133860636949676 2.1717529174972365e-13 -2.39473609143276e-13 2.1717529174972365e-13 0.04133608418745155" free_energy=-22574.04961010221 pbc="T T T"
In       1.39209600       3.18871333       1.03941374        0      -0.00368614      -0.00256707       0.00285228
In       1.48961642       0.21985525       3.27998897        1       0.00368614      -0.00256707      -0.00285228
In       1.48961642       2.74900282       5.35881645        2       0.00368614       0.00256707       0.00285228
In       1.39209600       5.71786090       7.59939168        3      -0.00368614       0.00256707      -0.00285228
In       4.37132884       2.74900282       7.59939168        4       0.00368614       0.00256707      -0.00285228
In       4.27380843       5.71786090       5.35881645        5      -0.00368614       0.00256707       0.00285228
In       4.27380843       3.18871333       3.27998897        6      -0.00368614      -0.00256707      -0.00285228
In       4.37132884       0.21985525       1.03941374        7       0.00368614      -0.00256707       0.00285228
O        2.25435347       3.52296960       7.31971432        8      -0.00039662      -0.00370552       0.00430491
O        0.62735896       0.55411152       5.63849381        9       0.00039662      -0.00370552      -0.00430491
O        0.62735896       2.41474656       3.00031161       10       0.00039662       0.00370552       0.00430491
O        2.25435347       5.38360463       1.31909110       11      -0.00039662       0.00370552      -0.00430491
O        3.50907138       2.41474656       1.31909110       12       0.00039662       0.00370552      -0.00430491
O        5.13606589       5.38360463       3.00031161       13      -0.00039662       0.00370552       0.00430491
O        5.13606589       3.52296960       5.63849381       14      -0.00039662      -0.00370552      -0.00430491
O        3.50907138       0.55411152       7.31971432       15       0.00039662      -0.00370552       0.00430491
O        5.48278006       4.45328712       0.00000000       16       0.00005733       0.00000000      -0.00000000
O        3.16235721       1.48442904       4.31940271       17      -0.00005733       0.00000000       0.00000000
O        0.28064479       1.48442904       0.00000000       18      -0.00005733      -0.00000000       0.00000000
O        2.60106763       4.45328712       4.31940271       19       0.00005733      -0.00000000      -0.00000000
