20
Lattice="5.6418167059629925 4.555382794677811e-62 -2.5273170309037004e-44 -4.2288914503403455e-62 5.721369526375932 -4.608770294383912e-18 3.2525236414508033e-44 -2.75050138142145e-18 8.163207079561028" Properties=species:S:1:pos:R:3:spacegroup_kinds:I:1:forces:R:3 spacegroup="P 1" unit_cell=conventional occupancy="_JSON {\"0\": {\"In\": 1}, \"1\": {\"In\": 1}, \"2\": {\"In\": 1}, \"3\": {\"In\": 1}, \"4\": {\"In\": 1}, \"5\": {\"In\": 1}, \"6\": {\"In\": 1}, \"7\": {\"In\": 1}, \"8\": {\"O\": 1}, \"9\": {\"O\": 1}, \"10\": {\"O\": 1}, \"11\": {\"O\": 1}, \"12\": {\"O\": 1}, \"13\": {\"O\": 1}, \"14\": {\"O\": 1}, \"15\": {\"O\": 1}, \"16\": {\"O\": 1}, \"17\": {\"O\": 1}, \"18\": {\"O\": 1}, \"19\": {\"O\": 1}}" n_minim_iter=4 energy=-22574.936626082937 stress="0.008330124653913258 1.0420981657229454e-13 1.772138604778288e-14 1.0420981657229454e-13 0.008346861451457615 2.210363491089469e-13 1.772138604778288e-14 2.210363491089469e-13 0.008349542964689555" free_energy=-22574.936626082937 pbc="T T T"
In       1.39778936       3.01911242       0.93832637        0       0.00003577       0.00176949       0.00540966
In       1.42311899       0.15842766       3.14327717        1      -0.00003577       0.00176949      -0.00540966
In       1.42311899       2.70225711       5.01992991        2      -0.00003577      -0.00176949       0.00540966
In       1.39778936       5.56294187       7.22488071        3       0.00003577      -0.00176949      -0.00540966
In       4.24402735       2.70225711       7.22488071        4      -0.00003577      -0.00176949      -0.00540966
In       4.21869771       5.56294187       5.01992991        5       0.00003577      -0.00176949       0.00540966
In       4.21869771       3.01911242       3.14327717        6       0.00003577       0.00176949      -0.00540966
In       4.24402735       0.15842766       0.93832637        7      -0.00003577       0.00176949       0.00540966
O        2.20224693       3.45362412       6.93235237        8       0.00220718      -0.00106157       0.00877003
O        0.61866142       0.59293936       5.31245825        9      -0.00220718      -0.00106157      -0.00877003
O        0.61866142       2.26774541       2.85074883       10      -0.00220718       0.00106157       0.00877003
O        2.20224693       5.12843017       1.23085471       11       0.00220718       0.00106157      -0.00877003
O        3.43956978       2.26774541       1.23085471       12      -0.00220718       0.00106157      -0.00877003
O        5.02315528       5.12843017       2.85074883       13       0.00220718       0.00106157       0.00877003
O        5.02315528       3.45362412       5.31245825       14       0.00220718      -0.00106157      -0.00877003
O        3.43956978       0.59293936       6.93235237       15      -0.00220718      -0.00106157       0.00877003
O        5.40271340       4.29102714      -0.00000000       16      -0.00012003       0.00000000      -0.00000000
O        3.06001166       1.43034238       4.08160354       17       0.00012003       0.00000000      -0.00000000
O        0.23910331       1.43034238      -0.00000000       18       0.00012003      -0.00000000      -0.00000000
O        2.58180504       4.29102714       4.08160354       19      -0.00012003      -0.00000000      -0.00000000
