20
Lattice="5.776919559790849 -3.3059534978634184e-61 -2.8873832241016955e-43 6.596039753801509e-62 5.853526114752158 -5.382384263053749e-18 4.1796780680491494e-43 7.689389556796122e-18 8.362472907438187" Properties=species:S:1:pos:R:3:spacegroup_kinds:I:1:forces:R:3 spacegroup="P 1" unit_cell=conventional occupancy="_JSON {\"0\": {\"In\": 1}, \"1\": {\"In\": 1}, \"2\": {\"In\": 1}, \"3\": {\"In\": 1}, \"4\": {\"In\": 1}, \"5\": {\"In\": 1}, \"6\": {\"In\": 1}, \"7\": {\"In\": 1}, \"8\": {\"O\": 1}, \"9\": {\"O\": 1}, \"10\": {\"O\": 1}, \"11\": {\"O\": 1}, \"12\": {\"O\": 1}, \"13\": {\"O\": 1}, \"14\": {\"O\": 1}, \"15\": {\"O\": 1}, \"16\": {\"O\": 1}, \"17\": {\"O\": 1}, \"18\": {\"O\": 1}, \"19\": {\"O\": 1}}" n_minim_iter=1 energy=-22574.520904616227 stress="0.03479938252270844 -1.0622651554473964e-14 -3.251266600653735e-14 -1.0622651554473964e-14 0.03456771118548987 -1.4937641901145866e-13 -3.251266600653735e-14 -1.4937641901145866e-13 0.0335834578955709" free_energy=-22574.520904616227 pbc="T T T"
In       1.42526176       3.09197926       0.97374364        0      -0.03162427       0.00778064       0.02880303
In       1.46319802       0.16521620       3.20749282        1       0.03162427       0.00778064      -0.02880303
In       1.46319802       2.76154686       5.15498009        2       0.03162427      -0.00778064       0.02880303
In       1.42526176       5.68830992       7.38872927        3      -0.03162427      -0.00778064      -0.02880303
In       4.35165780       2.76154686       7.38872927        4       0.03162427      -0.00778064      -0.02880303
In       4.31372154       5.68830992       5.15498009        5      -0.03162427      -0.00778064       0.02880303
In       4.31372154       3.09197926       3.20749282        6      -0.03162427       0.00778064      -0.02880303
In       4.35165780       0.16521620       0.97374364        7       0.03162427       0.00778064       0.02880303
O        2.25707027       3.52161439       7.10402059        8       0.00734867      -0.04673921      -0.02678231
O        0.63138951       0.59485133       5.43968877        9      -0.00734867      -0.04673921       0.02678231
O        0.63138951       2.33191172       2.92278413       10      -0.00734867       0.04673921      -0.02678231
O        2.25707027       5.25867478       1.25845232       11       0.00734867       0.04673921       0.02678231
O        3.51984929       2.33191172       1.25845232       12      -0.00734867       0.04673921       0.02678230
O        5.14553005       5.25867478       2.92278413       13       0.00734867       0.04673921      -0.02678230
O        5.14553005       3.52161439       5.43968877       14       0.00734867      -0.04673921       0.02678231
O        3.51984929       0.59485133       7.10402059       15      -0.00734867      -0.04673921      -0.02678231
O        5.51006281       4.39014459       0.00000000       16      -0.06396908       0.00000000      -0.00000000
O        3.15531653       1.46338153       4.18123645       17       0.06396908      -0.00000000       0.00000000
O        0.26685675       1.46338153       0.00000000       18       0.06396908       0.00000000      -0.00000000
O        2.62160303       4.39014459       4.18123645       19      -0.06396908       0.00000000       0.00000000
20
Lattice="5.769833130681656 -2.6570960127530578e-61 -2.8718927924316793e-43 6.27141800660933e-62 5.849792039466788 -6.711393039829386e-18 4.2144805617549094e-43 5.79741576553866e-18 8.378088122052676" Properties=species:S:1:pos:R:3:spacegroup_kinds:I:1:forces:R:3 spacegroup="P 1" unit_cell=conventional occupancy="_JSON {\"0\": {\"In\": 1}, \"1\": {\"In\": 1}, \"2\": {\"In\": 1}, \"3\": {\"In\": 1}, \"4\": {\"In\": 1}, \"5\": {\"In\": 1}, \"6\": {\"In\": 1}, \"7\": {\"In\": 1}, \"8\": {\"O\": 1}, \"9\": {\"O\": 1}, \"10\": {\"O\": 1}, \"11\": {\"O\": 1}, \"12\": {\"O\": 1}, \"13\": {\"O\": 1}, \"14\": {\"O\": 1}, \"15\": {\"O\": 1}, \"16\": {\"O\": 1}, \"17\": {\"O\": 1}, \"18\": {\"O\": 1}, \"19\": {\"O\": 1}}" n_minim_iter=2 energy=-22574.521451648892 stress="0.03372532859415604 -5.571851939704344e-13 -1.6239072884721555e-14 -5.571851939704344e-13 0.03389676824889076 -1.0055494273082183e-13 -1.6239072884721555e-14 -1.0055494273082183e-13 0.03471381728234885" free_energy=-22574.521451648892 pbc="T T T"
In       1.42322930       3.09007677       0.97582149        0      -0.03405857       0.00701038       0.03245628
In       1.46168727       0.16518075       3.21322258        1       0.03405857       0.00701038      -0.03245628
In       1.46168727       2.75971527       5.16486555        2       0.03405857      -0.00701038       0.03245628
In       1.42322930       5.68461129       7.40226664        3      -0.03405857      -0.00701038      -0.03245628
In       4.34660383       2.75971527       7.40226664        4       0.03405857      -0.00701038      -0.03245628
In       4.30814586       5.68461129       5.16486555        5      -0.03405857      -0.00701038       0.03245628
In       4.30814586       3.09007677       3.21322258        6      -0.03405857       0.00701038      -0.03245628
In       4.34660383       0.16518075       0.97582149        7       0.03405857       0.00701038       0.03245628
O        2.25436759       3.51894772       7.11704453        8       0.00100015      -0.04374982      -0.03187188
O        0.63054898       0.59405170       5.45008765        9      -0.00100015      -0.04374982       0.03187188
O        0.63054898       2.33084432       2.92800047       10      -0.00100015       0.04374982      -0.03187188
O        2.25436759       5.25574034       1.26104359       11       0.00100015       0.04374982       0.03187188
O        3.51546554       2.33084432       1.26104359       12      -0.00100015       0.04374982       0.03187188
O        5.13928415       5.25574034       2.92800047       13       0.00100015       0.04374982      -0.03187188
O        5.13928415       3.51894772       5.45008765       14       0.00100015      -0.04374982       0.03187188
O        3.51546554       0.59405170       7.11704453       15      -0.00100015      -0.04374982      -0.03187188
O        5.50272901       4.38734403       0.00000000       16      -0.05759802       0.00000000       0.00000000
O        3.15202069       1.46244801       4.18904406       17       0.05759802      -0.00000000       0.00000000
O        0.26710412       1.46244801       0.00000000       18       0.05759802       0.00000000      -0.00000000
O        2.61781244       4.38734403       4.18904406       19      -0.05759802       0.00000000       0.00000000
20
Lattice="5.7689933837959195 -2.2773678255296855e-61 -2.872156912825654e-43 6.2588656715816796e-62 5.851026226478171 -7.486676232070421e-18 4.213233658358719e-43 4.6901805755319566e-18 8.37754016389251" Properties=species:S:1:pos:R:3:spacegroup_kinds:I:1:forces:R:3 spacegroup="P 1" unit_cell=conventional occupancy="_JSON {\"0\": {\"In\": 1}, \"1\": {\"In\": 1}, \"2\": {\"In\": 1}, \"3\": {\"In\": 1}, \"4\": {\"In\": 1}, \"5\": {\"In\": 1}, \"6\": {\"In\": 1}, \"7\": {\"In\": 1}, \"8\": {\"O\": 1}, \"9\": {\"O\": 1}, \"10\": {\"O\": 1}, \"11\": {\"O\": 1}, \"12\": {\"O\": 1}, \"13\": {\"O\": 1}, \"14\": {\"O\": 1}, \"15\": {\"O\": 1}, \"16\": {\"O\": 1}, \"17\": {\"O\": 1}, \"18\": {\"O\": 1}, \"19\": {\"O\": 1}}" n_minim_iter=3 energy=-22574.525148869696 stress="0.033112809491975904 4.3085835546126153e-13 -1.229875586006299e-13 4.3085835546126153e-13 0.03279519129271841 1.9968313983994492e-13 -1.229875586006299e-13 1.9968313983994492e-13 0.033009353091431375" free_energy=-22574.525148869696 pbc="T T T"
In       1.41875550       3.09168213       0.97976584        0       0.00368709       0.04229336       0.00840737
In       1.46574119       0.16616901       3.20900424        1      -0.00368709       0.04229336      -0.00840737
In       1.46574119       2.75934410       5.16853592        2      -0.00368709      -0.04229336       0.00840737
In       1.41875550       5.68485721       7.39777433        3       0.00368709      -0.04229336      -0.00840737
In       4.35023788       2.75934410       7.39777433        4      -0.00368709      -0.04229336      -0.00840737
In       4.30325219       5.68485721       5.16853592        5       0.00368709      -0.04229336       0.00840737
In       4.30325219       3.09168213       3.20900424        6       0.00368709       0.04229336      -0.00840737
In       4.35023788       0.16616901       0.97976584        7      -0.00368709       0.04229336       0.00840737
O        2.25453847       3.51384604       7.11273076        8       0.00376310      -0.01169882       0.01811815
O        0.62995822       0.58833293       5.45357949        9      -0.00376310      -0.01169882      -0.01811815
O        0.62995822       2.33718019       2.92396068       10      -0.00376310       0.01169882       0.01811815
O        2.25453847       5.26269330       1.26480941       11       0.00376310       0.01169882      -0.01811815
O        3.51445491       2.33718019       1.26480941       12      -0.00376310       0.01169882      -0.01811815
O        5.13903516       5.26269330       2.92396068       13       0.00376310       0.01169882       0.01811815
O        5.13903516       3.51384604       5.45357949       14       0.00376310      -0.01169882      -0.01811815
O        3.51445491       0.58833293       7.11273076       15      -0.00376310      -0.01169882       0.01811815
O        5.49410212       4.38826967       0.00000000       16       0.00773259      -0.00000000      -0.00000000
O        3.15938796       1.46275656       4.18877008       17      -0.00773259      -0.00000000       0.00000000
O        0.27489127       1.46275656       0.00000000       18      -0.00773259       0.00000000      -0.00000000
O        2.60960543       4.38826967       4.18877008       19       0.00773259      -0.00000000       0.00000000
20
Lattice="5.761654974593078 -1.3021014617306493e-61 -2.7089540988918307e-43 2.522627839332644e-62 5.860112865353853 -9.50237178122385e-18 4.5981651126546156e-43 1.813361120744891e-18 8.375203646068108" Properties=species:S:1:pos:R:3:spacegroup_kinds:I:1:forces:R:3 spacegroup="P 1" unit_cell=conventional occupancy="_JSON {\"0\": {\"In\": 1}, \"1\": {\"In\": 1}, \"2\": {\"In\": 1}, \"3\": {\"In\": 1}, \"4\": {\"In\": 1}, \"5\": {\"In\": 1}, \"6\": {\"In\": 1}, \"7\": {\"In\": 1}, \"8\": {\"O\": 1}, \"9\": {\"O\": 1}, \"10\": {\"O\": 1}, \"11\": {\"O\": 1}, \"12\": {\"O\": 1}, \"13\": {\"O\": 1}, \"14\": {\"O\": 1}, \"15\": {\"O\": 1}, \"16\": {\"O\": 1}, \"17\": {\"O\": 1}, \"18\": {\"O\": 1}, \"19\": {\"O\": 1}}" n_minim_iter=4 energy=-22574.525519330517 stress="0.03204976247125318 1.789537154954943e-13 -3.697293678796344e-13 1.789537154954943e-13 0.03355715838008452 -9.448479576959958e-14 -3.697293678796344e-13 -9.448479576959958e-14 0.03257734850919349" free_energy=-22574.525519330517 pbc="T T T"
In       1.41633044       3.09794266       0.98043943        0       0.00056198       0.04910617       0.00254952
In       1.46449705       0.16788623       3.20716240        1      -0.00056198       0.04910617      -0.00254952
In       1.46449705       2.76217020       5.16804125        2      -0.00056198      -0.04910617       0.00254952
In       1.41633044       5.69222663       7.39476422        3       0.00056198      -0.04910617      -0.00254952
In       4.34532453       2.76217020       7.39476422        4      -0.00056198      -0.04910617      -0.00254952
In       4.29715793       5.69222663       5.16804125        5       0.00056198      -0.04910617       0.00254952
In       4.29715793       3.09794266       3.20716240        6       0.00056198       0.04910617      -0.00254952
In       4.34532453       0.16788623       0.98043943        7      -0.00056198       0.04910617       0.00254952
O        2.25187186       3.51793761       7.11064204        8       0.00508052      -0.00796719       0.01980662
O        0.62895563       0.58788118       5.45216343        9      -0.00508052      -0.00796719      -0.01980662
O        0.62895563       2.34217525       2.92304022       10      -0.00508052       0.00796719       0.01980662
O        2.25187186       5.27223169       1.26456160       11       0.00508052       0.00796719      -0.01980662
O        3.50978312       2.34217525       1.26456160       12      -0.00508052       0.00796719      -0.01980662
O        5.13269934       5.27223169       2.92304022       13       0.00508052       0.00796719       0.01980662
O        5.13269934       3.51793761       5.45216343       14       0.00508052      -0.00796719      -0.01980662
O        3.50978312       0.58788118       7.11064204       15      -0.00508052      -0.00796719       0.01980662
O        5.48600361       4.39508465       0.00000000       16       0.01300106       0.00000000      -0.00000000
O        3.15647886       1.46502822       4.18760182       17      -0.01300106      -0.00000000       0.00000000
O        0.27565137       1.46502822       0.00000000       18      -0.01300106       0.00000000       0.00000000
O        2.60517612       4.39508465       4.18760182       19       0.01300106       0.00000000      -0.00000000
20
Lattice="5.761516315617591 -2.0794135937505036e-61 -2.7115901603224717e-43 2.7294942006513633e-62 5.861096615877255 -7.817699566482554e-18 4.583969055352594e-43 4.2184725001093796e-18 8.373999444695245" Properties=species:S:1:pos:R:3:spacegroup_kinds:I:1:forces:R:3 spacegroup="P 1" unit_cell=conventional occupancy="_JSON {\"0\": {\"In\": 1}, \"1\": {\"In\": 1}, \"2\": {\"In\": 1}, \"3\": {\"In\": 1}, \"4\": {\"In\": 1}, \"5\": {\"In\": 1}, \"6\": {\"In\": 1}, \"7\": {\"In\": 1}, \"8\": {\"O\": 1}, \"9\": {\"O\": 1}, \"10\": {\"O\": 1}, \"11\": {\"O\": 1}, \"12\": {\"O\": 1}, \"13\": {\"O\": 1}, \"14\": {\"O\": 1}, \"15\": {\"O\": 1}, \"16\": {\"O\": 1}, \"17\": {\"O\": 1}, \"18\": {\"O\": 1}, \"19\": {\"O\": 1}}" n_minim_iter=5 energy=-22574.52805957135 stress="0.031775501737964715 -1.1432333513146827e-13 1.0397379709464227e-13 -1.1432333513146827e-13 0.031048277301748854 -1.4018227234967077e-13 1.0397379709464227e-13 -1.4018227234967077e-13 0.03126518695493114" free_energy=-22574.52805957135 pbc="T T T"
In       1.41255232       3.11037497       0.98640509        0       0.00683531       0.02590473      -0.01289654
In       1.46820584       0.17982666       3.20059463        1      -0.00683531       0.02590473       0.01289654
In       1.46820584       2.75072165       5.17340481        2      -0.00683531      -0.02590473      -0.01289654
In       1.41255232       5.68126996       7.38759436        3       0.00683531      -0.02590473       0.01289654
In       4.34896400       2.75072165       7.38759436        4      -0.00683531      -0.02590473       0.01289654
In       4.29331048       5.68126996       5.17340481        5       0.00683531      -0.02590473      -0.01289654
In       4.29331048       3.11037497       3.20059463        6       0.00683531       0.02590473       0.01289654
In       4.34896400       0.17982666       0.98640509        7      -0.00683531       0.02590473      -0.01289654
O        2.25334594       3.50954046       7.11015855        8       0.00323426       0.00854950       0.03087444
O        0.62741222       0.57899215       5.45084062        9      -0.00323426       0.00854950      -0.03087444
O        0.62741222       2.35155616       2.92315883       10      -0.00323426      -0.00854950       0.03087444
O        2.25334594       5.28210446       1.26384089       11       0.00323426      -0.00854950      -0.03087444
O        3.50817038       2.35155616       1.26384089       12      -0.00323426      -0.00854950      -0.03087444
O        5.13410410       5.28210446       2.92315883       13       0.00323426      -0.00854950       0.03087444
O        5.13410410       3.50954046       5.45084062       14       0.00323426       0.00854950      -0.03087444
O        3.50817038       0.57899215       7.11015855       15      -0.00323426       0.00854950       0.03087444
O        5.47972189       4.39582246       0.00000000       16       0.05270979      -0.00000000       0.00000000
O        3.16255258       1.46527415       4.18699972       17      -0.05270979       0.00000000      -0.00000000
O        0.28179442       1.46527415       0.00000000       18      -0.05270979      -0.00000000       0.00000000
O        2.59896374       4.39582246       4.18699972       19       0.05270979      -0.00000000      -0.00000000
20
Lattice="5.759026167449992 -2.080346659503502e-61 -2.7519887204027977e-43 2.38770237602464e-62 5.865623410906828 -7.815043946855016e-18 4.619204638791716e-43 4.221730620832753e-18 8.371154853764473" Properties=species:S:1:pos:R:3:spacegroup_kinds:I:1:forces:R:3 spacegroup="P 1" unit_cell=conventional occupancy="_JSON {\"0\": {\"In\": 1}, \"1\": {\"In\": 1}, \"2\": {\"In\": 1}, \"3\": {\"In\": 1}, \"4\": {\"In\": 1}, \"5\": {\"In\": 1}, \"6\": {\"In\": 1}, \"7\": {\"In\": 1}, \"8\": {\"O\": 1}, \"9\": {\"O\": 1}, \"10\": {\"O\": 1}, \"11\": {\"O\": 1}, \"12\": {\"O\": 1}, \"13\": {\"O\": 1}, \"14\": {\"O\": 1}, \"15\": {\"O\": 1}, \"16\": {\"O\": 1}, \"17\": {\"O\": 1}, \"18\": {\"O\": 1}, \"19\": {\"O\": 1}}" n_minim_iter=6 energy=-22574.52923063417 stress="0.03135730149239648 4.420779098320503e-15 -2.2632081396558065e-13 4.420779098320503e-15 0.031219069212244994 -1.839806931861658e-13 -2.2632081396558065e-13 -1.839806931861658e-13 0.031426047177930086" free_energy=-22574.52923063417 pbc="T T T"
In       1.41250005       3.11666148       0.98627589        0      -0.01142961       0.00549932      -0.00475978
In       1.46701303       0.18384977       3.19930154        1       0.01142961       0.00549931       0.00475978
In       1.46701303       2.74896193       5.17185332        2       0.01142961      -0.00549931      -0.00475978
In       1.41250005       5.68177364       7.38487896        3      -0.01142961      -0.00549931       0.00475978
In       4.34652612       2.74896193       7.38487896        4       0.01142961      -0.00549931       0.00475978
In       4.29201314       5.68177364       5.17185332        5      -0.01142961      -0.00549931      -0.00475978
In       4.29201314       3.11666148       3.19930154        6      -0.01142961       0.00549931       0.00475978
In       4.34652612       0.18384977       0.98627589        7       0.01142961       0.00549931      -0.00475978
O        2.25270576       3.51178994       7.10987675        8       0.00149029      -0.00125690       0.00890995
O        0.62680733       0.57897823       5.44685553        9      -0.00149029      -0.00125690      -0.00890995
O        0.62680733       2.35383347       2.92429932       10      -0.00149029       0.00125690       0.00890995
O        2.25270576       5.28664518       1.26127810       11       0.00149029       0.00125690      -0.00890995
O        3.50632041       2.35383347       1.26127810       12      -0.00149029       0.00125690      -0.00890995
O        5.13221884       5.28664518       2.92429932       13       0.00149029       0.00125690       0.00890995
O        5.13221884       3.51178994       5.44685553       14       0.00149029      -0.00125690      -0.00890995
O        3.50632041       0.57897823       7.10987675       15      -0.00149029      -0.00125690       0.00890995
O        5.47922458       4.39921756       0.00000000       16       0.02867744      -0.00000000       0.00000000
O        3.15931467       1.46640585       4.18557743       17      -0.02867744      -0.00000000      -0.00000000
O        0.27980159       1.46640585       0.00000000       18      -0.02867744      -0.00000000       0.00000000
O        2.59971150       4.39921756       4.18557743       19       0.02867744       0.00000000      -0.00000000
20
Lattice="5.758551889064358 -2.0808172264362942e-61 -2.8605817136527947e-43 9.753211458306324e-63 5.868307663470915 -7.812112585812303e-18 4.770614927517172e-43 4.223662587897462e-18 8.36801489992829" Properties=species:S:1:pos:R:3:spacegroup_kinds:I:1:forces:R:3 spacegroup="P 1" unit_cell=conventional occupancy="_JSON {\"0\": {\"In\": 1}, \"1\": {\"In\": 1}, \"2\": {\"In\": 1}, \"3\": {\"In\": 1}, \"4\": {\"In\": 1}, \"5\": {\"In\": 1}, \"6\": {\"In\": 1}, \"7\": {\"In\": 1}, \"8\": {\"O\": 1}, \"9\": {\"O\": 1}, \"10\": {\"O\": 1}, \"11\": {\"O\": 1}, \"12\": {\"O\": 1}, \"13\": {\"O\": 1}, \"14\": {\"O\": 1}, \"15\": {\"O\": 1}, \"16\": {\"O\": 1}, \"17\": {\"O\": 1}, \"18\": {\"O\": 1}, \"19\": {\"O\": 1}}" n_minim_iter=7 energy=-22574.529411148887 stress="0.03127425121438502 -5.2622866876801783e-14 -7.687436088401414e-13 -5.2622866876801783e-14 0.031276484298938964 2.556501225363531e-13 -7.687436088401414e-13 2.556501225363531e-13 0.03126899746392101" free_energy=-22574.529411148887 pbc="T T T"
In       1.41222254       3.12019306       0.98619391        0      -0.01577454      -0.00290716      -0.00181021
In       1.46705340       0.18603923       3.19781354        1       0.01577454      -0.00290716       0.00181021
In       1.46705340       2.74811460       5.17020136        2       0.01577454       0.00290716      -0.00181021
In       1.41222254       5.68226844       7.38182099        3      -0.01577454       0.00290716       0.00181021
In       4.34632935       2.74811460       7.38182099        4       0.01577454       0.00290716       0.00181021
In       4.29149849       5.68226844       5.17020136        5      -0.01577454       0.00290716      -0.00181021
In       4.29149849       3.12019306       3.19781354        6      -0.01577454      -0.00290716       0.00181021
In       4.34632935       0.18603923       0.98619391        7       0.01577454      -0.00290716      -0.00181021
O        2.25274277       3.51278204       7.10817641        8       0.00183865      -0.00472415       0.00082395
O        0.62653318       0.57862821       5.44384594        9      -0.00183865      -0.00472415      -0.00082395
O        0.62653318       2.35552563       2.92416896       10      -0.00183865       0.00472415       0.00082395
O        2.25274277       5.28967946       1.25983849       11       0.00183865       0.00472415      -0.00082395
O        3.50580912       2.35552563       1.25983849       12      -0.00183865       0.00472415      -0.00082395
O        5.13201871       5.28967946       2.92416896       13       0.00183865       0.00472415       0.00082395
O        5.13201871       3.51278204       5.44384594       14       0.00183865      -0.00472415      -0.00082395
O        3.50580912       0.57862821       7.10817641       15      -0.00183865      -0.00472415       0.00082395
O        5.47964180       4.40123075       0.00000000       16       0.01820537      -0.00000000      -0.00000000
O        3.15818603       1.46707692       4.18400745       17      -0.01820537       0.00000000      -0.00000000
O        0.27891009       1.46707692       0.00000000       18      -0.01820537      -0.00000000      -0.00000000
O        2.60036586       4.40123075       4.18400745       19       0.01820537      -0.00000000      -0.00000000
20
Lattice="5.757206669134731 -2.0811756296293043e-61 -2.700051892172662e-43 3.1692190290857487e-62 5.871061871905648 -7.810272309370395e-18 4.535145782321159e-43 4.225644905081932e-18 8.366043671209209" Properties=species:S:1:pos:R:3:spacegroup_kinds:I:1:forces:R:3 spacegroup="P 1" unit_cell=conventional occupancy="_JSON {\"0\": {\"In\": 1}, \"1\": {\"In\": 1}, \"2\": {\"In\": 1}, \"3\": {\"In\": 1}, \"4\": {\"In\": 1}, \"5\": {\"In\": 1}, \"6\": {\"In\": 1}, \"7\": {\"In\": 1}, \"8\": {\"O\": 1}, \"9\": {\"O\": 1}, \"10\": {\"O\": 1}, \"11\": {\"O\": 1}, \"12\": {\"O\": 1}, \"13\": {\"O\": 1}, \"14\": {\"O\": 1}, \"15\": {\"O\": 1}, \"16\": {\"O\": 1}, \"17\": {\"O\": 1}, \"18\": {\"O\": 1}, \"19\": {\"O\": 1}}" n_minim_iter=8 energy=-22574.5295430616 stress="0.03106261859357617 3.9899379583025844e-13 1.2766634468662734e-13 3.9899379583025844e-13 0.03120654429235454 -2.432189044241238e-13 1.2766634468662734e-13 -2.432189044241238e-13 0.031057506558359763" free_energy=-22574.5295430616 pbc="T T T"
In       1.41064720       3.12392051       0.98642609        0      -0.01110095      -0.00897615       0.00228242
In       1.46795613       0.18838958       3.19659574        1       0.01110095      -0.00897615      -0.00228242
In       1.46795613       2.74714136       5.16944793        2       0.01110095       0.00897615       0.00228242
In       1.41064720       5.68267230       7.37961758        3      -0.01110095       0.00897615      -0.00228242
In       4.34655947       2.74714136       7.37961758        4       0.01110095       0.00897615      -0.00228242
In       4.28925054       5.68267230       5.16944793        5      -0.01110095       0.00897615       0.00228242
In       4.28925054       3.12392051       3.19659574        6      -0.01110095      -0.00897615      -0.00228242
In       4.34655947       0.18838958       0.98642609        7       0.01110095      -0.00897615       0.00228242
O        2.25259553       3.51314690       7.10740503        8       0.00303231      -0.00623139      -0.00588628
O        0.62600780       0.57761597       5.44166047        9      -0.00303231      -0.00623139       0.00588628
O        0.62600780       2.35791497       2.92438320       10      -0.00303231       0.00623139      -0.00588628
O        2.25259553       5.29344590       1.25863864       11       0.00303231       0.00623139       0.00588628
O        3.50461114       2.35791497       1.25863864       12      -0.00303231       0.00623139       0.00588628
O        5.13119886       5.29344590       2.92438320       13       0.00303231       0.00623139      -0.00588628
O        5.13119886       3.51314690       5.44166047       14       0.00303231      -0.00623139       0.00588628
O        3.50461114       0.57761597       7.10740503       15      -0.00303231      -0.00623139      -0.00588628
O        5.47982998       4.40329640       0.00000000       16       0.00536132      -0.00000000       0.00000000
O        3.15598003       1.46776547       4.18302184       17      -0.00536132      -0.00000000      -0.00000000
O        0.27737669       1.46776547       0.00000000       18      -0.00536132       0.00000000       0.00000000
O        2.60122664       4.40329640       4.18302184       19       0.00536132      -0.00000000       0.00000000
20
Lattice="5.757052503652231 -3.847679172631327e-61 -2.6989884895255395e-43 2.87121604046032e-62 5.869462623316565 -4.051690793213273e-18 4.61538913627461e-43 9.595524153366242e-18 8.368547253089124" Properties=species:S:1:pos:R:3:spacegroup_kinds:I:1:forces:R:3 spacegroup="P 1" unit_cell=conventional occupancy="_JSON {\"0\": {\"In\": 1}, \"1\": {\"In\": 1}, \"2\": {\"In\": 1}, \"3\": {\"In\": 1}, \"4\": {\"In\": 1}, \"5\": {\"In\": 1}, \"6\": {\"In\": 1}, \"7\": {\"In\": 1}, \"8\": {\"O\": 1}, \"9\": {\"O\": 1}, \"10\": {\"O\": 1}, \"11\": {\"O\": 1}, \"12\": {\"O\": 1}, \"13\": {\"O\": 1}, \"14\": {\"O\": 1}, \"15\": {\"O\": 1}, \"16\": {\"O\": 1}, \"17\": {\"O\": 1}, \"18\": {\"O\": 1}, \"19\": {\"O\": 1}}" n_minim_iter=9 energy=-22574.529685782356 stress="0.031073212799681567 -2.279603550015744e-13 9.846199424467625e-14 -2.279603550015744e-13 0.03107242974361549 2.3957940747499187e-13 9.846199424467625e-14 2.3957940747499187e-13 0.031069475296787885" free_energy=-22574.529685782356 pbc="T T T"
In       1.40923559       3.12188708       0.98664937        0       0.00393061      -0.00169180       0.00251081
In       1.46929066       0.18715577       3.19762426        1      -0.00393061      -0.00169180      -0.00251081
In       1.46929066       2.74757554       5.17092299        2      -0.00393061       0.00169180       0.00251081
In       1.40923559       5.68230685       7.38189789        3       0.00393061       0.00169180      -0.00251081
In       4.34781691       2.74757554       7.38189789        4      -0.00393061       0.00169180      -0.00251081
In       4.28776184       5.68230685       5.17092299        5       0.00393061       0.00169180       0.00251081
In       4.28776184       3.12188708       3.19762426        6       0.00393061      -0.00169180      -0.00251081
In       4.34781691       0.18715577       0.98664937        7      -0.00393061      -0.00169180       0.00251081
O        2.25268219       3.51177948       7.10900643        8       0.00420813      -0.00247716      -0.00006796
O        0.62584406       0.57704817       5.44381445        9      -0.00420813      -0.00247716       0.00006796
O        0.62584406       2.35768314       2.92473281       10      -0.00420813       0.00247716      -0.00006796
O        2.25268219       5.29241445       1.25954082       11       0.00420813       0.00247716       0.00006796
O        3.50437031       2.35768314       1.25954082       12      -0.00420813       0.00247716       0.00006796
O        5.13120844       5.29241445       2.92473281       13       0.00420813       0.00247716      -0.00006796
O        5.13120844       3.51177948       5.44381445       14       0.00420813      -0.00247716       0.00006796
O        3.50437031       0.57704817       7.10900643       15      -0.00420813      -0.00247716      -0.00006796
O        5.48060362       4.40209697       0.00000000       16       0.00394038      -0.00000000       0.00000000
O        3.15497514       1.46736566       4.18427363       17      -0.00394038      -0.00000000      -0.00000000
O        0.27644889       1.46736566       0.00000000       18      -0.00394038      -0.00000000       0.00000000
O        2.60207737       4.40209697       4.18427363       19       0.00394038       0.00000000      -0.00000000
