20
Lattice="5.687317192728892 4.497218487464624e-62 -2.2660375322458517e-44 -3.7863497953172848e-62 5.767511595851983 1.9432985660101817e-18 3.278754803613017e-44 -2.7726838021251704e-18 8.229042237817458" Properties=species:S:1:pos:R:3:spacegroup_kinds:I:1:forces:R:3 spacegroup="P 1" unit_cell=conventional occupancy="_JSON {\"0\": {\"In\": 1}, \"1\": {\"In\": 1}, \"2\": {\"In\": 1}, \"3\": {\"In\": 1}, \"4\": {\"In\": 1}, \"5\": {\"In\": 1}, \"6\": {\"In\": 1}, \"7\": {\"In\": 1}, \"8\": {\"O\": 1}, \"9\": {\"O\": 1}, \"10\": {\"O\": 1}, \"11\": {\"O\": 1}, \"12\": {\"O\": 1}, \"13\": {\"O\": 1}, \"14\": {\"O\": 1}, \"15\": {\"O\": 1}, \"16\": {\"O\": 1}, \"17\": {\"O\": 1}, \"18\": {\"O\": 1}, \"19\": {\"O\": 1}}" n_minim_iter=1 energy=-22574.850951853106 stress="0.017954610259770142 -1.0238887926012186e-13 6.962016473306935e-14 -1.0238887926012186e-13 0.018591741746345578 4.3293079106204667e-13 6.962016473306935e-14 4.3293079106204667e-13 0.018372266196816197" free_energy=-22574.850951853106 pbc="T T T"
In       1.40906234       3.04346115       0.94589384        0      -0.01817753      -0.04157142       0.04028939
In       1.43459625       0.15970536       3.16862728        1       0.01817753      -0.04157142      -0.04028939
In       1.43459625       2.72405044       5.06041496        2       0.01817753       0.04157142       0.04028939
In       1.40906234       5.60780624       7.28314840        3      -0.01817753       0.04157142      -0.04028939
In       4.27825485       2.72405044       7.28314840        4       0.01817753       0.04157142      -0.04028939
In       4.25272094       5.60780624       5.06041496        5      -0.01817753       0.04157142       0.04028939
In       4.25272094       3.04346115       3.16862728        6      -0.01817753      -0.04157142      -0.04028939
In       4.27825485       0.15970536       0.94589384        7       0.01817753      -0.04157142       0.04028939
O        2.22000775       3.48147713       6.98826086        8       0.01653813      -0.03401306      -0.01120065
O        0.62365084       0.59772133       5.35530250        9      -0.01653813      -0.03401306       0.01120065
O        0.62365084       2.28603446       2.87373974       10      -0.01653813       0.03401306      -0.01120065
O        2.22000775       5.16979026       1.24078138       11       0.01653813       0.03401306       0.01120065
O        3.46730944       2.28603446       1.24078138       12      -0.01653813       0.03401306       0.01120065
O        5.06366635       5.16979026       2.87373974       13       0.01653813       0.03401306      -0.01120065
O        5.06366635       3.48147713       5.35530250       14       0.01653813      -0.03401306       0.01120065
O        3.46730944       0.59772133       6.98826086       15      -0.01653813      -0.03401306      -0.01120065
O        5.44628555       4.32563370      -0.00000000       16      -0.07664554      -0.00000000       0.00000000
O        3.08469024       1.44187790       4.11452112       17       0.07664554       0.00000000      -0.00000000
O        0.24103165       1.44187790      -0.00000000       18       0.07664554       0.00000000      -0.00000000
O        2.60262695       4.32563370       4.11452112       19      -0.07664554      -0.00000000       0.00000000
20
Lattice="5.695033202254246 4.501594989229773e-62 -2.2697514714217886e-44 -3.783496040448917e-62 5.761164764347159 1.9428036052005825e-18 3.27699426233815e-44 -2.7696326150376763e-18 8.226946289475038" Properties=species:S:1:pos:R:3:spacegroup_kinds:I:1:forces:R:3 spacegroup="P 1" unit_cell=conventional occupancy="_JSON {\"0\": {\"In\": 1}, \"1\": {\"In\": 1}, \"2\": {\"In\": 1}, \"3\": {\"In\": 1}, \"4\": {\"In\": 1}, \"5\": {\"In\": 1}, \"6\": {\"In\": 1}, \"7\": {\"In\": 1}, \"8\": {\"O\": 1}, \"9\": {\"O\": 1}, \"10\": {\"O\": 1}, \"11\": {\"O\": 1}, \"12\": {\"O\": 1}, \"13\": {\"O\": 1}, \"14\": {\"O\": 1}, \"15\": {\"O\": 1}, \"16\": {\"O\": 1}, \"17\": {\"O\": 1}, \"18\": {\"O\": 1}, \"19\": {\"O\": 1}}" n_minim_iter=2 energy=-22574.851719246657 stress="0.01886548659253158 -4.2230884777940084e-14 -4.327264926989268e-13 -4.2230884777940084e-14 0.01773273312192363 -4.3346302098523915e-14 -4.327264926989268e-13 -4.3346302098523915e-14 0.017835137390576124" free_energy=-22574.851719246657 pbc="T T T"
In       1.41071399       3.03951877       0.94622834        0      -0.00821321      -0.03613914       0.03603796
In       1.43680261       0.15893638       3.16724481        1       0.00821321      -0.03613914      -0.03603796
In       1.43680261       2.72164600       5.05970148        2       0.00821321       0.03613914       0.03603796
In       1.41071399       5.60222838       7.28071795        3      -0.00821321       0.03613914      -0.03603796
In       4.28431921       2.72164600       7.28071795        4       0.00821321       0.03613914      -0.03603796
In       4.25823059       5.60222838       5.05970148        5      -0.00821321       0.03613914       0.03603796
In       4.25823059       3.03951877       3.16724481        6      -0.00821321      -0.03613914      -0.03603796
In       4.28431921       0.15893638       0.94622834        7       0.00821321      -0.03613914       0.03603796
O        2.22325623       3.47716059       6.98632097        8       0.01521974      -0.03090397      -0.00327811
O        0.62426037       0.59657821       5.35409847        9      -0.01521974      -0.03090397       0.00327811
O        0.62426037       2.28400417       2.87284782       10      -0.01521974       0.03090397      -0.00327811
O        2.22325623       5.16458656       1.24062532       11       0.01521974       0.03090397       0.00327811
O        3.47177698       2.28400417       1.24062532       12      -0.01521974       0.03090397       0.00327811
O        5.07077283       5.16458656       2.87284782       13       0.01521974       0.03090397      -0.00327811
O        5.07077283       3.47716059       5.35409847       14       0.01521974      -0.03090397       0.00327811
O        3.47177698       0.59657821       6.98632097       15      -0.01521974      -0.03090397      -0.00327811
O        5.45257812       4.32087357      -0.00000000       16      -0.06418614       0.00000000      -0.00000000
O        3.08997168       1.44029119       4.11347314       17       0.06418614      -0.00000000       0.00000000
O        0.24245508       1.44029119      -0.00000000       18       0.06418614      -0.00000000       0.00000000
O        2.60506152       4.32087357       4.11347314       19      -0.06418614       0.00000000       0.00000000
20
Lattice="5.691856215070702 5.328654464941699e-62 -4.4454233611841773e-44 -4.5238471443148435e-62 5.758003183127162 -1.6813640564428236e-19 1.307894431186586e-45 -5.783056160625487e-18 8.236058011676324" Properties=species:S:1:pos:R:3:spacegroup_kinds:I:1:forces:R:3 spacegroup="P 1" unit_cell=conventional occupancy="_JSON {\"0\": {\"In\": 1}, \"1\": {\"In\": 1}, \"2\": {\"In\": 1}, \"3\": {\"In\": 1}, \"4\": {\"In\": 1}, \"5\": {\"In\": 1}, \"6\": {\"In\": 1}, \"7\": {\"In\": 1}, \"8\": {\"O\": 1}, \"9\": {\"O\": 1}, \"10\": {\"O\": 1}, \"11\": {\"O\": 1}, \"12\": {\"O\": 1}, \"13\": {\"O\": 1}, \"14\": {\"O\": 1}, \"15\": {\"O\": 1}, \"16\": {\"O\": 1}, \"17\": {\"O\": 1}, \"18\": {\"O\": 1}, \"19\": {\"O\": 1}}" n_minim_iter=3 energy=-22574.85360027251 stress="0.01769224908351139 -9.57592581948247e-13 -2.3208729076365224e-13 -9.57592581948247e-13 0.01705473111748313 -3.00061688397473e-13 -2.3208729076365224e-13 -3.00061688397473e-13 0.017972822357411093" free_energy=-22574.85360027251 pbc="T T T"
In       1.40906150       3.03550754       0.94957526        0      -0.00238462       0.00213695       0.01672097
In       1.43686661       0.15650595       3.16845375        1       0.00238462       0.00213695      -0.01672097
In       1.43686661       2.72249564       5.06760426        2       0.00238462      -0.00213695       0.01672097
In       1.40906150       5.60149723       7.28648276        3      -0.00238462      -0.00213695      -0.01672097
In       4.28279471       2.72249564       7.28648276        4       0.00238462      -0.00213695      -0.01672097
In       4.25498961       5.60149723       5.06760426        5      -0.00238462      -0.00213695       0.01672097
In       4.25498961       3.03550754       3.16845375        6      -0.00238462       0.00213695      -0.01672097
In       4.28279471       0.15650595       0.94957526        7       0.00238462       0.00213695       0.01672097
O        2.22296924       3.47330679       6.99356356        8       0.00128553      -0.00800154       0.00933526
O        0.62295887       0.59430520       5.36052346        9      -0.00128553      -0.00800154      -0.00933526
O        0.62295887       2.28469639       2.87553456       10      -0.00128553       0.00800154       0.00933526
O        2.22296924       5.16369798       1.24249445       11       0.00128553       0.00800154      -0.00933526
O        3.46888697       2.28469639       1.24249445       12      -0.00128553       0.00800154      -0.00933526
O        5.06889735       5.16369798       2.87553456       13       0.00128553       0.00800154       0.00933526
O        5.06889735       3.47330679       5.36052346       14       0.00128553      -0.00800154      -0.00933526
O        3.46888697       0.59430520       6.99356356       15      -0.00128553      -0.00800154       0.00933526
O        5.44525440       4.31850239      -0.00000000       16      -0.01832661       0.00000000      -0.00000000
O        3.09252992       1.43950080       4.11802901       17       0.01832661      -0.00000000      -0.00000000
O        0.24660181       1.43950080      -0.00000000       18       0.01832661      -0.00000000       0.00000000
O        2.59932630       4.31850239       4.11802901       19      -0.01832661      -0.00000000      -0.00000000
20
Lattice="5.691974316125063 3.701609822194414e-62 -4.4470868849600306e-44 -5.831236136810121e-62 5.76203083984895 1.9435554998238336e-18 -5.395279801919979e-44 -2.7700489737177287e-18 8.230130243151192" Properties=species:S:1:pos:R:3:spacegroup_kinds:I:1:forces:R:3 spacegroup="P 1" unit_cell=conventional occupancy="_JSON {\"0\": {\"In\": 1}, \"1\": {\"In\": 1}, \"2\": {\"In\": 1}, \"3\": {\"In\": 1}, \"4\": {\"In\": 1}, \"5\": {\"In\": 1}, \"6\": {\"In\": 1}, \"7\": {\"In\": 1}, \"8\": {\"O\": 1}, \"9\": {\"O\": 1}, \"10\": {\"O\": 1}, \"11\": {\"O\": 1}, \"12\": {\"O\": 1}, \"13\": {\"O\": 1}, \"14\": {\"O\": 1}, \"15\": {\"O\": 1}, \"16\": {\"O\": 1}, \"17\": {\"O\": 1}, \"18\": {\"O\": 1}, \"19\": {\"O\": 1}}" n_minim_iter=4 energy=-22574.853752969102 stress="0.017681557666922428 1.2925299516745178e-14 -6.676437306643054e-14 1.2925299516745178e-14 0.017515239130910912 2.64812766900102e-13 -6.676437306643054e-14 2.64812766900102e-13 0.017250045506141475" free_energy=-22574.853752969102 pbc="T T T"
In       1.40894636       3.03732393       0.94932336        0       0.00000997       0.01182686       0.00933357
In       1.43704080       0.15630851       3.16574176        1      -0.00000997       0.01182686      -0.00933357
In       1.43704080       2.72470691       5.06438848        2      -0.00000997      -0.01182686       0.00933357
In       1.40894636       5.60572233       7.28080688        3       0.00000997      -0.01182686      -0.00933357
In       4.28302796       2.72470691       7.28080688        4      -0.00000997      -0.01182686      -0.00933357
In       4.25493352       5.60572233       5.06438848        5       0.00000997      -0.01182686       0.00933357
In       4.25493352       3.03732393       3.16574176        6       0.00000997       0.01182686      -0.00933357
In       4.28302796       0.15630851       0.94932336        7      -0.00000997       0.01182686       0.00933357
O        2.22315423       3.47541464       6.98852020        8       0.00243282      -0.00423466       0.01393825
O        0.62283293       0.59439922       5.35667517        9      -0.00243282      -0.00423466      -0.01393825
O        0.62283293       2.28661620       2.87345507       10      -0.00243282       0.00423466       0.01393825
O        2.22315423       5.16763162       1.24161005       11       0.00243282       0.00423466      -0.01393825
O        3.46882009       2.28661620       1.24161005       12      -0.00243282       0.00423466      -0.01393825
O        5.06914139       5.16763162       2.87345507       13       0.00243282       0.00423466       0.01393825
O        5.06914139       3.47541464       5.35667517       14       0.00243282      -0.00423466      -0.01393825
O        3.46882009       0.59439922       6.98852020       15      -0.00243282      -0.00423466       0.01393825
O        5.44464816       4.32152313      -0.00000000       16      -0.01301932       0.00000000      -0.00000000
O        3.09331331       1.44050771       4.11506512       17       0.01301932       0.00000000       0.00000000
O        0.24732615       1.44050771      -0.00000000       18       0.01301932       0.00000000      -0.00000000
O        2.59866100       4.32152313       4.11506512       19      -0.01301932       0.00000000       0.00000000
20
Lattice="5.690602262076041 3.700338611959559e-62 -6.0860331258056e-44 -5.832037983355871e-62 5.76187249761169 1.9440775318787795e-18 -5.39831430609355e-44 -2.769972851988427e-18 8.232340826694442" Properties=species:S:1:pos:R:3:spacegroup_kinds:I:1:forces:R:3 spacegroup="P 1" unit_cell=conventional occupancy="_JSON {\"0\": {\"In\": 1}, \"1\": {\"In\": 1}, \"2\": {\"In\": 1}, \"3\": {\"In\": 1}, \"4\": {\"In\": 1}, \"5\": {\"In\": 1}, \"6\": {\"In\": 1}, \"7\": {\"In\": 1}, \"8\": {\"O\": 1}, \"9\": {\"O\": 1}, \"10\": {\"O\": 1}, \"11\": {\"O\": 1}, \"12\": {\"O\": 1}, \"13\": {\"O\": 1}, \"14\": {\"O\": 1}, \"15\": {\"O\": 1}, \"16\": {\"O\": 1}, \"17\": {\"O\": 1}, \"18\": {\"O\": 1}, \"19\": {\"O\": 1}}" n_minim_iter=5 energy=-22574.85384397009 stress="0.017371245388534712 -1.1808846884973441e-13 4.0331410723151167e-13 -1.1808846884973441e-13 0.017432264300038452 9.193239545169902e-13 4.0331410723151167e-13 9.193239545169902e-13 0.01740260102136441" free_energy=-22574.85384397009 pbc="T T T"
In       1.40847629       3.03714958       0.95004983        0      -0.00114971       0.01582490       0.00665150
In       1.43682484       0.15621333       3.16612058        1       0.00114971       0.01582490      -0.00665150
In       1.43682484       2.72472292       5.06622024        2       0.00114971      -0.01582490       0.00665150
In       1.40847629       5.60565917       7.28229100        3      -0.00114971      -0.01582490      -0.00665150
In       4.28212597       2.72472292       7.28229100        4       0.00114971      -0.01582490      -0.00665150
In       4.25377742       5.60565917       5.06622024        5      -0.00114971      -0.01582490       0.00665150
In       4.25377742       3.03714958       3.16612058        6      -0.00114971       0.01582490      -0.00665150
In       4.28212597       0.15621333       0.95004983        7       0.00114971       0.01582490       0.00665150
O        2.22276632       3.47500192       6.99056545        8      -0.00023585      -0.00124573       0.01291479
O        0.62253481       0.59406567       5.35794579        9       0.00023585      -0.00124573      -0.01291479
O        0.62253481       2.28687057       2.87439504       10       0.00023585       0.00124573       0.01291479
O        2.22276632       5.16780682       1.24177537       11      -0.00023585       0.00124573      -0.01291479
O        3.46783595       2.28687057       1.24177537       12       0.00023585       0.00124573      -0.01291479
O        5.06806745       5.16780682       2.87439504       13      -0.00023585       0.00124573       0.01291479
O        5.06806745       3.47500192       5.35794579       14      -0.00023585      -0.00124573      -0.01291479
O        3.46783595       0.59406567       6.99056545       15       0.00023585      -0.00124573       0.01291479
O        5.44256704       4.32140437      -0.00000000       16      -0.00644645       0.00000000       0.00000000
O        3.09333636       1.44046812       4.11617041       17       0.00644645       0.00000000       0.00000000
O        0.24803522       1.44046812      -0.00000000       18       0.00644645       0.00000000      -0.00000000
O        2.59726591       4.32140437       4.11617041       19      -0.00644645       0.00000000       0.00000000
20
Lattice="5.688473170220888 1.1111497388996605e-62 2.624293332207166e-44 -7.816500199837644e-62 5.762115425053963 2.8992390904775543e-18 -8.557188058035582e-44 -1.4084442834128823e-18 8.235074841246501" Properties=species:S:1:pos:R:3:spacegroup_kinds:I:1:forces:R:3 spacegroup="P 1" unit_cell=conventional occupancy="_JSON {\"0\": {\"In\": 1}, \"1\": {\"In\": 1}, \"2\": {\"In\": 1}, \"3\": {\"In\": 1}, \"4\": {\"In\": 1}, \"5\": {\"In\": 1}, \"6\": {\"In\": 1}, \"7\": {\"In\": 1}, \"8\": {\"O\": 1}, \"9\": {\"O\": 1}, \"10\": {\"O\": 1}, \"11\": {\"O\": 1}, \"12\": {\"O\": 1}, \"13\": {\"O\": 1}, \"14\": {\"O\": 1}, \"15\": {\"O\": 1}, \"16\": {\"O\": 1}, \"17\": {\"O\": 1}, \"18\": {\"O\": 1}, \"19\": {\"O\": 1}}" n_minim_iter=6 energy=-22574.85403481822 stress="0.016840059818642415 -5.032034687024574e-15 -4.623903797256476e-13 -5.032034687024574e-15 0.017261876437532186 -7.12879617601626e-13 -4.623903797256476e-13 -7.12879617601626e-13 0.01761656196362912" free_energy=-22574.85403481822 pbc="T T T"
In       1.40756937       3.03808681       0.95194426        0      -0.00568386       0.01845013      -0.00039550
In       1.43666721       0.15702910       3.16559316        1       0.00568386       0.01845013       0.00039550
In       1.43666721       2.72402861       5.06948168        2       0.00568386      -0.01845013      -0.00039550
In       1.40756937       5.60508632       7.28313058        3      -0.00568386      -0.01845013       0.00039550
In       4.28090380       2.72402861       7.28313058        4       0.00568386      -0.01845013       0.00039550
In       4.25180596       5.60508632       5.06948168        5      -0.00568386      -0.01845013      -0.00039550
In       4.25180596       3.03808681       3.16559316        6      -0.00568386       0.01845013       0.00039550
In       4.28090380       0.15702910       0.95194426        7       0.00568386       0.01845013      -0.00039550
O        2.22226732       3.47430360       6.99414160        8      -0.00564101       0.00297766       0.00402089
O        0.62196926       0.59324589       5.35847066        9       0.00564101       0.00297766      -0.00402089
O        0.62196926       2.28781183       2.87660418       10       0.00564101      -0.00297766       0.00402089
O        2.22226732       5.16886954       1.24093324       11      -0.00564101      -0.00297766      -0.00402089
O        3.46620585       2.28781183       1.24093324       12       0.00564101      -0.00297766      -0.00402089
O        5.06650391       5.16886954       2.87660418       13      -0.00564101      -0.00297766       0.00402089
O        5.06650391       3.47430360       5.35847066       14      -0.00564101       0.00297766      -0.00402089
O        3.46620585       0.59324589       6.99414160       15       0.00564101       0.00297766       0.00402089
O        5.43827384       4.32158657      -0.00000000       16       0.00699910      -0.00000000       0.00000000
O        3.09443592       1.44052886       4.11753742       17      -0.00699910       0.00000000       0.00000000
O        0.25019933       1.44052886      -0.00000000       18      -0.00699910       0.00000000       0.00000000
O        2.59403725       4.32158657       4.11753742       19       0.00699910      -0.00000000      -0.00000000
20
Lattice="5.69101481821666 1.1126157618004684e-62 -1.0456794994345598e-43 9.94796741786968e-62 5.7631698554483455 2.8974140612210194e-18 4.190393583467742e-43 -1.4087020197391573e-18 8.229890980224345" Properties=species:S:1:pos:R:3:spacegroup_kinds:I:1:forces:R:3 spacegroup="P 1" unit_cell=conventional occupancy="_JSON {\"0\": {\"In\": 1}, \"1\": {\"In\": 1}, \"2\": {\"In\": 1}, \"3\": {\"In\": 1}, \"4\": {\"In\": 1}, \"5\": {\"In\": 1}, \"6\": {\"In\": 1}, \"7\": {\"In\": 1}, \"8\": {\"O\": 1}, \"9\": {\"O\": 1}, \"10\": {\"O\": 1}, \"11\": {\"O\": 1}, \"12\": {\"O\": 1}, \"13\": {\"O\": 1}, \"14\": {\"O\": 1}, \"15\": {\"O\": 1}, \"16\": {\"O\": 1}, \"17\": {\"O\": 1}, \"18\": {\"O\": 1}, \"19\": {\"O\": 1}}" n_minim_iter=7 energy=-22574.85425819972 stress="0.017350257281490415 9.824465902534164e-13 -3.5933025825964584e-13 9.824465902534164e-13 0.01731278890975955 -4.506268190492447e-15 -3.5933025825964584e-13 -4.506268190492447e-15 0.01730515843878857" free_energy=-22574.85425819972 pbc="T T T"
In       1.40799929       3.04062639       0.95197911        0      -0.00671499       0.00388030      -0.00013256
In       1.43750812       0.15904146       3.16296638        1       0.00671499       0.00388030       0.00013256
In       1.43750812       2.72254346       5.06692460        2       0.00671499      -0.00388030      -0.00013256
In       1.40799929       5.60412839       7.27791187        3      -0.00671499      -0.00388030       0.00013256
In       4.28301552       2.72254346       7.27791187        4       0.00671499      -0.00388030       0.00013256
In       4.25350670       5.60412839       5.06692460        5      -0.00671499      -0.00388030      -0.00013256
In       4.25350670       3.04062639       3.16296638        6      -0.00671499       0.00388030       0.00013256
In       4.28301552       0.15904146       0.95197911        7       0.00671499       0.00388030      -0.00013256
O        2.22311889       3.47485646       6.99112649        8      -0.00199133      -0.00355417      -0.00632066
O        0.62238852       0.59327153       5.35370998        9       0.00199133      -0.00355417       0.00632066
O        0.62238852       2.28831339       2.87618100       10       0.00199133       0.00355417      -0.00632066
O        2.22311889       5.16989832       1.23876449       11      -0.00199133       0.00355417       0.00632066
O        3.46789593       2.28831339       1.23876449       12       0.00199133       0.00355417       0.00632066
O        5.06862630       5.16989832       2.87618100       13      -0.00199133       0.00355417      -0.00632066
O        5.06862630       3.47485646       5.35370998       14      -0.00199133      -0.00355417       0.00632066
O        3.46789593       0.59327153       6.99112649       15       0.00199133      -0.00355417      -0.00632066
O        5.44024534       4.32237739      -0.00000000       16       0.00026633      -0.00000000      -0.00000000
O        3.09627689       1.44079246       4.11494549       17      -0.00026633       0.00000000       0.00000000
O        0.25076948       1.44079246      -0.00000000       18      -0.00026633       0.00000000       0.00000000
O        2.59473793       4.32237739       4.11494549       19       0.00026633       0.00000000       0.00000000
