20
Lattice="5.510943100898716 -7.792239977796558e-62 3.3478674886224523e-44 1.8531543618015293e-62 5.624703780141679 -3.558623605708772e-17 -2.1384374612137523e-45 8.876683448518516e-17 7.878688710218509" Properties=species:S:1:pos:R:3:spacegroup_kinds:I:1:forces:R:3 spacegroup="P 1" unit_cell=conventional occupancy="_JSON {\"0\": {\"In\": 1}, \"1\": {\"In\": 1}, \"2\": {\"In\": 1}, \"3\": {\"In\": 1}, \"4\": {\"In\": 1}, \"5\": {\"In\": 1}, \"6\": {\"In\": 1}, \"7\": {\"In\": 1}, \"8\": {\"O\": 1}, \"9\": {\"O\": 1}, \"10\": {\"O\": 1}, \"11\": {\"O\": 1}, \"12\": {\"O\": 1}, \"13\": {\"O\": 1}, \"14\": {\"O\": 1}, \"15\": {\"O\": 1}, \"16\": {\"O\": 1}, \"17\": {\"O\": 1}, \"18\": {\"O\": 1}, \"19\": {\"O\": 1}}" n_minim_iter=7 energy=-22574.911453789457 stress="-0.005113499332434037 -7.856778127264653e-13 2.6398221644486556e-13 -7.856778127264653e-13 -0.005084917086670338 -7.545554762761265e-13 2.6398221644486556e-13 -7.545554762761265e-13 -0.005110677850414797" free_energy=-22574.911453789457 pbc="T T T"
In       1.37132060       2.97362440       0.90167788        0      -0.00008039      -0.00381940      -0.00730081
In       1.38415095       0.16127251       3.03766647        1       0.00008039      -0.00381940       0.00730081
In       1.38415095       2.65107938       4.84102224        2       0.00008039       0.00381940      -0.00730081
In       1.37132060       5.46343127       6.97701083        3      -0.00008039       0.00381940       0.00730081
In       4.13962250       2.65107938       6.97701083        4       0.00008039       0.00381940       0.00730081
In       4.12679215       5.46343127       4.84102224        5      -0.00008039       0.00381940      -0.00730081
In       4.12679215       2.97362440       3.03766647        6      -0.00008039      -0.00381940       0.00730081
In       4.13962250       0.16127251       0.90167788        7       0.00008039      -0.00381940      -0.00730081
O        2.14470710       3.39947796       6.69789776        8       0.00101075      -0.00229074       0.00326088
O        0.61076445       0.58712607       5.12013531        9      -0.00101075      -0.00229074      -0.00326088
O        0.61076445       2.22522582       2.75855340       10      -0.00101075       0.00229074       0.00326088
O        2.14470710       5.03757771       1.18079095       11       0.00101075       0.00229074      -0.00326088
O        3.36623600       2.22522582       1.18079095       12      -0.00101075       0.00229074      -0.00326088
O        4.90017865       5.03757771       2.75855340       13       0.00101075       0.00229074       0.00326088
O        4.90017865       3.39947796       5.12013531       14       0.00101075      -0.00229074      -0.00326088
O        3.36623600       0.58712607       6.69789776       15      -0.00101075      -0.00229074       0.00326088
O        5.28980721       4.21852784      -0.00000000       16      -0.00068825      -0.00000000      -0.00000000
O        2.97660745       1.40617595       3.93934436       17       0.00068825       0.00000000       0.00000000
O        0.22113589       1.40617595      -0.00000000       18       0.00068825       0.00000000      -0.00000000
O        2.53433566       4.21852784       3.93934436       19      -0.00068825      -0.00000000       0.00000000
