20
Lattice="5.5018045369209565 -3.2055427566218806e-62 -2.7987888748739414e-44 -2.180467654444754e-61 5.607809045738404 -4.92860112614367e-17 4.026670864287049e-44 6.956833439022294e-17 7.915550983037169" Properties=species:S:1:pos:R:3:spacegroup_kinds:I:1:forces:R:3 spacegroup="P 1" unit_cell=conventional occupancy="_JSON {\"0\": {\"In\": 1}, \"1\": {\"In\": 1}, \"2\": {\"In\": 1}, \"3\": {\"In\": 1}, \"4\": {\"In\": 1}, \"5\": {\"In\": 1}, \"6\": {\"In\": 1}, \"7\": {\"In\": 1}, \"8\": {\"O\": 1}, \"9\": {\"O\": 1}, \"10\": {\"O\": 1}, \"11\": {\"O\": 1}, \"12\": {\"O\": 1}, \"13\": {\"O\": 1}, \"14\": {\"O\": 1}, \"15\": {\"O\": 1}, \"16\": {\"O\": 1}, \"17\": {\"O\": 1}, \"18\": {\"O\": 1}, \"19\": {\"O\": 1}}" n_minim_iter=1 energy=-22574.906304523265 stress="-0.008243221657971218 9.748450868555405e-14 3.144700252513747e-14 9.748450868555405e-14 -0.008385614876956653 -6.006638328375092e-13 3.144700252513747e-14 -6.006638328375092e-13 -0.0035638733129639616" free_energy=-22574.906304523265 pbc="T T T"
In       1.36599124       2.96528038       0.90564759        0       0.01906047       0.01410678       0.00063260
In       1.38491103       0.16137586       3.05212790        1      -0.01906047       0.01410678      -0.00063260
In       1.38491103       2.64252867       4.86342308        2      -0.01906047      -0.01410678       0.00063260
In       1.36599124       5.44643319       7.00990340        3       0.01906047      -0.01410678      -0.00063260
In       4.13581329       2.64252867       7.00990340        4      -0.01906047      -0.01410678      -0.00063260
In       4.11689351       5.44643319       4.86342308        5       0.01906047      -0.01410678       0.00063260
In       4.11689351       2.96528038       3.05212790        6       0.01906047       0.01410678      -0.00063260
In       4.13581329       0.16137586       0.90564759        7      -0.01906047       0.01410678       0.00063260
O        2.14549413       3.38822525       6.72558714        8      -0.04697611       0.00920343       0.03304522
O        0.60540814       0.58432073       5.14773933        9       0.04697611       0.00920343      -0.03304522
O        0.60540814       2.21958379       2.76781165       10       0.04697611      -0.00920343       0.03304522
O        2.14549413       5.02348832       1.18996384       11      -0.04697611      -0.00920343      -0.03304522
O        3.35631041       2.21958379       1.18996384       12       0.04697611      -0.00920343      -0.03304522
O        4.89639640       5.02348832       2.76781165       13      -0.04697611      -0.00920343       0.03304522
O        4.89639640       3.38822525       5.14773933       14      -0.04697611       0.00920343      -0.03304522
O        3.35631041       0.58432073       6.72558714       15       0.04697611       0.00920343       0.03304522
O        5.27536795       4.20585678      -0.00000000       16       0.07447403       0.00000000      -0.00000000
O        2.97733886       1.40195226       3.95777549       17      -0.07447403      -0.00000000       0.00000000
O        0.22643659       1.40195226      -0.00000000       18      -0.07447403      -0.00000000      -0.00000000
O        2.52446568       4.20585678       3.95777549       19       0.07447403       0.00000000      -0.00000000
20
Lattice="5.513755575364453 -3.2205578786587697e-62 -2.93219807805801e-44 -2.087059638423626e-61 5.621138647199189 -4.906256376266192e-17 3.876582605387892e-44 6.973369632821849e-17 7.879664328318815" Properties=species:S:1:pos:R:3:spacegroup_kinds:I:1:forces:R:3 spacegroup="P 1" unit_cell=conventional occupancy="_JSON {\"0\": {\"In\": 1}, \"1\": {\"In\": 1}, \"2\": {\"In\": 1}, \"3\": {\"In\": 1}, \"4\": {\"In\": 1}, \"5\": {\"In\": 1}, \"6\": {\"In\": 1}, \"7\": {\"In\": 1}, \"8\": {\"O\": 1}, \"9\": {\"O\": 1}, \"10\": {\"O\": 1}, \"11\": {\"O\": 1}, \"12\": {\"O\": 1}, \"13\": {\"O\": 1}, \"14\": {\"O\": 1}, \"15\": {\"O\": 1}, \"16\": {\"O\": 1}, \"17\": {\"O\": 1}, \"18\": {\"O\": 1}, \"19\": {\"O\": 1}}" n_minim_iter=2 energy=-22574.909120073615 stress="-0.005181458968335334 3.8485743901136326e-13 6.340950812141363e-15 3.8485743901136326e-13 -0.006345110981408848 -4.22712868421272e-13 6.340950812141363e-15 -4.22712868421272e-13 -0.0060441479931830815" free_energy=-22574.909120073615 pbc="T T T"
In       1.36907068       2.97241184       0.90154536        0       0.04781933       0.02616451      -0.01661549
In       1.38780711       0.16184252       3.03828680        1      -0.04781933       0.02616451       0.01661549
In       1.38780711       2.64872681       4.84137753        2      -0.04781933      -0.02616451      -0.01661549
In       1.36907068       5.45929613       6.97811897        3       0.04781933      -0.02616451       0.01661549
In       4.14468490       2.64872681       6.97811897        4      -0.04781933      -0.02616451       0.01661549
In       4.12594846       5.45929613       4.84137753        5       0.04781933      -0.02616451      -0.01661549
In       4.12594846       2.97241184       3.03828680        6       0.04781933       0.02616451       0.01661549
In       4.14468490       0.16184252       0.90154536        7      -0.04781933       0.02616451      -0.01661549
O        2.14987799       3.39633317       6.69528867        8      -0.01929240       0.01570795       0.05139632
O        0.60699979       0.58576384       5.12420782        9       0.01929240       0.01570795      -0.05139632
O        0.60699979       2.22480548       2.75545651       10       0.01929240      -0.01570795       0.05139632
O        2.14987799       5.03537481       1.18437565       11      -0.01929240      -0.01570795      -0.05139632
O        3.36387758       2.22480548       1.18437565       12       0.01929240      -0.01570795      -0.05139632
O        4.90675578       5.03537481       2.75545651       13      -0.01929240      -0.01570795       0.05139632
O        4.90675578       3.39633317       5.12420782       14      -0.01929240       0.01570795      -0.05139632
O        3.36387758       0.58576384       6.69528867       15       0.01929240       0.01570795       0.05139632
O        5.28726561       4.21585399      -0.00000000       16       0.06467649      -0.00000000      -0.00000000
O        2.98336776       1.40528466       3.93983216       17      -0.06467649      -0.00000000       0.00000000
O        0.22648997       1.40528466      -0.00000000       18      -0.06467649      -0.00000000       0.00000000
O        2.53038782       4.21585399       3.93983216       19       0.06467649       0.00000000       0.00000000
20
Lattice="5.504121564212608 -2.307648546831979e-63 -2.8774530386873293e-44 -2.0940271505198094e-61 5.634551303522369 -5.496941891316257e-17 3.8694371851611965e-44 6.151850213969341e-17 7.874666493364177" Properties=species:S:1:pos:R:3:spacegroup_kinds:I:1:forces:R:3 spacegroup="P 1" unit_cell=conventional occupancy="_JSON {\"0\": {\"In\": 1}, \"1\": {\"In\": 1}, \"2\": {\"In\": 1}, \"3\": {\"In\": 1}, \"4\": {\"In\": 1}, \"5\": {\"In\": 1}, \"6\": {\"In\": 1}, \"7\": {\"In\": 1}, \"8\": {\"O\": 1}, \"9\": {\"O\": 1}, \"10\": {\"O\": 1}, \"11\": {\"O\": 1}, \"12\": {\"O\": 1}, \"13\": {\"O\": 1}, \"14\": {\"O\": 1}, \"15\": {\"O\": 1}, \"16\": {\"O\": 1}, \"17\": {\"O\": 1}, \"18\": {\"O\": 1}, \"19\": {\"O\": 1}}" n_minim_iter=3 energy=-22574.909970947003 stress="-0.006175455183638887 2.1968643096289722e-13 1.5290974593886013e-13 2.1968643096289722e-13 -0.004850891897990102 -4.0748008693615716e-13 1.5290974593886013e-13 -4.0748008693615716e-13 -0.005728646528596715" free_energy=-22574.909970947003 pbc="T T T"
In       1.36739766       2.97990576       0.90073869        0       0.02293811       0.03057910      -0.01950426
In       1.38466312       0.16263011       3.03659455        1      -0.02293811       0.03057910       0.01950426
In       1.38466312       2.65464554       4.83807194        2      -0.02293811      -0.03057910      -0.01950426
In       1.36739766       5.47192120       6.97392780        3       0.02293811      -0.03057910       0.01950426
In       4.13672391       2.65464554       6.97392780        4      -0.02293811      -0.03057910       0.01950426
In       4.11945844       5.47192120       4.83807194        5       0.02293811      -0.03057910      -0.01950426
In       4.11945844       2.97990576       3.03659455        6       0.02293811       0.03057910       0.01950426
In       4.13672391       0.16263011       0.90073869        7      -0.02293811       0.03057910      -0.01950426
O        2.14576590       3.40467941       6.69182657        8      -0.02481274       0.02087839       0.03695514
O        0.60629488       0.58740376       5.12017317        9       0.02481274       0.02087839      -0.03695514
O        0.60629488       2.22987189       2.75449332       10       0.02481274      -0.02087839       0.03695514
O        2.14576590       5.04714754       1.18283993       11      -0.02481274      -0.02087839      -0.03695514
O        3.35835566       2.22987189       1.18283993       12       0.02481274      -0.02087839      -0.03695514
O        4.89782669       5.04714754       2.75449332       13      -0.02481274      -0.02087839       0.03695514
O        4.89782669       3.40467941       5.12017317       14      -0.02481274       0.02087839      -0.03695514
O        3.35835566       0.58740376       6.69182657       15       0.02481274       0.02087839       0.03695514
O        5.27908120       4.22591348      -0.00000000       16       0.04194281       0.00000000       0.00000000
O        2.97710115       1.40863783       3.93733325       17      -0.04194281       0.00000000      -0.00000000
O        0.22504036       1.40863783      -0.00000000       18      -0.04194281      -0.00000000       0.00000000
O        2.52702042       4.22591348       3.93733325       19       0.04194281       0.00000000      -0.00000000
20
Lattice="5.507503042564598 -2.712557994821908e-62 -2.8812704233251167e-44 -2.12029783661373e-61 5.632146984995665 -4.9583932351335104e-17 3.8655809449850527e-44 6.90794529444953e-17 7.873191200105816" Properties=species:S:1:pos:R:3:spacegroup_kinds:I:1:forces:R:3 spacegroup="P 1" unit_cell=conventional occupancy="_JSON {\"0\": {\"In\": 1}, \"1\": {\"In\": 1}, \"2\": {\"In\": 1}, \"3\": {\"In\": 1}, \"4\": {\"In\": 1}, \"5\": {\"In\": 1}, \"6\": {\"In\": 1}, \"7\": {\"In\": 1}, \"8\": {\"O\": 1}, \"9\": {\"O\": 1}, \"10\": {\"O\": 1}, \"11\": {\"O\": 1}, \"12\": {\"O\": 1}, \"13\": {\"O\": 1}, \"14\": {\"O\": 1}, \"15\": {\"O\": 1}, \"16\": {\"O\": 1}, \"17\": {\"O\": 1}, \"18\": {\"O\": 1}, \"19\": {\"O\": 1}}" n_minim_iter=4 energy=-22574.91096652161 stress="-0.005533887747398368 -2.0765813334600328e-13 -1.5955441411750108e-13 -2.0765813334600328e-13 -0.005062505895941796 -5.898815984080028e-14 -1.5955441411750108e-13 -5.898815984080028e-14 -0.005423391403814926" free_energy=-22574.91096652161 pbc="T T T"
In       1.36925434       2.97947382       0.90006137        0       0.00827558      -0.00037210       0.00083585
In       1.38449718       0.16340033       3.03653423        1      -0.00827558      -0.00037210      -0.00083585
In       1.38449718       2.65267316       4.83665697        2      -0.00827558       0.00037210       0.00083585
In       1.36925434       5.46874665       6.97312983        3       0.00827558       0.00037210      -0.00083585
In       4.13824870       2.65267316       6.97312983        4      -0.00827558       0.00037210      -0.00083585
In       4.12300586       5.46874665       4.83665697        5       0.00827558       0.00037210       0.00083585
In       4.12300586       2.97947382       3.03653423        6       0.00827558      -0.00037210      -0.00083585
In       4.13824870       0.16340033       0.90006137        7      -0.00827558      -0.00037210       0.00083585
O        2.14637176       3.40377028       6.69185686        8      -0.01759447       0.00594178       0.01175731
O        0.60737976       0.58769679       5.11792994        9       0.01759447       0.00594178      -0.01175731
O        0.60737976       2.22837671       2.75526126       10       0.01759447      -0.00594178       0.01175731
O        2.14637176       5.04445020       1.18133434       11      -0.01759447      -0.00594178      -0.01175731
O        3.36113128       2.22837671       1.18133434       12       0.01759447      -0.00594178      -0.01175731
O        4.90012328       5.04445020       2.75526126       13      -0.01759447      -0.00594178       0.01175731
O        4.90012328       3.40377028       5.11792994       14      -0.01759447       0.00594178      -0.01175731
O        3.36113128       0.58769679       6.69185686       15       0.01759447       0.00594178       0.01175731
O        5.28394774       4.22411024      -0.00000000       16       0.01748820      -0.00000000      -0.00000000
O        2.97730683       1.40803675       3.93659560       17      -0.01748820       0.00000000       0.00000000
O        0.22355531       1.40803675      -0.00000000       18      -0.01748820      -0.00000000      -0.00000000
O        2.53019622       4.22411024       3.93659560       19       0.01748820      -0.00000000       0.00000000
20
Lattice="5.509323050659586 -5.232992774650985e-62 -2.3168533081533595e-44 -6.818850017236047e-62 5.6300260417919175 -4.467923398059039e-17 1.4189668927406768e-44 7.597976991709355e-17 7.873555295267683" Properties=species:S:1:pos:R:3:spacegroup_kinds:I:1:forces:R:3 spacegroup="P 1" unit_cell=conventional occupancy="_JSON {\"0\": {\"In\": 1}, \"1\": {\"In\": 1}, \"2\": {\"In\": 1}, \"3\": {\"In\": 1}, \"4\": {\"In\": 1}, \"5\": {\"In\": 1}, \"6\": {\"In\": 1}, \"7\": {\"In\": 1}, \"8\": {\"O\": 1}, \"9\": {\"O\": 1}, \"10\": {\"O\": 1}, \"11\": {\"O\": 1}, \"12\": {\"O\": 1}, \"13\": {\"O\": 1}, \"14\": {\"O\": 1}, \"15\": {\"O\": 1}, \"16\": {\"O\": 1}, \"17\": {\"O\": 1}, \"18\": {\"O\": 1}, \"19\": {\"O\": 1}}" n_minim_iter=5 energy=-22574.911138546213 stress="-0.005236883716463614 1.3064813191552184e-14 4.6661314336557e-13 1.3064813191552184e-14 -0.0052219476643566186 9.264138736199177e-14 4.6661314336557e-13 9.264138736199177e-14 -0.0052531873294068485" free_energy=-22574.911138546213 pbc="T T T"
In       1.37022618       2.97854893       0.90000074        0       0.00156855      -0.01424863       0.00867903
In       1.38443534       0.16353591       3.03677691        1      -0.00156855      -0.01424863      -0.00867903
In       1.38443534       2.65147711       4.83677839        2      -0.00156855       0.01424863       0.00867903
In       1.37022618       5.46649013       6.97355455        3       0.00156855       0.01424863      -0.00867903
In       4.13909687       2.65147711       6.97355455        4      -0.00156855       0.01424863      -0.00867903
In       4.12488771       5.46649013       4.83677839        5       0.00156855       0.01424863       0.00867903
In       4.12488771       2.97854893       3.03677691        6       0.00156855      -0.01424863      -0.00867903
In       4.13909687       0.16353591       0.90000074        7      -0.00156855      -0.01424863       0.00867903
O        2.14652830       3.40273864       6.69279530        8      -0.01293081      -0.00140640       0.00075740
O        0.60813323       0.58772562       5.11753765        9       0.01293081      -0.00140640      -0.00075740
O        0.60813323       2.22728740       2.75601765       10       0.01293081       0.00140640       0.00075740
O        2.14652830       5.04230042       1.18076000       11      -0.01293081       0.00140640      -0.00075740
O        3.36279476       2.22728740       1.18076000       12       0.01293081       0.00140640      -0.00075740
O        4.90118982       5.04230042       2.75601765       13      -0.01293081       0.00140640       0.00075740
O        4.90118982       3.40273864       5.11753765       14      -0.01293081      -0.00140640      -0.00075740
O        3.36279476       0.58772562       6.69279530       15       0.01293081      -0.00140640       0.00075740
O        5.28657886       4.22251953      -0.00000000       16       0.00600265      -0.00000000       0.00000000
O        2.97740572       1.40750651       3.93677765       17      -0.00600265      -0.00000000      -0.00000000
O        0.22274419       1.40750651      -0.00000000       18      -0.00600265      -0.00000000       0.00000000
O        2.53191733       4.22251953       3.93677765       19       0.00600265      -0.00000000      -0.00000000
20
Lattice="5.511363984016354 -7.7255994755533785e-62 6.744169498057728e-44 -3.491473747348168e-61 5.626294112149142 -3.555410811811798e-17 7.936467676039738e-44 8.881925540684988e-17 7.875860217711149" Properties=species:S:1:pos:R:3:spacegroup_kinds:I:1:forces:R:3 spacegroup="P 1" unit_cell=conventional occupancy="_JSON {\"0\": {\"In\": 1}, \"1\": {\"In\": 1}, \"2\": {\"In\": 1}, \"3\": {\"In\": 1}, \"4\": {\"In\": 1}, \"5\": {\"In\": 1}, \"6\": {\"In\": 1}, \"7\": {\"In\": 1}, \"8\": {\"O\": 1}, \"9\": {\"O\": 1}, \"10\": {\"O\": 1}, \"11\": {\"O\": 1}, \"12\": {\"O\": 1}, \"13\": {\"O\": 1}, \"14\": {\"O\": 1}, \"15\": {\"O\": 1}, \"16\": {\"O\": 1}, \"17\": {\"O\": 1}, \"18\": {\"O\": 1}, \"19\": {\"O\": 1}}" n_minim_iter=6 energy=-22574.911285756883 stress="-0.004951161093565573 3.32811521023218e-13 7.761689032023476e-14 3.32811521023218e-13 -0.005295090708454875 -5.554228173237342e-14 7.761689032023476e-14 -5.554228173237342e-14 -0.0050510895867895604" free_energy=-22574.911285756883 pbc="T T T"
In       1.37144803       2.97595130       0.90064863        0      -0.00502174      -0.02208451       0.00835645
In       1.38423396       0.16280425       3.03728148        1       0.00502174      -0.02208451      -0.00835645
In       1.38423396       2.65034281       4.83857874        2       0.00502174       0.02208451       0.00835645
In       1.37144803       5.46348986       6.97521159        3      -0.00502174       0.02208451      -0.00835645
In       4.13991595       2.65034281       6.97521159        4       0.00502174       0.02208451      -0.00835645
In       4.12713002       5.46348986       4.83857874        5      -0.00502174       0.02208451       0.00835645
In       4.12713002       2.97595130       3.03728148        6      -0.00502174      -0.02208451      -0.00835645
In       4.13991595       0.16280425       0.90064863        7       0.00502174      -0.02208451       0.00835645
O        2.14589260       3.40069513       6.69555352        8      -0.00339285      -0.00808056      -0.00714495
O        0.60978939       0.58754807       5.11823681        9       0.00339285      -0.00808056       0.00714495
O        0.60978939       2.22559898       2.75762341       10       0.00339285       0.00808056      -0.00714495
O        2.14589260       5.03874604       1.18030670       11      -0.00339285       0.00808056       0.00714495
O        3.36547138       2.22559898       1.18030670       12       0.00339285       0.00808056       0.00714495
O        4.90157460       5.03874604       2.75762341       13      -0.00339285       0.00808056      -0.00714495
O        4.90157460       3.40069513       5.11823681       14      -0.00339285      -0.00808056       0.00714495
O        3.36547138       0.58754807       6.69555352       15       0.00339285      -0.00808056      -0.00714495
O        5.28995149       4.21972058      -0.00000000       16      -0.00680812      -0.00000000      -0.00000000
O        2.97709448       1.40657353       3.93793011       17       0.00680812       0.00000000       0.00000000
O        0.22141249       1.40657353      -0.00000000       18       0.00680812      -0.00000000       0.00000000
O        2.53426950       4.21972058       3.93793011       19      -0.00680812      -0.00000000       0.00000000
20
Lattice="5.510943100898716 -7.792239977796558e-62 3.3478674886224523e-44 1.8531543618015293e-62 5.624703780141679 -3.558623605708772e-17 -2.1384374612137523e-45 8.876683448518516e-17 7.878688710218509" Properties=species:S:1:pos:R:3:spacegroup_kinds:I:1:forces:R:3 spacegroup="P 1" unit_cell=conventional occupancy="_JSON {\"0\": {\"In\": 1}, \"1\": {\"In\": 1}, \"2\": {\"In\": 1}, \"3\": {\"In\": 1}, \"4\": {\"In\": 1}, \"5\": {\"In\": 1}, \"6\": {\"In\": 1}, \"7\": {\"In\": 1}, \"8\": {\"O\": 1}, \"9\": {\"O\": 1}, \"10\": {\"O\": 1}, \"11\": {\"O\": 1}, \"12\": {\"O\": 1}, \"13\": {\"O\": 1}, \"14\": {\"O\": 1}, \"15\": {\"O\": 1}, \"16\": {\"O\": 1}, \"17\": {\"O\": 1}, \"18\": {\"O\": 1}, \"19\": {\"O\": 1}}" n_minim_iter=7 energy=-22574.911453789457 stress="-0.005113499332434037 -7.856778127264653e-13 2.6398221644486556e-13 -7.856778127264653e-13 -0.005084917086670338 -7.545554762761265e-13 2.6398221644486556e-13 -7.545554762761265e-13 -0.005110677850414797" free_energy=-22574.911453789457 pbc="T T T"
In       1.37132060       2.97362440       0.90167788        0      -0.00008039      -0.00381940      -0.00730081
In       1.38415095       0.16127251       3.03766647        1       0.00008039      -0.00381940       0.00730081
In       1.38415095       2.65107938       4.84102224        2       0.00008039       0.00381940      -0.00730081
In       1.37132060       5.46343127       6.97701083        3      -0.00008039       0.00381940       0.00730081
In       4.13962250       2.65107938       6.97701083        4       0.00008039       0.00381940       0.00730081
In       4.12679215       5.46343127       4.84102224        5      -0.00008039       0.00381940      -0.00730081
In       4.12679215       2.97362440       3.03766647        6      -0.00008039      -0.00381940       0.00730081
In       4.13962250       0.16127251       0.90167788        7       0.00008039      -0.00381940      -0.00730081
O        2.14470710       3.39947796       6.69789776        8       0.00101075      -0.00229074       0.00326088
O        0.61076445       0.58712607       5.12013531        9      -0.00101075      -0.00229074      -0.00326088
O        0.61076445       2.22522582       2.75855340       10      -0.00101075       0.00229074       0.00326088
O        2.14470710       5.03757771       1.18079095       11       0.00101075       0.00229074      -0.00326088
O        3.36623600       2.22522582       1.18079095       12      -0.00101075       0.00229074      -0.00326088
O        4.90017865       5.03757771       2.75855340       13       0.00101075       0.00229074       0.00326088
O        4.90017865       3.39947796       5.12013531       14       0.00101075      -0.00229074      -0.00326088
O        3.36623600       0.58712607       6.69789776       15      -0.00101075      -0.00229074       0.00326088
O        5.28980721       4.21852784      -0.00000000       16      -0.00068825      -0.00000000      -0.00000000
O        2.97660745       1.40617595       3.93934436       17       0.00068825       0.00000000       0.00000000
O        0.22113589       1.40617595      -0.00000000       18       0.00068825       0.00000000      -0.00000000
O        2.53433566       4.21852784       3.93934436       19      -0.00068825      -0.00000000       0.00000000
