20
Lattice="5.7829223949958655 -1.272507566340052e-33 1.5756247415762578e-33 3.8810555647520744e-32 4.620329898055579 -2.635435607839941e-16 1.4265617315423733e-31 -4.0971151959333334e-18 7.93760562646824" Properties=species:S:1:pos:R:3:spacegroup_kinds:I:1:forces:R:3 spacegroup="P 1" unit_cell=conventional occupancy="_JSON {\"0\": {\"In\": 1}, \"1\": {\"In\": 1}, \"2\": {\"In\": 1}, \"3\": {\"In\": 1}, \"4\": {\"In\": 1}, \"5\": {\"In\": 1}, \"6\": {\"In\": 1}, \"7\": {\"In\": 1}, \"8\": {\"O\": 1}, \"9\": {\"O\": 1}, \"10\": {\"O\": 1}, \"11\": {\"O\": 1}, \"12\": {\"O\": 1}, \"13\": {\"O\": 1}, \"14\": {\"O\": 1}, \"15\": {\"O\": 1}, \"16\": {\"O\": 1}, \"17\": {\"O\": 1}, \"18\": {\"O\": 1}, \"19\": {\"O\": 1}}" n_minim_iter=7 energy=-22575.71607743169 stress="-0.04468965762400918 4.235669044533029e-14 1.1838092210073902e-13 4.235669044533029e-14 -0.044582888648789926 2.792111828534778e-13 1.1838092210073902e-13 2.792111828534778e-13 -0.044498132607057164" free_energy=-22575.71607743169 pbc="T T T"
In       1.50232000       2.30941385       0.88624315        0      -0.00465572      -0.00000000      -0.00254723
In       1.38914120      -0.00075110       3.08255966        1       0.00465572      -0.00000000       0.00254723
In       1.38914120       2.30941385       4.85504597        2       0.00465572       0.00000000      -0.00254723
In       1.50232000       4.61957880       7.05136247        3      -0.00465572      -0.00000000       0.00254723
In       4.28060239       2.30941385       7.05136247        4       0.00465572       0.00000000       0.00254723
In       4.39378120       4.61957880       4.85504597        5      -0.00465572      -0.00000000      -0.00254723
In       4.39378120       2.30941385       3.08255966        6      -0.00465572       0.00000000       0.00254723
In       4.28060239      -0.00075110       0.88624315        7       0.00465572      -0.00000000      -0.00254723
O        2.19505958       2.30941385       6.73692676        8      -0.00265475      -0.00000000      -0.00226243
O        0.69640162      -0.00075110       5.16948168        9       0.00265475       0.00000000       0.00226243
O        0.69640162       2.30941385       2.76812394       10       0.00265475       0.00000000      -0.00226243
O        2.19505958       4.61957880       1.20067887       11      -0.00265475       0.00000000       0.00226243
O        3.58786281       2.30941385       1.20067887       12       0.00265475       0.00000000       0.00226243
O        5.08652078       4.61957880       2.76812394       13      -0.00265475      -0.00000000      -0.00226243
O        5.08652078       2.30941385       5.16948168       14      -0.00265475       0.00000000       0.00226243
O        3.58786281      -0.00075110       6.73692676       15       0.00265475       0.00000000      -0.00226243
O        5.78292239       3.46449632      -0.00000000       16       0.00000000       0.00000000      -0.00000000
O        2.89146120       1.15433138       3.96880281       17       0.00000000       0.00000000      -0.00000000
O       -0.00000000       1.15433138      -0.00000000       18       0.00000000       0.00000000       0.00000000
O        2.89146120       3.46449632       3.96880281       19       0.00000000      -0.00000000       0.00000000
