20
Lattice="5.9711140810527565 -2.207055885082808e-32 -1.0700880872190858e-32 2.3306385696800432e-32 4.182462475806476 1.669797633758223e-16 2.7754887103231453e-31 -2.926249084296264e-17 8.23490292947599" Properties=species:S:1:pos:R:3:spacegroup_kinds:I:1:forces:R:3 spacegroup="P 1" unit_cell=conventional occupancy="_JSON {\"0\": {\"In\": 1}, \"1\": {\"In\": 1}, \"2\": {\"In\": 1}, \"3\": {\"In\": 1}, \"4\": {\"In\": 1}, \"5\": {\"In\": 1}, \"6\": {\"In\": 1}, \"7\": {\"In\": 1}, \"8\": {\"O\": 1}, \"9\": {\"O\": 1}, \"10\": {\"O\": 1}, \"11\": {\"O\": 1}, \"12\": {\"O\": 1}, \"13\": {\"O\": 1}, \"14\": {\"O\": 1}, \"15\": {\"O\": 1}, \"16\": {\"O\": 1}, \"17\": {\"O\": 1}, \"18\": {\"O\": 1}, \"19\": {\"O\": 1}}" n_minim_iter=13 energy=-22575.763225154722 stress="0.027635671788408932 -1.1723981928511354e-13 -6.950213810687021e-13 -1.1723981928511354e-13 0.027524819843076788 -1.0934715460145846e-13 -6.950213810687021e-13 -1.0934715460145846e-13 0.02738599450597249" free_energy=-22575.763225154722 pbc="T T T"
In       1.61192317       2.09055132       0.94027964        0       0.00277260      -0.00000000      -0.00376267
In       1.37363387      -0.00067992       3.17717183        1      -0.00277260      -0.00000000       0.00376267
In       1.37363387       2.09055132       5.05773110        2      -0.00277260      -0.00000000      -0.00376267
In       1.61192317       4.18178256       7.29462329        3       0.00277260      -0.00000000       0.00376267
In       4.35919091       2.09055132       7.29462329        4      -0.00277260       0.00000000       0.00376267
In       4.59748021       4.18178256       5.05773110        5       0.00277260      -0.00000000      -0.00376267
In       4.59748021       2.09055132       3.17717183        6       0.00277260      -0.00000000       0.00376267
In       4.35919091      -0.00067992       0.94027964        7      -0.00277260      -0.00000000      -0.00376267
O        2.24926446       2.09055132       6.94632474        8       0.00170928       0.00000000       0.00272582
O        0.73629258      -0.00067992       5.40602966        9      -0.00170928      -0.00000000      -0.00272582
O        0.73629258       2.09055132       2.82887327       10      -0.00170928      -0.00000000       0.00272582
O        2.24926446       4.18178256       1.28857819       11       0.00170928      -0.00000000      -0.00272582
O        3.72184962       2.09055132       1.28857819       12      -0.00170928       0.00000000      -0.00272582
O        5.23482150       4.18178256       2.82887327       13       0.00170928       0.00000000       0.00272582
O        5.23482150       2.09055132       5.40602966       14       0.00170928       0.00000000      -0.00272582
O        3.72184962      -0.00067992       6.94632474       15      -0.00170928      -0.00000000       0.00272582
O        5.97111408       3.13616694      -0.00000000       16       0.00000000       0.00000000       0.00000000
O        2.98555704       1.04493570       4.11745146       17       0.00000000       0.00000000       0.00000000
O       -0.00000000       1.04493570      -0.00000000       18       0.00000000      -0.00000000       0.00000000
O        2.98555704       3.13616694       4.11745146       19       0.00000000       0.00000000      -0.00000000
