20
Lattice="5.590794577122159 3.2135737593985324e-62 -8.674162852644262e-45 -3.4745556193755113e-62 5.687083079070404 -1.3253910306092586e-18 1.2544312010451022e-44 1.884287928434807e-18 8.085238051575018" Properties=species:S:1:pos:R:3:spacegroup_kinds:I:1:forces:R:3 spacegroup="P 1" unit_cell=conventional occupancy="_JSON {\"0\": {\"In\": 1}, \"1\": {\"In\": 1}, \"2\": {\"In\": 1}, \"3\": {\"In\": 1}, \"4\": {\"In\": 1}, \"5\": {\"In\": 1}, \"6\": {\"In\": 1}, \"7\": {\"In\": 1}, \"8\": {\"O\": 1}, \"9\": {\"O\": 1}, \"10\": {\"O\": 1}, \"11\": {\"O\": 1}, \"12\": {\"O\": 1}, \"13\": {\"O\": 1}, \"14\": {\"O\": 1}, \"15\": {\"O\": 1}, \"16\": {\"O\": 1}, \"17\": {\"O\": 1}, \"18\": {\"O\": 1}, \"19\": {\"O\": 1}}" n_minim_iter=1 energy=-22574.96276093755 stress="-3.468484877015251e-05 -3.2211846187352066e-13 5.404803163086941e-13 -3.2211846187352066e-13 0.0002553042862535854 -1.2976090459148688e-13 5.404803163086941e-13 -1.2976090459148688e-13 2.6299297524505944e-06" free_energy=-22574.96276093755 pbc="T T T"
In       1.38610657       3.00467090       0.92682362        0       0.00368272      -0.00241694      -0.00078744
In       1.40929072       0.16112936       3.11579540        1      -0.00368272      -0.00241694       0.00078744
In       1.40929072       2.68241218       4.96944265        2      -0.00368272       0.00241694      -0.00078744
In       1.38610657       5.52595372       7.15841443        3       0.00368272       0.00241694       0.00078744
In       4.20468801       2.68241218       7.15841443        4      -0.00368272       0.00241694       0.00078744
In       4.18150386       5.52595372       4.96944265        5       0.00368272       0.00241694      -0.00078744
In       4.18150386       3.00467090       3.11579540        6       0.00368272      -0.00241694       0.00078744
In       4.20468801       0.16112936       0.92682362        7      -0.00368272      -0.00241694      -0.00078744
O        2.18119494       3.43493746       6.86747711        8      -0.00074931      -0.00095075      -0.00133729
O        0.61420235       0.59139592       5.26037997        9       0.00074931      -0.00095075       0.00133729
O        0.61420235       2.25214562       2.82485809       10       0.00074931       0.00095075      -0.00133729
O        2.18119494       5.09568716       1.21776094       11      -0.00074931       0.00095075       0.00133729
O        3.40959964       2.25214562       1.21776094       12       0.00074931       0.00095075       0.00133729
O        4.97659223       5.09568716       2.82485809       13      -0.00074931       0.00095075      -0.00133729
O        4.97659223       3.43493746       5.26037997       14      -0.00074931      -0.00095075       0.00133729
O        3.40959964       0.59139592       6.86747711       15       0.00074931      -0.00095075      -0.00133729
O        5.35757666       4.26531231      -0.00000000       16       0.00242730      -0.00000000      -0.00000000
O        3.02861521       1.42177077       4.04261903       17      -0.00242730       0.00000000      -0.00000000
O        0.23321792       1.42177077      -0.00000000       18      -0.00242730       0.00000000       0.00000000
O        2.56217937       4.26531231       4.04261903       19       0.00242730       0.00000000       0.00000000
