20
Lattice="5.705981573310427 -2.4706579259195433e-60 -6.055617358756711e-43 -3.6365675480076386e-61 5.952851146130131 2.7201347648138736e-17 7.621276870830544e-43 3.5640137202160596e-17 8.892797396786781" Properties=species:S:1:pos:R:3:spacegroup_kinds:I:1:forces:R:3 spacegroup="P 1" unit_cell=conventional occupancy="_JSON {\"0\": {\"In\": 1}, \"1\": {\"In\": 1}, \"2\": {\"In\": 1}, \"3\": {\"In\": 1}, \"4\": {\"In\": 1}, \"5\": {\"In\": 1}, \"6\": {\"In\": 1}, \"7\": {\"In\": 1}, \"8\": {\"O\": 1}, \"9\": {\"O\": 1}, \"10\": {\"O\": 1}, \"11\": {\"O\": 1}, \"12\": {\"O\": 1}, \"13\": {\"O\": 1}, \"14\": {\"O\": 1}, \"15\": {\"O\": 1}, \"16\": {\"O\": 1}, \"17\": {\"O\": 1}, \"18\": {\"O\": 1}, \"19\": {\"O\": 1}}" n_minim_iter=11 energy=-22573.792131628314 stress="0.040663674749063274 8.088054329532862e-14 -3.512990754978279e-13 8.088054329532862e-14 0.04040232199013997 -5.009596430888203e-14 -3.512990754978279e-13 -5.009596430888203e-14 0.040381694933203795" free_energy=-22573.792131628314 pbc="T T T"
In       1.36359373       3.21669052       1.08670531        0      -0.00116394       0.00151350       0.00046379
In       1.48939706       0.24026495       3.35969339        1       0.00116394       0.00151350      -0.00046379
In       1.48939706       2.73616062       5.53310400        2       0.00116394      -0.00151350       0.00046379
In       1.36359373       5.71258620       7.80609209        3      -0.00116394      -0.00151350      -0.00046379
In       4.34238784       2.73616062       7.80609209        4       0.00116394      -0.00151350      -0.00046379
In       4.21658452       5.71258620       5.53310400        5      -0.00116394      -0.00151350       0.00046379
In       4.21658452       3.21669052       3.35969339        6      -0.00116394       0.00151350      -0.00046379
In       4.34238784       0.24026495       1.08670531        7       0.00116394       0.00151350       0.00046379
O        2.22485430       3.51036516       7.51703430        8       0.00242493      -0.00127665       0.00112159
O        0.62813649       0.53393959       5.82216180        9      -0.00242493      -0.00127665      -0.00112159
O        0.62813649       2.44248598       3.07063560       10      -0.00242493       0.00127665       0.00112159
O        2.22485430       5.41891156       1.37576310       11       0.00242493       0.00127665      -0.00112159
O        3.48112727       2.44248598       1.37576310       12      -0.00242493       0.00127665      -0.00112159
O        5.07784509       5.41891156       3.07063560       13       0.00242493       0.00127665       0.00112159
O        5.07784509       3.51036516       5.82216180       14       0.00242493      -0.00127665      -0.00112159
O        3.48112727       0.53393959       7.51703430       15      -0.00242493      -0.00127665       0.00112159
O        5.42587933       4.46463836       0.00000000       16       0.00224264       0.00000000       0.00000000
O        3.13309303       1.48821279       4.44639870       17      -0.00224264       0.00000000       0.00000000
O        0.28010224       1.48821279       0.00000000       18      -0.00224264      -0.00000000       0.00000000
O        2.57288855       4.46463836       4.44639870       19       0.00224264      -0.00000000      -0.00000000
