20
Lattice="5.826982625334046 4.403063076729221e-58 1.5493124356715892e-42 -4.8190366860910734e-60 4.7618001246599055 3.04227574116933e-17 1.5815790656321336e-44 2.428166974700205e-16 8.106793058836699" Properties=species:S:1:pos:R:3:spacegroup_kinds:I:1:forces:R:3 spacegroup="P 1" unit_cell=conventional occupancy="_JSON {\"0\": {\"In\": 1}, \"1\": {\"In\": 1}, \"2\": {\"In\": 1}, \"3\": {\"In\": 1}, \"4\": {\"In\": 1}, \"5\": {\"In\": 1}, \"6\": {\"In\": 1}, \"7\": {\"In\": 1}, \"8\": {\"O\": 1}, \"9\": {\"O\": 1}, \"10\": {\"O\": 1}, \"11\": {\"O\": 1}, \"12\": {\"O\": 1}, \"13\": {\"O\": 1}, \"14\": {\"O\": 1}, \"15\": {\"O\": 1}, \"16\": {\"O\": 1}, \"17\": {\"O\": 1}, \"18\": {\"O\": 1}, \"19\": {\"O\": 1}}" n_minim_iter=25 energy=-22576.41909853644 stress="-0.021860767770312636 -2.9383189034300255e-13 -7.385841061371443e-14 -2.9383189034300255e-13 -0.021665615797303823 3.4207995207479154e-13 -7.385841061371443e-14 3.4207995207479154e-13 -0.02178843927486011" free_energy=-22576.41909853644 pbc="T T T"
In       1.51308051       2.38012596       0.92106329        0       0.00229978       0.00560937       0.00114390
In       1.40041080      -0.00077410       3.13233324        1      -0.00229978       0.00560937      -0.00114390
In       1.40041080       2.38167416       4.97445982        2      -0.00229978      -0.00560937       0.00114390
In       1.51308051       4.76257422       7.18572977        3       0.00229978      -0.00560937      -0.00114390
In       4.31390211       2.38167416       7.18572977        4      -0.00229978      -0.00560937      -0.00114390
In       4.42657183       4.76257422       4.97445982        5       0.00229978      -0.00560937       0.00114390
In       4.42657183       2.38012596       3.13233324        6       0.00229978       0.00560937      -0.00114390
In       4.31390211      -0.00077410       0.92106329        7      -0.00229978       0.00560937       0.00114390
O        2.20224180       2.37937423       6.87371332        8      -0.00445213       0.00055689       0.00151556
O        0.71124951      -0.00152584       5.28647627        9       0.00445213       0.00055689      -0.00151556
O        0.71124951       2.38242590       2.82031679       10       0.00445213      -0.00055689       0.00151556
O        2.20224180       4.76332596       1.23307974       11      -0.00445213      -0.00055689      -0.00151556
O        3.62474082       2.38242590       1.23307974       12       0.00445213      -0.00055689      -0.00151556
O        5.11573312       4.76332596       2.82031679       13      -0.00445213      -0.00055689       0.00151556
O        5.11573312       2.37937423       5.28647627       14      -0.00445213       0.00055689      -0.00151556
O        3.62474082      -0.00152584       6.87371332       15       0.00445213       0.00055689       0.00151556
O        5.82776218       3.57135009       0.00000000       16      -0.00041780       0.00000000       0.00000000
O        2.91271175       1.19045003       4.05339653       17       0.00041780      -0.00000000       0.00000000
O       -0.00077956       1.19045003       0.00000000       18       0.00041780       0.00000000       0.00000000
O        2.91427087       3.57135009       4.05339653       19      -0.00041780       0.00000000      -0.00000000
