20
Lattice="5.804889759009999 4.639921040265521e-62 -1.4001743375507416e-43 -3.5301134425740455e-61 5.980435009003652 -4.380118676174971e-18 7.7732927107504e-43 -1.825845776734799e-18 8.700957235737174" Properties=species:S:1:pos:R:3:spacegroup_kinds:I:1:forces:R:3 spacegroup="P 1" unit_cell=conventional occupancy="_JSON {\"0\": {\"In\": 1}, \"1\": {\"In\": 1}, \"2\": {\"In\": 1}, \"3\": {\"In\": 1}, \"4\": {\"In\": 1}, \"5\": {\"In\": 1}, \"6\": {\"In\": 1}, \"7\": {\"In\": 1}, \"8\": {\"O\": 1}, \"9\": {\"O\": 1}, \"10\": {\"O\": 1}, \"11\": {\"O\": 1}, \"12\": {\"O\": 1}, \"13\": {\"O\": 1}, \"14\": {\"O\": 1}, \"15\": {\"O\": 1}, \"16\": {\"O\": 1}, \"17\": {\"O\": 1}, \"18\": {\"O\": 1}, \"19\": {\"O\": 1}}" n_minim_iter=9 energy=-22574.04961010221 stress="0.04142261178116629 1.3825321481617773e-14 -2.39473609143276e-13 1.3825321481617773e-14 0.04133860636949676 2.1717529174972365e-13 -2.39473609143276e-13 2.1717529174972365e-13 0.04133608418745155" free_energy=-22574.04961010221 pbc="T T T"
In       1.40211143       3.21165451       1.04689179        0      -0.00368614      -0.00256707       0.00285228
In       1.50033345       0.22143700       3.30358683        1       0.00368614      -0.00256707      -0.00285228
In       1.50033345       2.76878050       5.39737041        2       0.00368614       0.00256707       0.00285228
In       1.40211143       5.75899801       7.65406544        3      -0.00368614       0.00256707      -0.00285228
In       4.40277833       2.76878050       7.65406544        4       0.00368614       0.00256707      -0.00285228
In       4.30455631       5.75899801       5.39737041        5      -0.00368614       0.00256707       0.00285228
In       4.30455631       3.21165451       3.30358683        6      -0.00368614      -0.00256707      -0.00285228
In       4.40277833       0.22143700       1.04689179        7       0.00368614      -0.00256707       0.00285228
O        2.27057239       3.54831558       7.37237595        8      -0.00039662      -0.00370552       0.00430491
O        0.63187249       0.55809807       5.67905990        9       0.00039662      -0.00370552      -0.00430491
O        0.63187249       2.43211943       3.02189733       10       0.00039662       0.00370552       0.00430491
O        2.27057239       5.42233694       1.32858129       11      -0.00039662       0.00370552      -0.00430491
O        3.53431737       2.43211943       1.32858129       12       0.00039662       0.00370552      -0.00430491
O        5.17301727       5.42233694       3.02189733       13      -0.00039662       0.00370552       0.00430491
O        5.17301727       3.54831558       5.67905990       14      -0.00039662      -0.00370552      -0.00430491
O        3.53431737       0.55809807       7.37237595       15       0.00039662      -0.00370552       0.00430491
O        5.52222587       4.48532626       0.00000000       16       0.00005733       0.00000000      -0.00000000
O        3.18510876       1.49510875       4.35047862       17      -0.00005733       0.00000000       0.00000000
O        0.28266388       1.49510875       0.00000000       18      -0.00005733      -0.00000000       0.00000000
O        2.61978099       4.48532626       4.35047862       19       0.00005733      -0.00000000      -0.00000000
