20
Lattice="5.723908865086934 -1.2595218891691926e-33 1.5595458161712198e-33 3.8414501934527966e-32 4.57318038471195 -2.60854153120476e-16 1.412003963400065e-31 -4.055304980675254e-18 7.856603998736174" Properties=species:S:1:pos:R:3:spacegroup_kinds:I:1:forces:R:3 spacegroup="P 1" unit_cell=conventional occupancy="_JSON {\"0\": {\"In\": 1}, \"1\": {\"In\": 1}, \"2\": {\"In\": 1}, \"3\": {\"In\": 1}, \"4\": {\"In\": 1}, \"5\": {\"In\": 1}, \"6\": {\"In\": 1}, \"7\": {\"In\": 1}, \"8\": {\"O\": 1}, \"9\": {\"O\": 1}, \"10\": {\"O\": 1}, \"11\": {\"O\": 1}, \"12\": {\"O\": 1}, \"13\": {\"O\": 1}, \"14\": {\"O\": 1}, \"15\": {\"O\": 1}, \"16\": {\"O\": 1}, \"17\": {\"O\": 1}, \"18\": {\"O\": 1}, \"19\": {\"O\": 1}}" n_minim_iter=7 energy=-22575.71607743169 stress="-0.04468965762400918 4.235669044533029e-14 1.1838092210073902e-13 4.235669044533029e-14 -0.044582888648789926 2.792111828534778e-13 1.1838092210073902e-13 2.792111828534778e-13 -0.044498132607057164" free_energy=-22575.71607743169 pbc="T T T"
In       1.48698914       2.28584676       0.87719923        0      -0.00465572      -0.00000000      -0.00254723
In       1.37496530      -0.00074343       3.05110277        1       0.00465572      -0.00000000       0.00254723
In       1.37496530       2.28584676       4.80550123        2       0.00465572       0.00000000      -0.00254723
In       1.48698914       4.57243695       6.97940477        3      -0.00465572      -0.00000000       0.00254723
In       4.23691973       2.28584676       6.97940477        4       0.00465572       0.00000000       0.00254723
In       4.34894357       4.57243695       4.80550123        5      -0.00465572      -0.00000000      -0.00254723
In       4.34894357       2.28584676       3.05110277        6      -0.00465572       0.00000000       0.00254723
In       4.23691973      -0.00074343       0.87719923        7       0.00465572      -0.00000000      -0.00254723
O        2.17265945       2.28584676       6.66817781        8      -0.00265475      -0.00000000      -0.00226243
O        0.68929498      -0.00074343       5.11672819        9       0.00265475       0.00000000       0.00226243
O        0.68929498       2.28584676       2.73987581       10       0.00265475       0.00000000      -0.00226243
O        2.17265945       4.57243695       1.18842619       11      -0.00265475       0.00000000       0.00226243
O        3.55124941       2.28584676       1.18842619       12       0.00265475       0.00000000       0.00226243
O        5.03461388       4.57243695       2.73987581       13      -0.00265475      -0.00000000      -0.00226243
O        5.03461388       2.28584676       5.11672819       14      -0.00265475       0.00000000       0.00226243
O        3.55124941      -0.00074343       6.66817781       15       0.00265475       0.00000000      -0.00226243
O        5.72390887       3.42914185      -0.00000000       16       0.00000000       0.00000000      -0.00000000
O        2.86195443       1.14255166       3.92830200       17       0.00000000       0.00000000      -0.00000000
O       -0.00000000       1.14255166      -0.00000000       18       0.00000000       0.00000000       0.00000000
O        2.86195443       3.42914185       3.92830200       19       0.00000000      -0.00000000       0.00000000
