20
Lattice="5.501804536920958 1.2624313806557977e-61 -9.976528008496442e-45 -8.748842641004878e-61 5.607809045738405 4.6375572716584735e-17 4.02667086428705e-44 6.956833439022294e-17 7.9155509830371695" Properties=species:S:1:pos:R:3:spacegroup_kinds:I:1:forces:R:3 spacegroup="P 1" unit_cell=conventional occupancy="_JSON {\"0\": {\"In\": 1}, \"1\": {\"In\": 1}, \"2\": {\"In\": 1}, \"3\": {\"In\": 1}, \"4\": {\"In\": 1}, \"5\": {\"In\": 1}, \"6\": {\"In\": 1}, \"7\": {\"In\": 1}, \"8\": {\"O\": 1}, \"9\": {\"O\": 1}, \"10\": {\"O\": 1}, \"11\": {\"O\": 1}, \"12\": {\"O\": 1}, \"13\": {\"O\": 1}, \"14\": {\"O\": 1}, \"15\": {\"O\": 1}, \"16\": {\"O\": 1}, \"17\": {\"O\": 1}, \"18\": {\"O\": 1}, \"19\": {\"O\": 1}}" n_minim_iter=4 energy=-22574.944684027734 stress="-0.004686186446889758 7.15126522967529e-14 -2.019770383565903e-13 7.15126522967529e-14 -0.004757250383204267 -3.841200360611121e-13 -2.019770383565903e-13 -3.841200360611121e-13 -0.004754233700351467" free_energy=-22574.944684027734 pbc="T T T"
In       1.36599124       2.96528038       0.90564759        0       0.00400171      -0.00600434      -0.00036144
In       1.38491103       0.16137586       3.05212790        1      -0.00400171      -0.00600434       0.00036144
In       1.38491103       2.64252867       4.86342308        2      -0.00400171       0.00600434      -0.00036144
In       1.36599124       5.44643319       7.00990340        3       0.00400171       0.00600434       0.00036144
In       4.13581329       2.64252867       7.00990340        4      -0.00400171       0.00600434       0.00036144
In       4.11689351       5.44643319       4.86342308        5       0.00400171       0.00600434      -0.00036144
In       4.11689351       2.96528038       3.05212790        6       0.00400171      -0.00600434       0.00036144
In       4.13581329       0.16137586       0.90564759        7      -0.00400171      -0.00600434      -0.00036144
O        2.14549413       3.38822525       6.72558714        8      -0.00537476      -0.00215415      -0.00309399
O        0.60540814       0.58432073       5.14773933        9       0.00537476      -0.00215415       0.00309399
O        0.60540814       2.21958379       2.76781165       10       0.00537476       0.00215415      -0.00309399
O        2.14549413       5.02348832       1.18996384       11      -0.00537476       0.00215415       0.00309399
O        3.35631041       2.21958379       1.18996384       12       0.00537476       0.00215415       0.00309399
O        4.89639640       5.02348832       2.76781165       13      -0.00537476       0.00215415      -0.00309399
O        4.89639640       3.38822525       5.14773933       14      -0.00537476      -0.00215415       0.00309399
O        3.35631041       0.58432073       6.72558714       15       0.00537476      -0.00215415      -0.00309399
O        5.27536795       4.20585678       0.00000000       16      -0.00048965      -0.00000000      -0.00000000
O        2.97733886       1.40195226       3.95777549       17       0.00048965      -0.00000000      -0.00000000
O        0.22643659       1.40195226       0.00000000       18       0.00048965      -0.00000000      -0.00000000
O        2.52446568       4.20585678       3.95777549       19      -0.00048965      -0.00000000       0.00000000
