20
Lattice="5.462171135117508 -7.7232784852538245e-62 3.318238788850813e-44 1.8367539055699377e-62 5.5749250298857085 -3.527129709737042e-17 -2.11951224337462e-45 8.79812460777651e-17 7.808962144521813" Properties=species:S:1:pos:R:3:spacegroup_kinds:I:1:forces:R:3 spacegroup="P 1" unit_cell=conventional occupancy="_JSON {\"0\": {\"In\": 1}, \"1\": {\"In\": 1}, \"2\": {\"In\": 1}, \"3\": {\"In\": 1}, \"4\": {\"In\": 1}, \"5\": {\"In\": 1}, \"6\": {\"In\": 1}, \"7\": {\"In\": 1}, \"8\": {\"O\": 1}, \"9\": {\"O\": 1}, \"10\": {\"O\": 1}, \"11\": {\"O\": 1}, \"12\": {\"O\": 1}, \"13\": {\"O\": 1}, \"14\": {\"O\": 1}, \"15\": {\"O\": 1}, \"16\": {\"O\": 1}, \"17\": {\"O\": 1}, \"18\": {\"O\": 1}, \"19\": {\"O\": 1}}" n_minim_iter=7 energy=-22574.911453789457 stress="-0.005113499332434037 -7.856778127264653e-13 2.6398221644486556e-13 -7.856778127264653e-13 -0.005084917086670338 -7.545554762761265e-13 2.6398221644486556e-13 -7.545554762761265e-13 -0.005110677850414797" free_energy=-22574.911453789457 pbc="T T T"
In       1.35918439       2.94730776       0.89369802        0      -0.00008039      -0.00381940      -0.00730081
In       1.37190118       0.15984524       3.01078306        1       0.00008039      -0.00381940       0.00730081
In       1.37190118       2.62761727       4.79817909        2       0.00008039       0.00381940      -0.00730081
In       1.35918439       5.41507979       6.91526413        3      -0.00008039       0.00381940       0.00730081
In       4.10298675       2.62761727       6.91526413        4       0.00008039       0.00381940       0.00730081
In       4.09026995       5.41507979       4.79817909        5      -0.00008039       0.00381940      -0.00730081
In       4.09026995       2.94730776       3.01078306        6      -0.00008039      -0.00381940       0.00730081
In       4.10298675       0.15984524       0.89369802        7       0.00008039      -0.00381940      -0.00730081
O        2.12572640       3.36939251       6.63862122        8       0.00101075      -0.00229074       0.00326088
O        0.60535917       0.58192999       5.07482200        9      -0.00101075      -0.00229074      -0.00326088
O        0.60535917       2.20553252       2.73414015       10      -0.00101075       0.00229074       0.00326088
O        2.12572640       4.99299504       1.17034093       11       0.00101075       0.00229074      -0.00326088
O        3.33644474       2.20553252       1.17034093       12      -0.00101075       0.00229074      -0.00326088
O        4.85681197       4.99299504       2.73414015       13       0.00101075       0.00229074       0.00326088
O        4.85681197       3.36939251       5.07482200       14       0.00101075      -0.00229074      -0.00326088
O        3.33644474       0.58192999       6.63862122       15      -0.00101075      -0.00229074       0.00326088
O        5.24299230       4.18119377      -0.00000000       16      -0.00068825      -0.00000000      -0.00000000
O        2.95026440       1.39373126       3.90448107       17       0.00068825       0.00000000       0.00000000
O        0.21917884       1.39373126      -0.00000000       18       0.00068825       0.00000000      -0.00000000
O        2.51190673       4.18119377       3.90448107       19      -0.00068825      -0.00000000       0.00000000
