80
Lattice="11.75827211719101 0.00020562565908232712 0.00014198162814935364 6.452192683936216 9.829861280483758 0.00014198162814979786 6.452192683936214 3.4829141632064347 9.192142391491137" Properties=species:S:1:pos:R:3:spacegroup_kinds:I:1:forces:R:3 spacegroup="P 1" unit_cell=conventional occupancy="_JSON {\"0\": {\"In\": 1}, \"1\": {\"In\": 1}, \"2\": {\"In\": 1}, \"3\": {\"In\": 1}, \"4\": {\"O\": 1}, \"5\": {\"O\": 1}, \"6\": {\"O\": 1}, \"7\": {\"O\": 1}, \"8\": {\"O\": 1}, \"9\": {\"O\": 1}}" energy=-90301.49493113658 stress="0.002072695613401813 -0.0008126222229690578 -0.0005611042260153476 -0.0008126222229690578 0.0031394441946604253 -0.0003028858485099673 -0.0005611042260153476 -0.0003028858485099673 0.003368961836843311" virial="-2.1831081555084513 0.8642689123237213 0.596989361559952 0.8642689123237213 -3.3166075642219552 0.32190602829213094 0.596989361559952 0.32190602829213094 -3.56047576747357" qe_fenergy=-90301.49493113658 U=-90301.49493113658 pbc="T T T"
In      10.57064372       5.70606716       3.93995919        0       0.00349593       0.00168459       0.00096365
In      16.44977978       5.70616997       3.94003018        0       0.00349593       0.00168459       0.00096365
In      13.79674006      10.62099780       3.94003018        0       0.00349593       0.00168459       0.00096365
In      19.67587612      10.62110061       3.94010117        0       0.00349593       0.00168459       0.00096365
In      13.79674006       7.44752424       8.53603039        0       0.00349593       0.00168459       0.00096365
In      19.67587612       7.44762705       8.53610138        0       0.00349593       0.00168459       0.00096365
In      17.02283640      12.36245488       8.53610138        0       0.00349593       0.00168459       0.00096365
In      22.90197246      12.36255769       8.53617237        0       0.00349593       0.00168459       0.00096365
In       7.92634940       4.27866866       2.95436058        1      -0.00312620      -0.00213736      -0.00127372
In      13.80548546       4.27877147       2.95443157        1      -0.00312620      -0.00213736      -0.00127372
In      11.15244574       9.19359930       2.95443157        1      -0.00312620      -0.00213736      -0.00127372
In      17.03158180       9.19370211       2.95450256        1      -0.00312620      -0.00213736      -0.00127372
In      11.15244574       6.02012574       7.55043178        1      -0.00312620      -0.00213736      -0.00127372
In      17.03158180       6.02022855       7.55050277        1      -0.00312620      -0.00213736      -0.00127372
In      14.37854208      10.93505638       7.55050277        1      -0.00312620      -0.00213736      -0.00127372
In      20.25767814      10.93515919       7.55057376        1      -0.00312620      -0.00213736      -0.00127372
In       4.40497935       2.37782189       1.64185260        2       0.00312620       0.00213736       0.00127372
In      10.28411541       2.37792470       1.64192359        2       0.00312620       0.00213736       0.00127372
In       7.63107569       7.29275253       1.64192359        2       0.00312620       0.00213736       0.00127372
In      13.51021175       7.29285534       1.64199458        2       0.00312620       0.00213736       0.00127372
In       7.63107569       4.11927897       6.23792380        2       0.00312620       0.00213736       0.00127372
In      13.51021175       4.11938178       6.23799479        2       0.00312620       0.00213736       0.00127372
In      10.85717203       9.03420961       6.23799479        2       0.00312620       0.00213736       0.00127372
In      16.73630809       9.03431242       6.23806578        2       0.00312620       0.00213736       0.00127372
In       1.76068503       0.95042339       0.65625399        3      -0.00349593      -0.00168459      -0.00096365
In       7.63982109       0.95052620       0.65632498        3      -0.00349593      -0.00168459      -0.00096365
In       4.98678137       5.86535403       0.65632498        3      -0.00349593      -0.00168459      -0.00096365
In      10.86591743       5.86545684       0.65639597        3      -0.00349593      -0.00168459      -0.00096365
In       4.98678137       2.69188047       5.25232519        3      -0.00349593      -0.00168459      -0.00096365
In      10.86591743       2.69198328       5.25239618        3      -0.00349593      -0.00168459      -0.00096365
In       8.21287771       7.60681111       5.25239618        3      -0.00349593      -0.00168459      -0.00096365
In      14.09201377       7.60691392       5.25246717        3      -0.00349593      -0.00168459      -0.00096365
O        6.02240022       2.30941877       0.21460963        4      -0.00000257       0.00768349      -0.01110819
O       11.90153628       2.30952158       0.21468062        4      -0.00000257       0.00768349      -0.01110819
O        9.24849656       7.22434941       0.21468062        4      -0.00000257       0.00768349      -0.01110819
O       15.12763262       7.22445222       0.21475161        4      -0.00000257       0.00768349      -0.01110819
O        9.24849656       4.05087585       4.81068083        4      -0.00000257       0.00768349      -0.01110819
O       15.12763262       4.05097866       4.81075182        4      -0.00000257       0.00768349      -0.01110819
O       12.47459290       8.96580649       4.81075182        4      -0.00000257       0.00768349      -0.01110819
O       18.35372896       8.96590930       4.81082281        4      -0.00000257       0.00768349      -0.01110819
O        7.09602058       5.12094397       1.14912429        5      -0.00641773       0.01189264      -0.00000617
O       12.97515664       5.12104678       1.14919528        5      -0.00641773       0.01189264      -0.00000617
O       10.32211692      10.03587461       1.14919528        5      -0.00641773       0.01189264      -0.00000617
O       16.20125298      10.03597742       1.14926627        5      -0.00641773       0.01189264      -0.00000617
O       10.32211692       6.86240105       5.74519549        5      -0.00641773       0.01189264      -0.00000617
O       16.20125298       6.86250386       5.74526648        5      -0.00641773       0.01189264      -0.00000617
O       13.54821326      11.77733169       5.74526648        5      -0.00641773       0.01189264      -0.00000617
O       19.42734932      11.77743450       5.74533747        5      -0.00641773       0.01189264      -0.00000617
O        8.17487620       2.18084271       2.51264523        6       0.00641387      -0.00420915      -0.01110228
O       14.05401226       2.18094552       2.51271622        6       0.00641387      -0.00420915      -0.01110228
O       11.40097254       7.09577335       2.51271622        6       0.00641387      -0.00420915      -0.01110228
O       17.28010860       7.09587616       2.51278721        6       0.00641387      -0.00420915      -0.01110228
O       11.40097254       3.92229979       7.10871643        6       0.00641387      -0.00420915      -0.01110228
O       17.28010860       3.92240260       7.10878742        6       0.00641387      -0.00420915      -0.01110228
O       14.62706888       8.83723043       7.10878742        6       0.00641387      -0.00420915      -0.01110228
O       20.50620494       8.83733324       7.10885841        6       0.00641387      -0.00420915      -0.01110228
O        4.15645255       4.47564784       2.08356795        7      -0.00641387       0.00420915       0.01110228
O       10.03558861       4.47575065       2.08363894        7      -0.00641387       0.00420915       0.01110228
O        7.38254889       9.39057848       2.08363894        7      -0.00641387       0.00420915       0.01110228
O       13.26168495       9.39068129       2.08370993        7      -0.00641387       0.00420915       0.01110228
O        7.38254889       6.21710492       6.67963915        7      -0.00641387       0.00420915       0.01110228
O       13.26168495       6.21720773       6.67971014        7      -0.00641387       0.00420915       0.01110228
O       10.60864523      11.13203556       6.67971014        7      -0.00641387       0.00420915       0.01110228
O       16.48778129      11.13213837       6.67978113        7      -0.00641387       0.00420915       0.01110228
O        6.30892853       4.34707177       4.38160355        8       0.00000257      -0.00768349       0.01110819
O       12.18806459       4.34717458       4.38167454        8       0.00000257      -0.00768349       0.01110819
O        9.53502487       9.26200241       4.38167454        8       0.00000257      -0.00768349       0.01110819
O       15.41416093       9.26210522       4.38174553        8       0.00000257      -0.00768349       0.01110819
O        9.53502487       6.08852885       8.97767475        8       0.00000257      -0.00768349       0.01110819
O       15.41416093       6.08863166       8.97774574        8       0.00000257      -0.00768349       0.01110819
O       12.76112121      11.00345949       8.97774574        8       0.00000257      -0.00768349       0.01110819
O       18.64025727      11.00356230       8.97781673        8       0.00000257      -0.00768349       0.01110819
O        5.23530817       1.53554657       3.44708889        9       0.00641773      -0.01189264       0.00000617
O       11.11444423       1.53564938       3.44715988        9       0.00641773      -0.01189264       0.00000617
O        8.46140451       6.45047721       3.44715988        9       0.00641773      -0.01189264       0.00000617
O       14.34054057       6.45058002       3.44723087        9       0.00641773      -0.01189264       0.00000617
O        8.46140451       3.27700365       8.04316009        9       0.00641773      -0.01189264       0.00000617
O       14.34054057       3.27710646       8.04323108        9       0.00641773      -0.01189264       0.00000617
O       11.68750085       8.19193429       8.04323108        9       0.00641773      -0.01189264       0.00000617
O       17.56663691       8.19203710       8.04330207        9       0.00641773      -0.01189264       0.00000617
