30
Lattice="5.58561033 0.0 0.0 -2.7928051649999985 4.8372804414207815 0.0 0.0 0.0 14.74820835" Properties=species:S:1:pos:R:3:spacegroup_kinds:I:1:momenta:R:3:forces:R:3 spacegroup="P 1" unit_cell=conventional occupancy="_JSON {\"0\": {\"In\": 1}, \"1\": {\"In\": 1}, \"2\": {\"In\": 1}, \"3\": {\"In\": 1}, \"4\": {\"In\": 1}, \"5\": {\"In\": 1}, \"6\": {\"In\": 1}, \"7\": {\"In\": 1}, \"8\": {\"In\": 1}, \"9\": {\"In\": 1}, \"10\": {\"In\": 1}, \"11\": {\"In\": 1}, \"12\": {\"O\": 1}, \"13\": {\"O\": 1}, \"14\": {\"O\": 1}, \"15\": {\"O\": 1}, \"16\": {\"O\": 1}, \"17\": {\"O\": 1}, \"18\": {\"O\": 1}, \"19\": {\"O\": 1}, \"20\": {\"O\": 1}, \"21\": {\"O\": 1}, \"22\": {\"O\": 1}, \"23\": {\"O\": 1}, \"24\": {\"O\": 1}, \"25\": {\"O\": 1}, \"26\": {\"O\": 1}, \"27\": {\"O\": 1}, \"28\": {\"O\": 1}, \"29\": {\"O\": 1}}" time=13214.999999999998 energy=-33847.70198791176 free_energy=-33854.717108636505 origin=md_bulk-R3c_1375C uid=d83d0eb268864c918025270f242cfb31 virial="30.129507897874966 2.2855984922650263 -1.580930220118005 2.2855984922650263 29.18702323066275 6.513608125147153 -1.580930220118005 6.513608125147153 18.45272290017394" qe_fenergy=-33847.70198791176 U=-33847.676908673886 pbc="T T T"
In       2.87847286       2.01801998       2.55223105        0       2.71065919       8.70864987       1.15334151       0.23940610      -4.38027086       1.92134788
In       0.09062808       3.22914276       4.50146844        1       2.27336078      -4.52714875      -3.44960163      -0.34674649      -0.16919864       2.20500961
In       0.08832587       3.00091252       0.65121751        2       4.49327408      -3.46205371      -2.15887446       0.96890175      -0.08151094      -1.42672476
In       0.11454282      -0.06523117       2.15226584        3      -3.36529891       7.48515811       0.52264756      -1.98894548       1.77239001       0.42295593
In      -0.08269220       3.18470094       8.29191484        4       0.49653658      -3.10076392       0.33155919      -0.50414127       1.09893426      -1.42999203
In       0.05931601      -0.00738126       9.45268551        5      -4.73689243      -3.69282860      -7.77140097      -2.07418254      -0.06841754      -0.99920144
In      -0.20456093      -0.35066578       5.44092263        6       3.23456206       4.51503243       4.69070701       1.08483222       2.33152905       0.76341613
In       2.63071101       1.49773316       6.86255051        7      -5.53794883      -7.69765890       3.29673043       0.80264370       0.69381200      -0.22049442
In       0.13954650      -0.05087924      13.00965453        8      -1.28378064      -5.07664024      -1.62274769      -1.06881773       1.15653736      -0.07653650
In       2.92223137       1.70417517      14.17947044        9       0.50300221       0.22323556       2.13819263      -0.87875806       1.06918666      -0.65278729
In       2.80830138       1.65848229      10.20658384       10      -4.50904966       0.23967050       3.95576132       0.59576252      -1.05527917      -0.21388422
In      -0.17449431       3.34147705      11.70766180       11      -1.22432800      -3.83766638     -11.15250498       3.08677655      -1.06416424       1.38870009
O        1.50620339       1.12007641       1.38946585       12       0.55121957       3.62126263       1.13633446       0.27140271       0.40334756      -0.04692974
O        3.83008575      -0.06224639       3.33042214       13      -0.13376774       0.55331244       1.05769364       0.39055833       0.09773515       0.22158908
O       -1.87515200       3.06300240       3.96997776       14       2.11123070      -0.77296049       1.26429385      -0.39697930       1.74444894       0.16868228
O        2.43182573       3.73750434       0.31916612       15       0.82920457      -3.51899387       0.67536152      -0.85821104      -0.31963543       0.58319719
O        0.89072956       1.85119901       2.70801066       16      -0.60734460       0.83793347       0.02829643      -0.68139624      -0.37035291      -0.06954255
O        4.18845994       1.53287529       1.15664092       17       1.29800310       1.34281362      -0.81439131       2.06649277       0.24672628      -1.62804811
O       -1.05712809       1.55785080       5.95185751       18       0.60191748       1.04709394       2.54440983       0.71481283      -0.36539431      -2.10084296
O        0.81908626       1.38765797       7.98891936       19      -0.77528561       0.20155046      -1.55132286       0.35559153      -0.38414376       1.39856436
O        3.66190665       0.22734506       8.64487390       20       2.15798326      -0.08673075      -0.71767278      -0.54717153      -0.71646026       0.73803417
O       -0.54411693       4.45929440       6.40351213       21       0.32414246      -1.91649491       1.58716713      -1.15549835      -1.64190139      -1.82099527
O        3.34033652       2.83960039       8.36977229       22       0.51912943       1.25204539       0.69993731       0.93560262       1.32115120       1.52593987
O        1.45125514       3.18014213       6.30769747       23      -1.12062178       2.00056188      -1.44424173      -0.64619813      -1.23524587      -1.54666115
O        1.91317910       3.25464074      11.06738374       24      -0.89595894       0.30231966       1.40800082      -0.08581076       1.27746255       0.22036092
O       -1.34844446       3.35721706      13.39894887       25       0.56588507       1.68783792       1.80631947      -0.64553357      -1.03698225       0.42411748
O        0.74645093       1.92445578      13.42263936       26      -0.24911109       1.98499319       0.63924592       0.91822957      -0.23737482       1.11156326
O       -0.72768624       1.67555833      10.71242287       27       1.21820807       0.35303184       0.67246567      -0.35368121      -1.35232593      -0.55918880
O        0.89141524       5.03584104      13.03213002       28       2.09113895       0.38896770       1.16199853      -0.46083010      -0.54348026      -0.32109015
O        1.51278034      -0.09001574      10.83268830       29      -1.54006933       0.94446993      -0.08770582       0.26188857       1.80887754       0.01944114
