20
Lattice="5.593732 0.0 0.0 0.0 5.688408 0.0 0.0 0.0 8.082655" Properties=species:S:1:pos:R:3:spacegroup_kinds:I:1:momenta:R:3:forces:R:3 spacegroup="P 1" unit_cell=conventional occupancy="_JSON {\"0\": {\"In\": 1}, \"1\": {\"In\": 1}, \"2\": {\"In\": 1}, \"3\": {\"In\": 1}, \"4\": {\"In\": 1}, \"5\": {\"In\": 1}, \"6\": {\"In\": 1}, \"7\": {\"In\": 1}, \"8\": {\"O\": 1}, \"9\": {\"O\": 1}, \"10\": {\"O\": 1}, \"11\": {\"O\": 1}, \"12\": {\"O\": 1}, \"13\": {\"O\": 1}, \"14\": {\"O\": 1}, \"15\": {\"O\": 1}, \"16\": {\"O\": 1}, \"17\": {\"O\": 1}, \"18\": {\"O\": 1}, \"19\": {\"O\": 1}}" time=13214.999999999998 energy=-22566.037545593652 free_energy=-22568.97914622754 origin=md_bulk_Pbcn_1375C uid=a5b8378dce704d08925506f9b1607506 virial="15.02514953548607 1.3282695962078477 -1.2269669016703957 1.3282695962078477 11.92774290553792 -1.7648865710324364 -1.2269669016703957 -1.7648865710324364 13.460979258991708" qe_fenergy=-22566.037545593652 U=-22566.034483088213 pbc="T T T"
In       1.29627377       2.56172092       0.86812178        0      -0.54271453       8.51981446      -2.75373529      -1.54210385       1.96055316       2.00620404
In       1.21940034      -0.65710325       3.13384709        1      -5.35233075      -1.98844300       3.26636811      -1.32819500       3.64756701      -2.33157842
In       1.27874245       3.30555325       5.49612286        2      -2.40661713      -4.15674176      -2.08343712       0.90715344      -1.24982868      -1.06843379
In       1.84437588       6.04685989       6.81221145        3      -2.40840391       5.55232117       5.83579086      -0.34697928      -0.22036886       1.51425342
In       4.18341456       3.23955866       7.44450640        4       2.14608529      -0.22031085       2.34342186      -0.06814370      -2.20122510       0.42703122
In       4.54184598       5.95830007       5.41552630        5      -0.93467230      -3.05920171      -2.36856455      -2.68090691       0.86549540      -1.11349334
In       4.19567789       2.41657287       3.16287562        6       0.51045537       1.42953859      -0.42023388      -0.49231854       0.67653268      -0.38346045
In       3.86219030      -0.00585849       1.39533784        7       6.01919188       1.21793021      -6.31787826       1.70982822      -0.16650865      -0.79304510
O        3.21826974       4.61265367       6.08482072        8       0.33642738       0.13288439      -1.27929847      -2.03215077       0.51666403       0.58267810
O        0.75927218       0.60000851       5.00252870        9       2.25312848      -3.44284179      -1.42515659       3.11710297       0.33721785      -1.94535766
O        0.16683814       1.05956078       1.85687660       10       0.29579084      -0.86771730      -0.28218510      -0.71425211      -0.96291106       0.66565217
O        2.06948904       4.88324831       0.81778445       11      -0.39429139       1.27502989       1.49926801       0.15496410      -1.62661396      -1.15383576
O        2.93926490       1.68950843       0.20041019       12      -2.51459540       0.85952751      -0.43559785       2.11700986       0.06604133       0.86641523
O        5.28035842       3.77392437       1.69064515       13      -1.79532244      -4.19537439       1.95151612      -2.01088921      -0.08600121      -1.10376686
O        5.26341337       3.87026633       4.19444384       14       1.49080235       1.44798163       1.04272426      -1.11374024      -0.02230041       2.43747015
O        3.14221932       1.99018599       5.86532296       15       3.99054463       0.39417649       3.42688698       1.11629286      -0.83808199      -0.61110895
O        4.74788670       5.15554129      -0.75052168       16      -0.45522512      -0.86501847       1.13011052       0.55166932       1.39262424       0.23964518
O        3.30273957       0.41591981       3.42187207       17      -0.17366772      -2.89725681       0.09969584       0.04286636      -0.13799013      -0.11614016
O        0.42845544       2.08070477      -1.16667526       18      -0.14231751       0.92751807      -3.15271214      -1.13984751       1.06361822       1.27917624
O        1.90693520       3.19535103       3.16342452       19       0.07773198      -0.06381633      -0.07698331       3.75263997      -3.01448386       0.60169477
