40
Lattice="8.409557158053133 0.0 -2.973227446617621 -4.204778579026566 7.282890133451279 -2.9732274466176203 0.0 0.0 8.91968233985286" Properties=species:S:1:pos:R:3:momenta:R:3:forces:R:3 time=8955.0 energy=-45143.34729832207 free_energy=-45144.7177990704 origin=md_surface-Ia3-mill-111_1000C uid=c1e936a533fb4bcaa762ed8c7588d69d virial="13.45899938796053 -6.256756917430762 -3.545696220083218 -6.256756917430762 8.597147151255673 -1.1822331292596044 -3.545696220083218 -1.1822331292596044 19.336558916456095" qe_fenergy=-45143.34729832207 U=-45143.34693505007 pbc="T T T"
In       3.52340674       5.82081337      -4.24401368      -1.59473708      -1.32813410      -2.14267526       0.69975871      -1.23955172      -0.51287596
In       0.81346046       1.96891464       7.00882721      -7.89534910      -3.64674099       4.14626313      -0.20980948       0.55643045       1.91311739
In       4.86170179       2.10635393       0.80530611       7.34879225       0.36145369       1.85959613       1.34214703      -1.58214016       2.50948106
In       2.38219395       3.61938012       1.40611720       2.21926823       4.08466394      -4.95108332      -0.70155346       1.78232072       0.27826026
In       3.12685991       1.69228463       4.73539410       6.07084028       1.08983391       5.18316763      -0.07426821       0.97752843      -0.96238344
In       2.51261080       7.08521857       1.27450335       4.79870685      -3.66545947      -3.15242636      -1.49906601       0.17604968      -0.32491203
In       4.27174725       3.77224608      -1.87205508      -0.62336931      -4.15211938       0.07844687       2.06640949      -3.17175886      -3.94656514
In       2.02469625       0.44418169       1.77170894      -4.25316902       3.99976689      -6.13785233      -2.83701306      -0.94664874       0.89032098
In       1.19142491       5.99508671      -1.90148864      -3.93430357      -2.69851782       1.24035230      -1.69063888      -0.99527739       1.20633725
In       0.00393009       0.20279484       4.49603968      -4.11297068      -2.90999380       3.73436276      -0.31398474       0.11317247      -0.32526651
In      -0.57483736       2.09931966       1.13880035       1.86944389       4.87855003      -2.11810387      -1.83322051       1.37478401       0.11770725
In       5.28984114       5.29233741       1.71369844       2.64055689       0.98710719       0.34136487      -0.39320134       0.29994202      -0.39791609
In      -0.02654735       4.06494644       4.44476342       0.12001128      -0.41771834       3.05550802      -1.22564382       0.55925974      -0.39636719
In      -0.55704141       5.70216028       1.22308984       6.79867410       2.98644513       2.23320526      -1.61734441      -1.14141086       0.71336466
In      -2.04339944       3.79343982      -1.65941348      -2.35730936       0.57561669      -3.94738622       1.02819570      -0.64148272       0.80037565
In       4.23120750       0.01784295      -1.73725312      -3.08881412      -2.51011381      -3.11770555       0.32236471       0.45140463       0.99853561
O        4.64961808       0.21417040       5.08269103      -0.38162628      -0.51841530       1.56679362       0.53622957      -0.67251714       0.01318681
O        4.40932730       3.45942035       4.74286425      -2.33779111      -1.41933728      -0.14124081      -2.62895284       0.12960519       1.53453229
O       -3.95647885       6.95782234       3.45152418       0.50800571       0.48838157      -1.08425889       0.59165027       0.08500041       2.09212975
O        1.52074433       2.17064172       0.17882384      -0.59552805      -2.55169577       1.35339145      -1.51410201      -0.90477607       0.60232828
O        0.42929808       3.75891528       2.30220334       1.01009970      -0.53062160      -0.03846091      -0.68456815      -0.06700323       0.59882832
O       -1.34890212       5.70755827       3.66124119       1.24836653       0.55834179       0.05704417       1.49716212      -0.02572207      -0.10367799
O       -2.00338237       4.01227145       0.74128196       1.01099600       0.23626522      -3.46396016       1.31759947       0.96691766      -0.46411122
O        3.24052339       1.95102642       2.57060989       1.77282689       1.82030880       0.75625204       0.15705596       1.81174383      -0.03115064
O       -0.05368062       0.56499932       2.51101453       0.14021477      -0.52326927      -0.23550197      -0.28646644       0.19951956      -3.09242003
O        1.26756529       5.43534461       0.25850706      -1.40357409       2.20124799       0.70860690       0.62270567       0.25657097      -0.18623186
O        0.64581120       2.24450248       4.98141019      -0.84445960      -1.37299239      -0.74733508       1.38210946      -1.34232935      -0.51393358
O        1.48143482       5.50854975       4.94919263       3.60302988       0.11042036       1.07275945      -1.28840654       1.09798640      -1.23341718
O        7.15006770       1.87474590       4.88064363      -0.45861725       0.29359707      -1.08093356       0.87106295      -1.32913394       0.53579707
O       -2.73754238       5.73043144      -2.06028239      -0.49964638       0.34511178       1.87578166      -1.24288090       1.47772583       0.18878520
O        3.20393984       5.39940234      -2.06333047      -0.84677011       0.45766872       0.87424090       0.32115613       1.72552371      -1.16845437
O       -0.05468781       4.15784676      -2.16167299       0.86540346       2.04439257       0.59880438       1.07172742       0.36529708       0.24661892
O        5.60989189       1.85777605      -1.03405348      -0.30672884      -0.26183837       2.03414410       0.47742094      -1.50128707      -1.62817031
O        6.34014404       0.43207350       1.81645489      -0.55821409       2.06322918      -0.98310109      -0.82704579       1.09887981       0.66823386
O        3.60790758       0.13978265       0.74787939       0.38017273      -0.00606179      -0.69974220       4.78564339      -0.83593035      -3.32698605
O        6.12510518       3.35054235       2.19641458      -0.96016641      -0.74608716       0.04994325      -0.07043197       0.24926488      -1.26446776
O        2.91795754       1.69674547      -1.97124130      -3.17812202       0.05384287       2.79803653       0.77468788       0.54416951      -1.38279570
O        4.20895111       3.96253209       0.03178886      -0.96448206      -0.07649241      -1.89005807      -0.63902160       0.59711758       5.02220979
O       -2.19416293       7.20541157       0.92364334      -0.02032727       0.85127978      -0.01461288       1.62605190      -1.03552372       0.38775202
O        3.20983322       5.27826431       2.51752280      -1.18933365      -1.15191614       0.32837312       0.08648137       0.53627881      -0.05579937
