30
Lattice="5.58561033 0.0 0.0 -2.7928051649999985 4.8372804414207815 0.0 0.0 0.0 14.74820835" Properties=species:S:1:pos:R:3:spacegroup_kinds:I:1:momenta:R:3:forces:R:3 spacegroup="P 1" unit_cell=conventional occupancy="_JSON {\"0\": {\"In\": 1}, \"1\": {\"In\": 1}, \"2\": {\"In\": 1}, \"3\": {\"In\": 1}, \"4\": {\"In\": 1}, \"5\": {\"In\": 1}, \"6\": {\"In\": 1}, \"7\": {\"In\": 1}, \"8\": {\"In\": 1}, \"9\": {\"In\": 1}, \"10\": {\"In\": 1}, \"11\": {\"In\": 1}, \"12\": {\"O\": 1}, \"13\": {\"O\": 1}, \"14\": {\"O\": 1}, \"15\": {\"O\": 1}, \"16\": {\"O\": 1}, \"17\": {\"O\": 1}, \"18\": {\"O\": 1}, \"19\": {\"O\": 1}, \"20\": {\"O\": 1}, \"21\": {\"O\": 1}, \"22\": {\"O\": 1}, \"23\": {\"O\": 1}, \"24\": {\"O\": 1}, \"25\": {\"O\": 1}, \"26\": {\"O\": 1}, \"27\": {\"O\": 1}, \"28\": {\"O\": 1}, \"29\": {\"O\": 1}}" time=17475.0 energy=-33823.66999887028 free_energy=-33853.879680113365 origin=md_bulk-R3c_1750C uid=8475d981880d429eb90267c6589c192b virial="74.48775364818901 7.260351605651862 6.5838554295356415 7.260351605651862 72.61705329746847 0.08671151635453998 6.5838554295356415 0.08671151635453998 74.08273403382414" qe_fenergy=-33823.66999887028 U=-33823.63202796617 pbc="T T T"
In       3.13978119       2.35632026       2.85840262        0      -5.84219121       4.48920713       5.70759172      -0.50025942       1.60350525       0.84431379
In      -0.56194769       0.33884831       4.88064021        1       3.33536339       7.37133451      -0.32710953       0.79506680      -3.95258853      -0.02566076
In       0.33878570       4.31816635       1.77024039        2      -3.07257882       2.58853084       3.00324881      -0.26289082       0.12296660      -1.29847682
In       0.57215448       1.23616248       1.34095627        3       2.32416882      -8.48950471      -6.47276649      -1.20234810      -2.00384173      -0.20781942
In       0.24561087       3.62095187       8.96582429        4       2.03452625      -5.26024746       0.73905435       0.96643489      -2.75906432       0.28819198
In       0.08709292       0.13216333       7.94122920        5       9.63971737      -9.23422518      -1.00923908       0.55404742       0.24511170       0.00757939
In      -3.01447605      -1.61673197       5.00656791        6      -1.26415065       7.06724994      -3.73724304       2.77224427       1.16709382      -0.11323862
In       2.96086586       2.07742432       7.05262856        7      -0.01804336       8.95930031       6.33297597       0.22501732      -0.91488902       2.30222001
In       0.34086491      -0.04222119      11.68863099        8       3.04301144      -5.80102914      -4.22294533       0.31826930       0.65672530      -1.26035738
In       3.28835741       2.42891754      14.12190668        9       1.33163801       2.15843594     -10.37665323       4.18527527       1.66012047       0.08035423
In       3.08910956       1.53249872      10.91675044       10       4.40425297      -0.15130336      -0.46604951      -0.15594367       1.06279250      -0.95129901
In       0.11383966       3.89362934      13.10555859       11      -4.97374399      -6.43599629       6.66598053      -0.37518374      -2.92581683      -0.32156206
O        1.60503498       1.79435711      -0.63664262       12      -0.38919269       0.75668944       5.44214628      -7.89886721       0.08981880       1.73174674
O        4.81913764      -0.30169439       2.77587899       13      -1.41292090      -3.37554906      -0.41469228       2.05387841       0.84037907       0.52888903
O       -0.27376037       2.70296871       2.94121709       14      -4.78863867       0.25373714      -0.22200682      -2.10656320      -0.86800049      -1.33141939
O        2.42889390       4.09362942       1.34088335       15       1.11446918       0.51824724      -2.16321141      -0.98730479      -0.39883895      -0.32550982
O        1.80144455       0.68245824       2.89646944       16      -0.63615890      -0.54634441       2.35784134       1.65410581       1.33063302       0.48625389
O        4.55715811       2.52828535       1.35072034       17       1.24300378       1.63541199      -1.02155927       1.36692344      -0.46954693       0.51544161
O       -2.03320186       0.14591501       7.41246274       18       0.50642132       1.97424603       2.13260968       0.65762245      -1.68047189      -2.06341709
O        1.13187413       1.47473563       8.94012049       19       0.31880683       0.80010924      -1.09635573      -0.55514071       3.18420242      -1.30610403
O        3.83080948       0.69252214       8.69383269       20       2.36634619       0.13508018      -0.06070024       1.12908068       0.51324807       0.95431574
O       -2.07855777       1.52517501       5.09103209       21       0.00704967      -1.19050510      -4.37337680      -1.72947098       1.22046368      -0.56456398
O        3.82905720       3.02988612       8.73957155       22      -4.49670283      -2.29376710       0.88620886       0.26596252       1.51090933      -2.22546468
O        1.05870185      -0.59609879       5.77673633       23       0.21000944       2.03363154       1.73579940      -2.12262222       1.13795837       1.17681914
O        2.02140391       3.33763991      10.71465904       24      -1.01041024      -0.02928825       0.68750593       0.14743815       0.26802320       1.68750889
O       -1.47930059       0.58849968      12.98867378       25      -1.52001754       3.00408272       1.71027463       2.11130590       2.67975803      -0.26039936
O        2.58860825       3.00439976      12.25173230       26       1.31106429      -0.72445046       0.52817794      -0.19293837      -0.91842515      -1.05326236
O        0.97564442       2.07475623       7.48726811       27       1.06620315       0.06008333      -1.13071499      -1.24262211      -0.69054190       0.64630169
O       -0.63212778       5.54378986      14.84355278       28      -3.48334803       0.05404597       1.56850248       1.46787576      -1.07905068       1.14844487
O        2.29074968      -0.27571960      10.80026384       29      -1.34795429      -0.32721297      -2.40329420      -1.33839305      -0.63263320       0.91017379
