40
Lattice="9.267998108611142 7.263994809653171e-10 1.714034760416178e-14 -3.089332703555235 8.737952413921914 -1.2581849325206302e-09 -3.0893327025279675 -4.368976206234541 7.567288768354713" Properties=species:S:1:pos:R:3:spacegroup_kinds:I:1:forces:R:3 spacegroup="P 1" unit_cell=conventional occupancy="_JSON {\"0\": {\"In\": 1}, \"1\": {\"In\": 1}, \"2\": {\"In\": 1}, \"3\": {\"In\": 1}, \"4\": {\"In\": 1}, \"5\": {\"In\": 1}, \"6\": {\"In\": 1}, \"7\": {\"In\": 1}, \"8\": {\"In\": 1}, \"9\": {\"In\": 1}, \"10\": {\"In\": 1}, \"11\": {\"In\": 1}, \"12\": {\"In\": 1}, \"13\": {\"In\": 1}, \"14\": {\"In\": 1}, \"15\": {\"In\": 1}, \"16\": {\"O\": 1}, \"17\": {\"O\": 1}, \"18\": {\"O\": 1}, \"19\": {\"O\": 1}, \"20\": {\"O\": 1}, \"21\": {\"O\": 1}, \"22\": {\"O\": 1}, \"23\": {\"O\": 1}, \"24\": {\"O\": 1}, \"25\": {\"O\": 1}, \"26\": {\"O\": 1}, \"27\": {\"O\": 1}, \"28\": {\"O\": 1}, \"29\": {\"O\": 1}, \"30\": {\"O\": 1}, \"31\": {\"O\": 1}, \"32\": {\"O\": 1}, \"33\": {\"O\": 1}, \"34\": {\"O\": 1}, \"35\": {\"O\": 1}, \"36\": {\"O\": 1}, \"37\": {\"O\": 1}, \"38\": {\"O\": 1}, \"39\": {\"O\": 1}}" n_minim_iter=1 energy=-45148.778620757425 stress="0.08272000061592784 -4.597976893352471e-14 -1.6657959190961235e-13 -4.597976893352471e-14 0.08272000061645111 -2.285883876016184e-13 -1.6657959190961235e-13 -2.285883876016184e-13 0.08272000061587242" free_energy=-45148.778620757425 pbc="T T T"
In      -4.40636972       3.11577391       5.95425444        0       0.03199835      -0.02262625       0.03918981
In       7.49570242       1.25320230       1.61303432        1      -0.03199835       0.02262625      -0.03918981
In       1.31703701      -0.93128580       5.39667871        2      -0.03199835       0.02262625      -0.03918981
In      -1.54466635      -2.18448810       3.78364438        3       0.00000000       0.00000000      -0.00000000
In      -1.31703701       4.20801796       3.50485651        4       0.03199835      -0.02262625      -0.03918981
In       4.86162839      -2.95481565       5.67546657        5       0.03199835       0.04525250      -0.00000000
In      -1.31703701       1.41416055       5.67546657        6       0.03199835       0.04525250       0.00000000
In      -1.77229569       7.32379186       1.89182219        7      -0.03199835      -0.04525250       0.00000000
In       4.40636971       0.16095825       4.06243225        8      -0.03199835       0.02262625       0.03918981
In      -1.54466635       4.36897621      -0.00000000        9       0.00000000       0.00000000      -0.00000000
In       4.40636971       6.71442256       0.27878786       10      -0.03199835       0.02262625       0.03918981
In      -1.31703701      -2.34544635       7.28850090       11       0.03199835      -0.02262625      -0.03918981
In       4.40636971       2.95481566       1.89182219       12      -0.03199835      -0.04525250      -0.00000000
In       1.77229569       5.30026201       2.17061006       13       0.03199835      -0.02262625       0.03918981
In       4.63399905       0.00000000      -0.00000000       14       0.00000000       0.00000000      -0.00000000
In       1.54466635       2.18448811       3.78364438       15       0.00000000       0.00000000      -0.00000000
O        0.96531225       4.37882619       4.10025284       16       0.02660940       0.01067754      -0.05831413
O       -2.12402045       3.54599814       5.50863201       17       0.02660940      -0.05584028       0.01991005
O       -0.44485377       2.35864799      -0.00210597       18      -0.03371005      -0.01318799      -0.05396589
O       -0.96531225      -0.81312809       2.04159609       19      -0.02660940      -0.04516275      -0.03840408
O        4.05120592       5.18088842       2.04370206       20      -0.06151652       0.01400553       0.01556181
O        2.12745948       3.00503441       1.72498763       21       0.06151652      -0.00647416       0.01991005
O        2.12745948       6.54483022       0.31871443       22       0.06151652       0.02047968      -0.00434824
O       -2.37203924       6.18666047       3.78153841       23       0.00119708       0.03617813      -0.05396589
O        3.53418647       2.01032822       7.56939473       24       0.03371005       0.01318799       0.05396589
O        5.46137194      -1.81768426       3.78575035       25      -0.00119708      -0.03617813       0.05396589
O        6.62351917       3.36198828       1.73994232       26       0.03371005      -0.05332982      -0.01556181
O        3.80662616       2.36606620       4.10235881       27       0.00119708      -0.06482490      -0.00434824
O        0.71729346       4.55420195       7.25068030       28       0.00119708       0.02864676       0.05831413
O        2.37203924      -0.18522574       0.31660846       29      -0.00119708      -0.02864676      -0.05831413
O       -3.53418647       1.00698793       5.82734644       30      -0.03371005       0.05332982       0.01556181
O        5.21335315       0.82297807       2.05865675       31      -0.02660940       0.05584028      -0.01991005
O        0.96187322       1.36394180       5.84230113       32      -0.06151652       0.00647416      -0.01991005
O        3.53418647      -1.00334028       5.82524047       33       0.03371005       0.04014183      -0.03840408
O        2.12402045      -0.00984997       3.46703592       34      -0.02660940      -0.01067754       0.05831413
O        0.96187322      -2.17585401       7.24857434       35      -0.06151652      -0.02047968       0.00434824
O       -0.71729346       2.00291001       3.46492995       36      -0.00119708       0.06482490       0.00434824
O       -0.96187322      -0.81191221       5.52358670       37       0.06151652      -0.01400553      -0.01556181
O       -0.44485377       5.37231649       1.74204829       38      -0.03371005      -0.04014183       0.03840408
O        4.05464495       5.18210430       5.52569267       39       0.02660940       0.04516275       0.03840408
40
Lattice="9.267998108611142 7.263994809653173e-10 1.7140347604161775e-14 -3.089332703555236 8.737952413921914 -1.2581849325206302e-09 -3.0893327025279684 -4.368976206234541 7.5672887683547145" Properties=species:S:1:pos:R:3:spacegroup_kinds:I:1:forces:R:3 spacegroup="P 1" unit_cell=conventional occupancy="_JSON {\"0\": {\"In\": 1}, \"1\": {\"In\": 1}, \"2\": {\"In\": 1}, \"3\": {\"In\": 1}, \"4\": {\"In\": 1}, \"5\": {\"In\": 1}, \"6\": {\"In\": 1}, \"7\": {\"In\": 1}, \"8\": {\"In\": 1}, \"9\": {\"In\": 1}, \"10\": {\"In\": 1}, \"11\": {\"In\": 1}, \"12\": {\"In\": 1}, \"13\": {\"In\": 1}, \"14\": {\"In\": 1}, \"15\": {\"In\": 1}, \"16\": {\"O\": 1}, \"17\": {\"O\": 1}, \"18\": {\"O\": 1}, \"19\": {\"O\": 1}, \"20\": {\"O\": 1}, \"21\": {\"O\": 1}, \"22\": {\"O\": 1}, \"23\": {\"O\": 1}, \"24\": {\"O\": 1}, \"25\": {\"O\": 1}, \"26\": {\"O\": 1}, \"27\": {\"O\": 1}, \"28\": {\"O\": 1}, \"29\": {\"O\": 1}, \"30\": {\"O\": 1}, \"31\": {\"O\": 1}, \"32\": {\"O\": 1}, \"33\": {\"O\": 1}, \"34\": {\"O\": 1}, \"35\": {\"O\": 1}, \"36\": {\"O\": 1}, \"37\": {\"O\": 1}, \"38\": {\"O\": 1}, \"39\": {\"O\": 1}}" n_minim_iter=2 energy=-45148.78562163776 stress="0.08196110518789539 1.070234080596715e-13 -3.070930722708235e-13 1.070234080596715e-13 0.0819611051872252 -1.293546218583301e-13 -3.070930722708235e-13 -1.293546218583301e-13 0.08196110518785729" free_energy=-45148.78562163776 pbc="T T T"
In      -4.40408412       3.11415775       5.95705371        0       0.01071898      -0.00757947       0.01312802
In       7.49341682       1.25481846       1.61023505        1      -0.01071898       0.00757947      -0.01312802
In       1.31475141      -0.92966964       5.39387943        2      -0.01071898       0.00757947      -0.01312802
In      -1.54466635      -2.18448810       3.78364438        3       0.00000000      -0.00000000      -0.00000000
In      -1.31475142       4.20640180       3.50205724        4       0.01071898      -0.00757947      -0.01312802
In       4.86391399      -2.95158333       5.67546657        5       0.01071898       0.01515893      -0.00000000
In      -1.31475142       1.41739288       5.67546657        6       0.01071898       0.01515893       0.00000000
In      -1.77458129       7.32055954       1.89182219        7      -0.01071898      -0.01515893       0.00000000
In       4.40408412       0.16257441       4.06523152        8      -0.01071898       0.00757947       0.01312802
In      -1.54466635       4.36897621      -0.00000000        9      -0.00000000       0.00000000       0.00000000
In       4.40408412       6.71603872       0.28158714       10      -0.01071898       0.00757947       0.01312802
In      -1.31475142      -2.34706251       7.28570163       11       0.01071898      -0.00757947      -0.01312802
In       4.40408412       2.95158334       1.89182219       12      -0.01071898      -0.01515893      -0.00000000
In       1.77458129       5.29864585       2.17340933       13       0.01071898      -0.00757947       0.01312802
In       4.63399905       0.00000000      -0.00000000       14       0.00000000       0.00000000      -0.00000000
In       1.54466635       2.18448811       3.78364438       15       0.00000000       0.00000000       0.00000000
O        0.96721292       4.37958887       4.09608755       16       0.02808280       0.00647499      -0.01825205
O       -2.12211978       3.54200955       5.51005416       17       0.02808280      -0.01904424       0.00351852
O       -0.44726163       2.35770599      -0.00596068       18      -0.00248946       0.00257362      -0.03392471
O       -0.96721293      -0.81635400       2.03885294       19      -0.02808280      -0.01256925      -0.01473353
O        4.04681188       5.18188882       2.04481362       20      -0.02731601      -0.00701719       0.01919118
O        2.13185352       3.00457197       1.72640978       21       0.02731601      -0.02012864       0.00351852
O        2.13185352       6.54629305       0.31840384       22       0.02731601       0.01311145       0.01567266
O       -2.37195374       6.18924462       3.77768371       23      -0.00325626       0.00148922      -0.03392471
O        3.53659433       2.01127022       7.57324944       24       0.00248946      -0.00257362       0.03392471
O        5.46128644      -1.82026841       3.78960506       25       0.00325626      -0.00148922       0.03392471
O        6.62592703       3.35817900       1.73883076       26       0.00248946      -0.02809285      -0.01919118
O        3.80671167       2.36143585       4.10204822       27      -0.00325626      -0.03012427       0.01567266
O        0.71737897       4.55624815       7.25484560       28      -0.00325626       0.02863505       0.01825205
O        2.37195373      -0.18727194       0.31244316       29       0.00325626      -0.02863505      -0.01825205
O       -3.53659433       1.01079721       5.82845800       30      -0.00248946       0.02809285       0.01919118
O        5.21145248       0.82696666       2.05723460       31      -0.02808280       0.01904424      -0.00351852
O        0.95747918       1.36440424       5.84087899       32      -0.02731601       0.02012864      -0.00351852
O        3.53659433      -1.00047301       5.82249733       33       0.00248946       0.03066647      -0.01473353
O        2.12211978      -0.01061265       3.47120121       34      -0.02808280      -0.00647499       0.01825205
O        0.95747918      -2.17731684       7.24888492       35      -0.02731601      -0.01311145      -0.01567266
O       -0.71737897       2.00754036       3.46524054       36       0.00325626       0.03012427      -0.01567266
O       -0.95747918      -0.81291260       5.52247515       37       0.02731601       0.00701719      -0.01919118
O       -0.44726163       5.36944922       1.74479144       38      -0.00248946      -0.03066647       0.01473353
O        4.05654563       5.18533021       5.52843582       39       0.02808280       0.01256925       0.01473353
40
Lattice="9.26799810861114 7.263994809653171e-10 1.7140347604161778e-14 -3.089332703555235 8.737952413921912 -1.25818493252063e-09 -3.0893327025279675 -4.3689762062345405 7.567288768354713" Properties=species:S:1:pos:R:3:spacegroup_kinds:I:1:forces:R:3 spacegroup="P 1" unit_cell=conventional occupancy="_JSON {\"0\": {\"In\": 1}, \"1\": {\"In\": 1}, \"2\": {\"In\": 1}, \"3\": {\"In\": 1}, \"4\": {\"In\": 1}, \"5\": {\"In\": 1}, \"6\": {\"In\": 1}, \"7\": {\"In\": 1}, \"8\": {\"In\": 1}, \"9\": {\"In\": 1}, \"10\": {\"In\": 1}, \"11\": {\"In\": 1}, \"12\": {\"In\": 1}, \"13\": {\"In\": 1}, \"14\": {\"In\": 1}, \"15\": {\"In\": 1}, \"16\": {\"O\": 1}, \"17\": {\"O\": 1}, \"18\": {\"O\": 1}, \"19\": {\"O\": 1}, \"20\": {\"O\": 1}, \"21\": {\"O\": 1}, \"22\": {\"O\": 1}, \"23\": {\"O\": 1}, \"24\": {\"O\": 1}, \"25\": {\"O\": 1}, \"26\": {\"O\": 1}, \"27\": {\"O\": 1}, \"28\": {\"O\": 1}, \"29\": {\"O\": 1}, \"30\": {\"O\": 1}, \"31\": {\"O\": 1}, \"32\": {\"O\": 1}, \"33\": {\"O\": 1}, \"34\": {\"O\": 1}, \"35\": {\"O\": 1}, \"36\": {\"O\": 1}, \"37\": {\"O\": 1}, \"38\": {\"O\": 1}, \"39\": {\"O\": 1}}" n_minim_iter=3 energy=-45148.78738533965 stress="0.08136013560823376 2.5378064974684323e-13 1.9828881220882518e-13 2.5378064974684323e-13 0.08136013560807527 5.2765123042898944e-14 1.9828881220882518e-13 5.2765123042898944e-14 0.08136013560915475" free_energy=-45148.78738533965 pbc="T T T"
In      -4.40244065       3.11299564       5.95906654        0      -0.00454879       0.00321648      -0.00557111
In       7.49177335       1.25598057       1.60822222        1       0.00454879      -0.00321648       0.00557111
In       1.31310794      -0.92850753       5.39186660        2       0.00454879      -0.00321648       0.00557111
In      -1.54466635      -2.18448810       3.78364438        3       0.00000000       0.00000000      -0.00000000
In      -1.31310795       4.20523969       3.50004441        4      -0.00454879       0.00321648       0.00557111
In       4.86555746      -2.94925911       5.67546657        5      -0.00454879      -0.00643296       0.00000000
In      -1.31310795       1.41971709       5.67546657        6      -0.00454879      -0.00643296       0.00000000
In      -1.77622476       7.31823532       1.89182219        7       0.00454879       0.00643296       0.00000000
In       4.40244065       0.16373652       4.06724435        8       0.00454879      -0.00321648      -0.00557111
In      -1.54466635       4.36897621      -0.00000000        9      -0.00000000      -0.00000000       0.00000000
In       4.40244065       6.71720083       0.28359997       10       0.00454879      -0.00321648      -0.00557111
In      -1.31310795      -2.34822462       7.28368879       11      -0.00454879       0.00321648       0.00557111
In       4.40244065       2.94925912       1.89182219       12       0.00454879       0.00643296       0.00000000
In       1.77622476       5.29748374       2.17542216       13      -0.00454879       0.00321648      -0.00557111
In       4.63399905       0.00000000      -0.00000000       14       0.00000000      -0.00000000      -0.00000000
In       1.54466635       2.18448811       3.78364438       15       0.00000000      -0.00000000       0.00000000
O        0.96904848       4.38020817       4.09312383       16       0.02780691       0.00221714       0.01039592
O       -2.12028422       3.53913325       5.51099969       17       0.02780691       0.00789456      -0.00711806
O       -0.44877770       2.35719965      -0.00912004       18       0.01880238       0.01426173      -0.01814632
O       -0.96904849      -0.81861100       2.03683476       19      -0.02780691       0.01011170       0.00327786
O        4.04348823       5.18232176       2.04595479       20      -0.00182591      -0.02058849       0.02142418
O        2.13517717       3.00380016       1.72735530       21       0.00182591      -0.02884813      -0.00711806
O        2.13517717       6.54749781       0.31859949       22       0.00182591       0.00825964       0.02854224
O       -2.37198171       6.19084277       3.77452434       23      -0.00717863      -0.02248096      -0.01814632
O        3.53811040       2.01177656       7.57640880       24      -0.01880238      -0.01426173       0.01814632
O        5.46131441      -1.82186655       3.79276442       25       0.00717863       0.02248096       0.01814632
O        6.62744310       3.35518975       1.73768958       26      -0.01880238      -0.00858431      -0.02142418
O        3.80668370       2.35790070       4.10224387       27      -0.00717863      -0.00447469       0.02854224
O        0.71735099       4.55818517       7.25780931       28      -0.00717863       0.02695566      -0.01039592
O        2.37198171      -0.18920896       0.30947945       29       0.00717863      -0.02695566       0.01039592
O       -3.53811040       1.01378646       5.82959918       30       0.01880238       0.00858431       0.02142418
O        5.20961692       0.82984296       2.05628908       31      -0.02780691      -0.00789456       0.00711806
O        0.95415553       1.36517606       5.83993346       32      -0.00182591       0.02884813       0.00711806
O        3.53811040      -0.99799009       5.82047914       33      -0.01880238       0.02284604       0.00327786
O        2.12028422      -0.01123195       3.47416493       34      -0.02780691      -0.00221714      -0.01039592
O        0.95415553      -2.17852160       7.24868928       35      -0.00182591      -0.00825964      -0.02854224
O       -0.71735100       2.01107552       3.46504489       36       0.00717863       0.00447469      -0.02854224
O       -0.95415553      -0.81334555       5.52133397       37       0.00182591       0.02058849      -0.02142418
O       -0.44877770       5.36696630       1.74680962       38       0.01880238      -0.02284604      -0.00327786
O        4.05838119       5.18758721       5.53045401       39       0.02780691      -0.01011170      -0.00327786
40
Lattice="9.267998108611136 7.263994809653168e-10 1.714034760416181e-14 -3.0893327035552343 8.737952413921906 -1.2581849325206296e-09 -3.0893327025279667 -4.368976206234538 7.56728876835471" Properties=species:S:1:pos:R:3:spacegroup_kinds:I:1:forces:R:3 spacegroup="P 1" unit_cell=conventional occupancy="_JSON {\"0\": {\"In\": 1}, \"1\": {\"In\": 1}, \"2\": {\"In\": 1}, \"3\": {\"In\": 1}, \"4\": {\"In\": 1}, \"5\": {\"In\": 1}, \"6\": {\"In\": 1}, \"7\": {\"In\": 1}, \"8\": {\"In\": 1}, \"9\": {\"In\": 1}, \"10\": {\"In\": 1}, \"11\": {\"In\": 1}, \"12\": {\"In\": 1}, \"13\": {\"In\": 1}, \"14\": {\"In\": 1}, \"15\": {\"In\": 1}, \"16\": {\"O\": 1}, \"17\": {\"O\": 1}, \"18\": {\"O\": 1}, \"19\": {\"O\": 1}, \"20\": {\"O\": 1}, \"21\": {\"O\": 1}, \"22\": {\"O\": 1}, \"23\": {\"O\": 1}, \"24\": {\"O\": 1}, \"25\": {\"O\": 1}, \"26\": {\"O\": 1}, \"27\": {\"O\": 1}, \"28\": {\"O\": 1}, \"29\": {\"O\": 1}, \"30\": {\"O\": 1}, \"31\": {\"O\": 1}, \"32\": {\"O\": 1}, \"33\": {\"O\": 1}, \"34\": {\"O\": 1}, \"35\": {\"O\": 1}, \"36\": {\"O\": 1}, \"37\": {\"O\": 1}, \"38\": {\"O\": 1}, \"39\": {\"O\": 1}}" n_minim_iter=4 energy=-45148.78932104223 stress="0.08049852234396929 -1.5167723031923604e-14 -1.1352170621811127e-13 -1.5167723031923604e-14 0.08049852234351992 4.3619673530553006e-13 -1.1352170621811127e-13 4.3619673530553006e-13 0.08049852234416552" free_energy=-45148.78932104223 pbc="T T T"
In      -4.40089856       3.11190522       5.96095521        0      -0.01608809       0.01137599      -0.01970380
In       7.49023126       1.25707099       1.60633355        1       0.01608809      -0.01137599       0.01970380
In       1.31156585      -0.92741711       5.38997794        2       0.01608809      -0.01137599       0.01970380
In      -1.54466635      -2.18448810       3.78364438        3       0.00000000       0.00000000      -0.00000000
In      -1.31156586       4.20414927       3.49815574        4      -0.01608809       0.01137599       0.01970380
In       4.86709955      -2.94707827       5.67546657        5      -0.01608809      -0.02275199       0.00000000
In      -1.31156586       1.42189794       5.67546657        6      -0.01608809      -0.02275199       0.00000000
In      -1.77776685       7.31605448       1.89182219        7       0.01608809       0.02275199      -0.00000000
In       4.40089856       0.16482694       4.06913302        8       0.01608809      -0.01137599      -0.01970380
In      -1.54466635       4.36897621      -0.00000000        9      -0.00000000       0.00000000       0.00000000
In       4.40089856       6.71829125       0.28548863       10       0.01608809      -0.01137599      -0.01970380
In      -1.31156586      -2.34931504       7.28180013       11      -0.01608809       0.01137599       0.01970380
In       4.40089856       2.94707828       1.89182219       12       0.01608809       0.02275199       0.00000000
In       1.77776684       5.29639332       2.17731082       13      -0.01608809       0.01137599      -0.01970380
In       4.63399905       0.00000000      -0.00000000       14       0.00000000      -0.00000000      -0.00000000
In       1.54466635       2.18448811       3.78364438       15       0.00000000      -0.00000000      -0.00000000
O        0.97606366       4.38141600       4.09069584       16       0.01729649      -0.00628324       0.03240548
O       -2.11326904       3.53642663       5.51116767       17       0.01729649       0.03120559      -0.01076130
O       -0.44785237       2.35879921      -0.01641058       18       0.02926252       0.02274433       0.00389403
O       -0.97606367      -0.82010979       2.03457474       19      -0.01729649       0.02492235       0.02164419
O        4.03859801       5.17961135       2.05098532       20       0.02365542      -0.02267413       0.01775015
O        2.14006740       2.99808839       1.72752328       21      -0.02365542      -0.02670915      -0.01076130
O        2.14006739       6.55049917       0.32346203       22      -0.02365542       0.00403502       0.02851145
O       -2.37318134       6.18943718       3.76723380       23      -0.01168939      -0.03517041       0.00389403
O        3.53718507       2.01017701       7.58369934       24      -0.02926252      -0.02274433      -0.00389403
O        5.46251404      -1.82046096       3.80005496       25       0.01168939       0.03517041      -0.00389403
O        6.62651778       3.34967573       1.73265906       26      -0.02926252       0.01474450      -0.01775015
O        3.80548406       2.35228970       4.10710642       27      -0.01168939       0.02095753       0.02851145
O        0.71615136       4.56520175       7.26023730       28      -0.01168939       0.01421287      -0.03240548
O        2.37318134      -0.19622554       0.30705146       29       0.01168939      -0.01421287       0.03240548
O       -3.53718508       1.01930048       5.83462970       30       0.02926252      -0.01474450       0.01775015
O        5.20260174       0.83254959       2.05612110       31      -0.01729649      -0.03120559       0.01076130
O        0.94926530       1.37088782       5.83976548       32       0.02365542       0.02670915       0.01076130
O        3.53718507      -0.99087652       5.81821913       33      -0.02926252       0.00799984       0.02164419
O        2.11326904      -0.01243979       3.47659292       34      -0.01729649       0.00628324      -0.03240548
O        0.94926530      -2.18152296       7.24382673       35       0.02365542      -0.00403502      -0.02851145
O       -0.71615136       2.01668651       3.46018235       36       0.01168939      -0.02095753      -0.02851145
O       -0.94926531      -0.81063514       5.51630344       37      -0.02365542       0.02267413      -0.01775015
O       -0.44785237       5.35985273       1.74906964       38       0.02926252      -0.00799984      -0.02164419
O        4.06539636       5.18908600       5.53271402       39       0.01729649      -0.02492235      -0.02164419
40
Lattice="9.267998108611128 7.26399480965316e-10 1.7140347604161794e-14 -3.0893327035552316 8.737952413921896 -1.2581849325206285e-09 -3.089332702527964 -4.3689762062345325 7.567288768354704" Properties=species:S:1:pos:R:3:spacegroup_kinds:I:1:forces:R:3 spacegroup="P 1" unit_cell=conventional occupancy="_JSON {\"0\": {\"In\": 1}, \"1\": {\"In\": 1}, \"2\": {\"In\": 1}, \"3\": {\"In\": 1}, \"4\": {\"In\": 1}, \"5\": {\"In\": 1}, \"6\": {\"In\": 1}, \"7\": {\"In\": 1}, \"8\": {\"In\": 1}, \"9\": {\"In\": 1}, \"10\": {\"In\": 1}, \"11\": {\"In\": 1}, \"12\": {\"In\": 1}, \"13\": {\"In\": 1}, \"14\": {\"In\": 1}, \"15\": {\"In\": 1}, \"16\": {\"O\": 1}, \"17\": {\"O\": 1}, \"18\": {\"O\": 1}, \"19\": {\"O\": 1}, \"20\": {\"O\": 1}, \"21\": {\"O\": 1}, \"22\": {\"O\": 1}, \"23\": {\"O\": 1}, \"24\": {\"O\": 1}, \"25\": {\"O\": 1}, \"26\": {\"O\": 1}, \"27\": {\"O\": 1}, \"28\": {\"O\": 1}, \"29\": {\"O\": 1}, \"30\": {\"O\": 1}, \"31\": {\"O\": 1}, \"32\": {\"O\": 1}, \"33\": {\"O\": 1}, \"34\": {\"O\": 1}, \"35\": {\"O\": 1}, \"36\": {\"O\": 1}, \"37\": {\"O\": 1}, \"38\": {\"O\": 1}, \"39\": {\"O\": 1}}" n_minim_iter=5 energy=-45148.79243580456 stress="0.08059195418912772 -1.2166588844991241e-15 -3.1549296890763925e-13 -1.2166588844991241e-15 0.08059195418904244 4.2501450651696386e-13 -3.1549296890763925e-13 4.2501450651696386e-13 0.08059195418891195" free_energy=-45148.79243580456 pbc="T T T"
In      -4.40223084       3.11284728       5.95932350        0       0.00263177      -0.00186094       0.00322325
In       7.49156354       1.25612893       1.60796526        1      -0.00263177       0.00186094      -0.00322325
In       1.31289814      -0.92835917       5.39160964        2      -0.00263177       0.00186094      -0.00322325
In      -1.54466635      -2.18448810       3.78364438        3       0.00000000      -0.00000000       0.00000000
In      -1.31289814       4.20509133       3.49978745        4       0.00263177      -0.00186094      -0.00322325
In       4.86576727      -2.94896240       5.67546657        5       0.00263177       0.00372189      -0.00000000
In      -1.31289814       1.42001381       5.67546657        6       0.00263177       0.00372189       0.00000000
In      -1.77643457       7.31793861       1.89182219        7      -0.00263177      -0.00372189      -0.00000000
In       4.40223084       0.16388488       4.06750131        8      -0.00263177       0.00186094       0.00322325
In      -1.54466635       4.36897621      -0.00000000        9       0.00000000       0.00000000       0.00000000
In       4.40223084       6.71734919       0.28385693       10      -0.00263177       0.00186094       0.00322325
In      -1.31289814      -2.34837298       7.28343183       11       0.00263177      -0.00186094      -0.00322325
In       4.40223084       2.94896241       1.89182219       12      -0.00263177      -0.00372189       0.00000000
In       1.77643456       5.29733538       2.17567912       13       0.00263177      -0.00186094       0.00322325
In       4.63399905       0.00000000      -0.00000000       14       0.00000000       0.00000000      -0.00000000
In       1.54466635       2.18448811       3.78364438       15      -0.00000000       0.00000000       0.00000000
O        0.98374718       4.38184685       4.09375016       16       0.00142046      -0.00639671      -0.00179541
O       -2.10558552       3.53885632       5.50926738       17       0.00142046       0.00164348       0.00643742
O       -0.44259426       2.36294392      -0.02128137       18      -0.00400790       0.00548191      -0.00021094
O       -0.98374719      -0.81724925       2.03572878       19      -0.00142046      -0.00475323       0.00464201
O        4.03832757       5.17393866       2.05701014       20       0.00107600       0.00463144       0.00485295
O        2.14033783       2.99003440       1.72562300       21      -0.00107600      -0.00188705       0.00643742
O        2.14033783       6.55288047       0.33138713       22      -0.00107600       0.00651850      -0.00158448
O       -2.37533631       6.18309821       3.76236302       23      -0.00650437       0.00195138      -0.00021094
O        3.53192696       2.00603229       7.58857013       24       0.00400790      -0.00548191       0.00021094
O        5.46466901      -1.81412199       3.80492574       25       0.00650437      -0.00195138       0.00021094
O        6.62125966       3.34752986       1.72663424       26       0.00400790       0.00255828      -0.00485295
O        3.80332910       2.35124096       4.11503152       27      -0.00650437      -0.00115837      -0.00158448
O        0.71399639       4.57258946       7.25718299       28      -0.00650437      -0.00079301       0.00179541
O        2.37533631      -0.20361325       0.31010577       29       0.00650437       0.00079301      -0.00179541
O       -3.53192696       1.02144635       5.84065452       30      -0.00400790      -0.00255828       0.00485295
O        5.19491822       0.83011989       2.05802138       31      -0.00142046      -0.00164348      -0.00643742
O        0.94899486       1.37894181       5.84166576       32       0.00107600       0.00188705      -0.00643742
O        3.53192696      -0.98458594       5.81937316       33       0.00400790       0.00292364       0.00464201
O        2.10558552      -0.01287064       3.47353861       34      -0.00142046       0.00639671       0.00179541
O        0.94899487      -2.18390426       7.23590163       35       0.00107600      -0.00651850       0.00158448
O       -0.71399640       2.01773525       3.45225724       36       0.00650437       0.00115837       0.00158448
O       -0.94899487      -0.80496245       5.51027862       37      -0.00107600      -0.00463144      -0.00485295
O       -0.44259426       5.35356215       1.74791560       38      -0.00400790      -0.00292364      -0.00464201
O        4.07307989       5.18622546       5.53155999       39       0.00142046       0.00475323      -0.00464201
