40
Lattice="8.984826961664847 7.042079530632863e-10 -3.403563944268895e-15 -2.9949423212188826 8.470976096273171 -1.2197243945000095e-09 -2.994942320222981 -4.235488047432377 7.336080495036466" Properties=species:S:1:pos:R:3:spacegroup_kinds:I:1:forces:R:3 spacegroup="P 1" unit_cell=conventional occupancy="_JSON {\"0\": {\"In\": 1}, \"1\": {\"In\": 1}, \"2\": {\"In\": 1}, \"3\": {\"In\": 1}, \"4\": {\"In\": 1}, \"5\": {\"In\": 1}, \"6\": {\"In\": 1}, \"7\": {\"In\": 1}, \"8\": {\"In\": 1}, \"9\": {\"In\": 1}, \"10\": {\"In\": 1}, \"11\": {\"In\": 1}, \"12\": {\"In\": 1}, \"13\": {\"In\": 1}, \"14\": {\"In\": 1}, \"15\": {\"In\": 1}, \"16\": {\"O\": 1}, \"17\": {\"O\": 1}, \"18\": {\"O\": 1}, \"19\": {\"O\": 1}, \"20\": {\"O\": 1}, \"21\": {\"O\": 1}, \"22\": {\"O\": 1}, \"23\": {\"O\": 1}, \"24\": {\"O\": 1}, \"25\": {\"O\": 1}, \"26\": {\"O\": 1}, \"27\": {\"O\": 1}, \"28\": {\"O\": 1}, \"29\": {\"O\": 1}, \"30\": {\"O\": 1}, \"31\": {\"O\": 1}, \"32\": {\"O\": 1}, \"33\": {\"O\": 1}, \"34\": {\"O\": 1}, \"35\": {\"O\": 1}, \"36\": {\"O\": 1}, \"37\": {\"O\": 1}, \"38\": {\"O\": 1}, \"39\": {\"O\": 1}}" n_minim_iter=7 energy=-45151.766681922316 stress="0.020917476466758143 -1.1351953886603504e-14 -1.310216028174937e-13 -1.1351953886603504e-14 0.02091747646634084 -2.321343435067844e-13 -1.310216028174937e-13 -2.321343435067844e-13 0.02091747646653724" free_energy=-45151.766681922316 pbc="T T T"
In      -4.28845203       3.03239351       5.75186111        0       0.00451890      -0.00319535       0.00553450
In       7.28339435       1.20309454       1.58421938        1      -0.00451890       0.00319535      -0.00553450
In       1.29350971      -0.91464948       5.25225963        2      -0.00451890       0.00319535      -0.00553450
In      -1.49747116      -2.11774402       3.66804025        3       0.00000000      -0.00000000       0.00000000
In      -1.29350971       4.09126552       3.41823950        4       0.00451890      -0.00319535      -0.00553450
In       4.69637493      -2.88817098       5.50206037        5       0.00451890       0.00639069       0.00000000
In      -1.29350971       1.34731707       5.50206037        6       0.00451890       0.00639069      -0.00000000
In      -1.70143261       7.12365903       1.83402012        7      -0.00451890      -0.00639069       0.00000000
In       4.28845203       0.14422253       3.91784099        8      -0.00451890       0.00319535       0.00553450
In      -1.49747116       4.23548805      -0.00000000        9      -0.00000000      -0.00000000       0.00000000
In       4.28845203       6.49745460       0.24980074       10      -0.00451890       0.00319535       0.00553450
In      -1.29350971      -2.26196655       7.08627975       11       0.00451890      -0.00319535      -0.00553450
In       4.28845203       2.88817099       1.83402012       12      -0.00451890      -0.00639069      -0.00000000
In       1.70143261       5.15013754       2.08382086       13       0.00451890      -0.00319535       0.00553450
In       4.49241348       0.00000000      -0.00000000       14       0.00000000       0.00000000       0.00000000
In       1.49747116       2.11774403       3.66804024       15       0.00000000      -0.00000000      -0.00000000
O        0.89076870       4.23772043       3.98616258       16       0.00091048       0.00581789       0.00485906
O       -2.10417362       3.45100187       5.34106591       17       0.00091048       0.00129913      -0.00746797
O       -0.44059306       2.27467278       0.04244717       18       0.00701348      -0.00301634       0.00000665
O       -0.89076870      -0.78225380       1.99114800       19      -0.00091048       0.00711701      -0.00260891
O        3.95502697       5.04224874       1.94870082       20       0.00092134      -0.00711318      -0.00261555
O        2.03485767       2.95124398       1.67302566       21      -0.00092134      -0.00129145      -0.00746797
O        2.03485767       6.32649281       0.27567515       22      -0.00092134      -0.00582172       0.00485242
O       -2.29144641       6.01040293       3.71048742       23       0.00518166      -0.00560693       0.00000665
O        3.43553537       1.96081528       7.29363331       24      -0.00701348       0.00301634      -0.00000665
O        5.28638873      -1.77491488       3.62559307       25      -0.00518166       0.00560693      -0.00000665
O        6.43047769       3.29184075       1.71933942       26      -0.00701348      -0.00150242       0.00261555
O        3.69843823       2.32591893       3.94371540       27       0.00518166       0.00280922       0.00485242
O        0.70349591       4.37014229       7.01795816       28       0.00518166       0.00279771      -0.00485906
O        2.29144641      -0.13465424       0.31812233       29      -0.00518166      -0.00279771       0.00485906
O       -3.43553538       0.94364730       5.61674107       30       0.00701348       0.00150242      -0.00261555
O        5.09911594       0.78448618       1.99501458       31      -0.00091048      -0.00129913       0.00746797
O        0.96008465       1.28424407       5.66305483       32       0.00092134       0.00129145       0.00746797
O        3.43553537      -1.01716797       5.65918824       33      -0.00701348      -0.00151393      -0.00260891
O        2.10417362      -0.00223237       3.34991791       34      -0.00091048      -0.00581789      -0.00485906
O        0.96008465      -2.09100476       7.06040533       35       0.00092134       0.00582172      -0.00485242
O       -0.70349591       1.90956912       3.39236509       36      -0.00518166      -0.00280922      -0.00485242
O       -0.96008465      -0.80676069       5.38737967       37      -0.00092134       0.00711318       0.00261555
O       -0.44059306       5.25265602       1.67689225       38       0.00701348       0.00151393       0.00260891
O        3.88571102       5.01774185       5.34493249       39       0.00091048      -0.00711701       0.00260891
