40
Lattice="8.185320011718781 6.41543874981032e-10 2.3319931619266102e-14 -2.7284400045111132 7.71719371507722 -1.1112017643949368e-09 -2.7284400036038536 -3.8585968568970603 6.683285803923269" Properties=species:S:1:pos:R:3:spacegroup_kinds:I:1:forces:R:3 spacegroup="P 1" unit_cell=conventional occupancy="_JSON {\"0\": {\"In\": 1}, \"1\": {\"In\": 1}, \"2\": {\"In\": 1}, \"3\": {\"In\": 1}, \"4\": {\"In\": 1}, \"5\": {\"In\": 1}, \"6\": {\"In\": 1}, \"7\": {\"In\": 1}, \"8\": {\"In\": 1}, \"9\": {\"In\": 1}, \"10\": {\"In\": 1}, \"11\": {\"In\": 1}, \"12\": {\"In\": 1}, \"13\": {\"In\": 1}, \"14\": {\"In\": 1}, \"15\": {\"In\": 1}, \"16\": {\"O\": 1}, \"17\": {\"O\": 1}, \"18\": {\"O\": 1}, \"19\": {\"O\": 1}, \"20\": {\"O\": 1}, \"21\": {\"O\": 1}, \"22\": {\"O\": 1}, \"23\": {\"O\": 1}, \"24\": {\"O\": 1}, \"25\": {\"O\": 1}, \"26\": {\"O\": 1}, \"27\": {\"O\": 1}, \"28\": {\"O\": 1}, \"29\": {\"O\": 1}, \"30\": {\"O\": 1}, \"31\": {\"O\": 1}, \"32\": {\"O\": 1}, \"33\": {\"O\": 1}, \"34\": {\"O\": 1}, \"35\": {\"O\": 1}, \"36\": {\"O\": 1}, \"37\": {\"O\": 1}, \"38\": {\"O\": 1}, \"39\": {\"O\": 1}}" n_minim_iter=1 energy=-45132.197782443196 stress="-0.4145218170368691 -1.3921502109378437e-13 -2.938947983947927e-13 -1.3921502109378437e-13 -0.41452181703681074 5.343257290872036e-15 -2.938947983947927e-13 5.343257290872036e-15 -0.414521817035905" free_energy=-45132.197782443196 pbc="T T T"
In      -3.89497249       2.75416146       5.25458113        0      -0.02265749       0.01602127      -0.02774965
In       6.62341249       1.10443540       1.42870467        1       0.02265749      -0.01602127       0.02774965
In       1.16653248      -0.82486303       4.77034757        2       0.02265749      -0.01602127       0.02774965
In      -1.36422000      -1.92929843       3.34164290        3       0.00000000       0.00000000      -0.00000000
In      -1.16653248       3.71881067       3.09952612        4      -0.02265749       0.01602127       0.02774965
In       4.29034753      -2.61437527       5.01246435        5      -0.02265749      -0.03204253      -0.00000000
In      -1.16653248       1.24422159       5.01246435        6      -0.02265749      -0.03204253       0.00000000
In      -1.56190753       6.47297213       1.67082145        7       0.02265749       0.03204253      -0.00000000
In       3.89497248       0.13978619       3.58375968        8       0.02265749      -0.01602127      -0.02774965
In      -1.36422000       3.85859686      -0.00000000        9      -0.00000000       0.00000000      -0.00000000
In       3.89497248       5.92768148       0.24211678       10       0.02265749      -0.01602127      -0.02774965
In      -1.16653248      -2.06908461       6.44116902       11      -0.02265749       0.01602127       0.02774965
In       3.89497248       2.61437527       1.67082145       12       0.02265749       0.03204253       0.00000000
In       1.56190752       4.68345989       1.91293823       13      -0.02265749       0.01602127      -0.02774965
In       4.09266000       0.00000000      -0.00000000       14      -0.00000000      -0.00000000       0.00000000
In       1.36422000       1.92929843       3.34164290       15      -0.00000000       0.00000000      -0.00000000
O        0.77447411       3.84824874       3.68749469       16      -0.01823873       0.03267927       0.12961031
O       -1.95396589       3.19863814       4.84850019       17      -0.01823874       0.09590619      -0.09310623
O       -0.37381331       2.08130154       0.10049815       18       0.11515195       0.00158473       0.07026333
O       -0.77447412      -0.67030684       1.85270908       19       0.01823873       0.12858545       0.03650408
O        3.66702692       4.58692633       1.75221092       20       0.09650080      -0.08801890      -0.03375925
O        1.78985308       2.70530242       1.50685729       21      -0.09650080      -0.01477308      -0.09310623
O        1.78985308       5.74022077       0.24535363       22      -0.09650080      -0.07324582       0.05934698
O       -2.08687434       5.44656268       3.44214105       23       0.03688989      -0.10909454       0.07026333
O        3.10225331       1.77729532       6.58278765       24      -0.11515195      -0.00158473      -0.07026333
O        4.81531435      -1.58796582       3.24114474       25      -0.03688989       0.10909454      -0.07026333
O        5.83069332       3.05698315       1.58943197       26      -0.11515195       0.06164219       0.03375925
O        3.37000566       2.18699869       3.58699653       27       0.03688989       0.11539710       0.05934698
O        0.64156566       3.94222921       6.33743401       28       0.03688989      -0.00630255      -0.12961031
O        2.08687434      -0.08363235       0.34585179       29      -0.03688989       0.00630255       0.12961031
O       -3.10225331       0.80161371       5.09385382       30       0.11515195      -0.06164219      -0.03375925
O        4.68240589       0.65995872       1.83478561       31       0.01823874      -0.09590619       0.09310623
O        0.93858692       1.15329444       5.17642851       32       0.09650080       0.01477308       0.09310623
O        3.10225331      -0.97568161       5.19435198       33      -0.11515195      -0.06005746       0.03650408
O        1.95396589       0.01034812       2.99579111       34       0.01823873      -0.03267927      -0.12961031
O        0.93858692      -1.88162391       6.43793217       35       0.09650080       0.07324582      -0.05934698
O       -0.64156566       1.67159817       3.09628926       36      -0.03688989      -0.11539710      -0.05934698
O       -0.93858692      -0.72832947       4.93107488       37      -0.09650080       0.08801890       0.03375925
O       -0.37381331       4.83427848       1.48893382       38       0.11515195       0.06005746      -0.03650408
O        3.50291412       4.52890370       4.83057672       39      -0.01823873      -0.12858545      -0.03650408
40
Lattice="8.18532001171878 6.415438749810319e-10 2.3319931619266105e-14 -2.728440004511113 7.7171937150772205 -1.1112017643949366e-09 -2.728440003603853 -3.858596856897061 6.68328580392327" Properties=species:S:1:pos:R:3:spacegroup_kinds:I:1:forces:R:3 spacegroup="P 1" unit_cell=conventional occupancy="_JSON {\"0\": {\"In\": 1}, \"1\": {\"In\": 1}, \"2\": {\"In\": 1}, \"3\": {\"In\": 1}, \"4\": {\"In\": 1}, \"5\": {\"In\": 1}, \"6\": {\"In\": 1}, \"7\": {\"In\": 1}, \"8\": {\"In\": 1}, \"9\": {\"In\": 1}, \"10\": {\"In\": 1}, \"11\": {\"In\": 1}, \"12\": {\"In\": 1}, \"13\": {\"In\": 1}, \"14\": {\"In\": 1}, \"15\": {\"In\": 1}, \"16\": {\"O\": 1}, \"17\": {\"O\": 1}, \"18\": {\"O\": 1}, \"19\": {\"O\": 1}, \"20\": {\"O\": 1}, \"21\": {\"O\": 1}, \"22\": {\"O\": 1}, \"23\": {\"O\": 1}, \"24\": {\"O\": 1}, \"25\": {\"O\": 1}, \"26\": {\"O\": 1}, \"27\": {\"O\": 1}, \"28\": {\"O\": 1}, \"29\": {\"O\": 1}, \"30\": {\"O\": 1}, \"31\": {\"O\": 1}, \"32\": {\"O\": 1}, \"33\": {\"O\": 1}, \"34\": {\"O\": 1}, \"35\": {\"O\": 1}, \"36\": {\"O\": 1}, \"37\": {\"O\": 1}, \"38\": {\"O\": 1}, \"39\": {\"O\": 1}}" n_minim_iter=2 energy=-45132.20231373439 stress="-0.41397188617210035 2.8103461056087307e-13 -6.384361441180567e-13 2.8103461056087307e-13 -0.413971886171907 -3.3411794409158977e-13 -6.384361441180567e-13 -3.3411794409158977e-13 -0.4139718861726697" free_energy=-45132.20231373439 pbc="T T T"
In      -3.89529616       2.75439033       5.25418470        0       0.02549436      -0.01802723       0.03122408
In       6.62373617       1.10420653       1.42910109        1      -0.02549436       0.01802723      -0.03122408
In       1.16685616      -0.82509190       4.77074400        2      -0.02549436       0.01802723      -0.03122408
In      -1.36422000      -1.92929843       3.34164290        3       0.00000000      -0.00000000       0.00000000
In      -1.16685616       3.71903955       3.09992254        4       0.02549436      -0.01802723      -0.03122408
In       4.29002385      -2.61483302       5.01246435        5       0.02549436       0.03605447      -0.00000000
In      -1.16685616       1.24376384       5.01246435        6       0.02549436       0.03605447      -0.00000000
In      -1.56158385       6.47342988       1.67082145        7      -0.02549436      -0.03605447      -0.00000000
In       3.89529616       0.13955731       3.58336325        8      -0.02549436       0.01802723       0.03122408
In      -1.36422000       3.85859686      -0.00000000        9       0.00000000      -0.00000000      -0.00000000
In       3.89529616       5.92745260       0.24172035       10      -0.02549436       0.01802723       0.03122408
In      -1.16685616      -2.06885574       6.44156545       11       0.02549436      -0.01802723      -0.03122408
In       3.89529616       2.61483302       1.67082145       12      -0.02549436      -0.03605447       0.00000000
In       1.56158384       4.68368876       1.91254180       13       0.02549436      -0.01802723       0.03122408
In       4.09266000       0.00000000      -0.00000000       14       0.00000000       0.00000000       0.00000000
In       1.36422000       1.92929843       3.34164290       15       0.00000000      -0.00000000      -0.00000000
O        0.77421356       3.84871559       3.68934627       16      -0.03243696      -0.00765928       0.06158558
O       -1.95422644       3.20000823       4.84717010       17      -0.03243696       0.05716432      -0.02415966
O       -0.37216828       2.08132418       0.10150192       18       0.03586148       0.00887003       0.05948850
O       -0.77421356      -0.66846990       1.85323057       19       0.03243696       0.04950504       0.03742592
O        3.66840550       4.58566892       1.75172865       20       0.06470736      -0.01515934      -0.02206258
O        1.78847450       2.70509138       1.50552720       21      -0.06470736       0.01152708      -0.02415966
O        1.78847450       5.73917440       0.24620145       22      -0.06470736      -0.02668642       0.00209708
O       -2.08634735       5.44500418       3.44314482       23       0.00359108      -0.03676721       0.05948850
O        3.10060828       1.77727269       6.58178388       24      -0.03586148      -0.00887003      -0.05948850
O        4.81478735      -1.58640732       3.24014098       25      -0.00359108       0.03676721      -0.05948850
O        5.82904829       3.05786376       1.58991425       26      -0.03586148       0.05595357       0.02206258
O        3.37053266       2.18864722       3.58784435       27       0.00359108       0.06990216       0.00209708
O        0.64209266       3.94213917       6.33558243       28       0.00359108      -0.03313495      -0.06158558
O        2.08634734      -0.08354231       0.34770336       29      -0.00359108       0.03313495       0.06158558
O       -3.10060829       0.80073310       5.09337155       30       0.03586148      -0.05595357      -0.02206258
O        4.68266644       0.65858863       1.83611570       31       0.03243696      -0.05716432       0.02415966
O        0.93996550       1.15350548       5.17775860       32       0.06470736      -0.01152708       0.02415966
O        3.10060828      -0.97653958       5.19487347       33      -0.03586148      -0.04708354       0.03742592
O        1.95422644       0.00988128       2.99393953       34       0.03243696       0.00765928      -0.06158558
O        0.93996550      -1.88057754       6.43708435       35       0.06470736       0.02668642      -0.00209708
O       -0.64209266       1.66994964       3.09544145       36      -0.00359108      -0.06990216      -0.00209708
O       -0.93996550      -0.72707206       4.93155715       37      -0.06470736       0.01515934       0.02206258
O       -0.37216828       4.83513644       1.48841233       38       0.03586148       0.04708354      -0.03742592
O        3.50265357       4.52706676       4.83005523       39      -0.03243696      -0.04950504      -0.03742592
40
Lattice="8.185320011718783 6.415438749810322e-10 2.3319931619266102e-14 -2.7284400045111146 7.717193715077223 -1.1112017643949374e-09 -2.728440003603855 -3.858596856897062 6.683285803923273" Properties=species:S:1:pos:R:3:spacegroup_kinds:I:1:forces:R:3 spacegroup="P 1" unit_cell=conventional occupancy="_JSON {\"0\": {\"In\": 1}, \"1\": {\"In\": 1}, \"2\": {\"In\": 1}, \"3\": {\"In\": 1}, \"4\": {\"In\": 1}, \"5\": {\"In\": 1}, \"6\": {\"In\": 1}, \"7\": {\"In\": 1}, \"8\": {\"In\": 1}, \"9\": {\"In\": 1}, \"10\": {\"In\": 1}, \"11\": {\"In\": 1}, \"12\": {\"In\": 1}, \"13\": {\"In\": 1}, \"14\": {\"In\": 1}, \"15\": {\"In\": 1}, \"16\": {\"O\": 1}, \"17\": {\"O\": 1}, \"18\": {\"O\": 1}, \"19\": {\"O\": 1}, \"20\": {\"O\": 1}, \"21\": {\"O\": 1}, \"22\": {\"O\": 1}, \"23\": {\"O\": 1}, \"24\": {\"O\": 1}, \"25\": {\"O\": 1}, \"26\": {\"O\": 1}, \"27\": {\"O\": 1}, \"28\": {\"O\": 1}, \"29\": {\"O\": 1}, \"30\": {\"O\": 1}, \"31\": {\"O\": 1}, \"32\": {\"O\": 1}, \"33\": {\"O\": 1}, \"34\": {\"O\": 1}, \"35\": {\"O\": 1}, \"36\": {\"O\": 1}, \"37\": {\"O\": 1}, \"38\": {\"O\": 1}, \"39\": {\"O\": 1}}" n_minim_iter=3 energy=-45132.20656269986 stress="-0.412932823511954 4.2249970102077015e-13 1.0418641667260223e-13 4.2249970102077015e-13 -0.41293282351183946 5.658098693993981e-14 1.0418641667260223e-13 5.658098693993981e-14 -0.41293282351186333" free_energy=-45132.20656269986 pbc="T T T"
In      -3.89439901       2.75375595       5.25528349        0       0.06520605      -0.04610764       0.07986078
In       6.62283901       1.10484091       1.42800231        1      -0.06520605       0.04610764      -0.07986078
In       1.16595900      -0.82445751       4.76964521        2      -0.06520605       0.04610764      -0.07986078
In      -1.36422000      -1.92929843       3.34164290        3       0.00000000      -0.00000000       0.00000000
In      -1.16595900       3.71840516       3.09882376        4       0.06520605      -0.04610764      -0.07986078
In       4.29092100      -2.61356425       5.01246435        5       0.06520605       0.09221528      -0.00000000
In      -1.16595900       1.24503261       5.01246435        6       0.06520605       0.09221528      -0.00000000
In      -1.56248100       6.47216111       1.67082145        7      -0.06520605      -0.09221528       0.00000000
In       3.89439900       0.14019170       3.58446204        8      -0.06520605       0.04610764       0.07986078
In      -1.36422000       3.85859686      -0.00000000        9      -0.00000000      -0.00000000       0.00000000
In       3.89439900       5.92808699       0.24281914       10      -0.06520605       0.04610764       0.07986078
In      -1.16595900      -2.06949012       6.44046666       11       0.06520605      -0.04610764      -0.07986078
In       3.89439900       2.61356425       1.67082145       12      -0.06520605      -0.09221528       0.00000000
In       1.56248100       4.68305438       1.91364059       13       0.06520605      -0.04610764       0.07986078
In       4.09266000       0.00000000      -0.00000000       14       0.00000000       0.00000000       0.00000000
In       1.36422000       1.92929843       3.34164290       15       0.00000000       0.00000000       0.00000000
O        0.77252321       3.84874777       3.69366328       16      -0.02170141      -0.04208012      -0.02850408
O       -1.95591680       3.20373078       4.84498372       17      -0.02170141      -0.00364520       0.05069449
O       -0.36919173       2.08174673       0.10503130       18      -0.05034405       0.01660820       0.01561457
O       -0.77252321      -0.66471516       1.85536120       19       0.02170141      -0.04572532       0.02219041
O        3.67247861       4.58395187       1.75032990       20       0.00379708       0.05474039       0.00657584
O        1.78440140       2.70544421       1.50334082       21      -0.00379708       0.02167535       0.05069449
O        1.78440140       5.73710452       0.24698908       22      -0.00379708       0.03306504      -0.04411865
O       -2.08575355       5.44205701       3.44667420       23      -0.03243971       0.04192875       0.01561457
O        3.09763173       1.77685013       6.57825450       24       0.05034405      -0.01660820      -0.01561457
O        4.81419355      -1.58346015       3.23661160       25       0.03243971      -0.04192875      -0.01561457
O        5.82607174       3.06113157       1.59131300       26       0.05034405       0.02182671      -0.00657584
O        3.37112646       2.19317734       3.58863198       27      -0.03243971      -0.00744176      -0.04411865
O        0.64268646       3.94055622       6.33126542       28      -0.03243971      -0.03448699       0.02850408
O        2.08575355      -0.08195936       0.35202038       29       0.03243971       0.03448699      -0.02850408
O       -3.09763174       0.79746529       5.09197280       30      -0.05034405      -0.02182671       0.00657584
O        4.68435680       0.65486608       1.83830208       31       0.02170141       0.00364520      -0.05069449
O        0.94403860       1.15315265       5.17994498       32       0.00379708      -0.02167535      -0.05069449
O        3.09763173      -0.97938484       5.19700410       33       0.05034405      -0.00521851       0.02219041
O        1.95591679       0.00984909       2.98962252       34       0.02170141       0.04208012       0.02850408
O        0.94403860      -1.87850766       6.43629672       35       0.00379708      -0.03306504       0.04411865
O       -0.64268646       1.66541952       3.09465382       36       0.03243971       0.00744176       0.04411865
O       -0.94403861      -0.72535501       4.93295590       37      -0.00379708      -0.05474039      -0.00657584
O       -0.36919173       4.83798170       1.48628170       38      -0.05034405       0.00521851      -0.02219041
O        3.50096321       4.52331203       4.82792460       39      -0.02170141       0.04572532      -0.02219041
40
Lattice="8.185320011718781 6.415438749810319e-10 2.3319931619266118e-14 -2.7284400045111137 7.7171937150772205 -1.1112017643949374e-09 -2.728440003603854 -3.858596856897061 6.683285803923274" Properties=species:S:1:pos:R:3:spacegroup_kinds:I:1:forces:R:3 spacegroup="P 1" unit_cell=conventional occupancy="_JSON {\"0\": {\"In\": 1}, \"1\": {\"In\": 1}, \"2\": {\"In\": 1}, \"3\": {\"In\": 1}, \"4\": {\"In\": 1}, \"5\": {\"In\": 1}, \"6\": {\"In\": 1}, \"7\": {\"In\": 1}, \"8\": {\"In\": 1}, \"9\": {\"In\": 1}, \"10\": {\"In\": 1}, \"11\": {\"In\": 1}, \"12\": {\"In\": 1}, \"13\": {\"In\": 1}, \"14\": {\"In\": 1}, \"15\": {\"In\": 1}, \"16\": {\"O\": 1}, \"17\": {\"O\": 1}, \"18\": {\"O\": 1}, \"19\": {\"O\": 1}, \"20\": {\"O\": 1}, \"21\": {\"O\": 1}, \"22\": {\"O\": 1}, \"23\": {\"O\": 1}, \"24\": {\"O\": 1}, \"25\": {\"O\": 1}, \"26\": {\"O\": 1}, \"27\": {\"O\": 1}, \"28\": {\"O\": 1}, \"29\": {\"O\": 1}, \"30\": {\"O\": 1}, \"31\": {\"O\": 1}, \"32\": {\"O\": 1}, \"33\": {\"O\": 1}, \"34\": {\"O\": 1}, \"35\": {\"O\": 1}, \"36\": {\"O\": 1}, \"37\": {\"O\": 1}, \"38\": {\"O\": 1}, \"39\": {\"O\": 1}}" n_minim_iter=4 energy=-45132.209319005204 stress="-0.4127154369474011 4.259247715472163e-15 -6.904470392575839e-13 4.259247715472163e-15 -0.41271543694535456 4.37726853479481e-13 -6.904470392575839e-13 4.37726853479481e-13 -0.41271543694669016" free_energy=-45132.209319005204 pbc="T T T"
In      -3.89229945       2.75227134       5.25785491        0       0.00777371      -0.00549685       0.00952082
In       6.62073945       1.10632552       1.42543088        1      -0.00777371       0.00549685      -0.00952082
In       1.16385944      -0.82297290       4.76707379        2      -0.00777371       0.00549685      -0.00952082
In      -1.36422000      -1.92929843       3.34164290        3      -0.00000000       0.00000000       0.00000000
In      -1.16385945       3.71692055       3.09625234        4       0.00777371      -0.00549685      -0.00952082
In       4.29302056      -2.61059502       5.01246435        5       0.00777371       0.01099369      -0.00000000
In      -1.16385945       1.24800183       5.01246435        6       0.00777371       0.01099369       0.00000000
In      -1.56458056       6.46919189       1.67082145        7      -0.00777371      -0.01099369       0.00000000
In       3.89229945       0.14167631       3.58703346        8      -0.00777371       0.00549685       0.00952082
In      -1.36422000       3.85859686      -0.00000000        9      -0.00000000       0.00000000      -0.00000000
In       3.89229945       5.92957160       0.24539056       10      -0.00777371       0.00549685       0.00952082
In      -1.16385945      -2.07097473       6.43789524       11       0.00777371      -0.00549685      -0.00952082
In       3.89229945       2.61059503       1.67082145       12      -0.00777371      -0.01099369       0.00000000
In       1.56458056       4.68156977       1.91621201       13       0.00777371      -0.00549685       0.00952082
In       4.09266000       0.00000000      -0.00000000       14       0.00000000      -0.00000000       0.00000000
In       1.36422000       1.92929843       3.34164290       15       0.00000000      -0.00000000      -0.00000000
O        0.77120391       3.84775441       3.69527453       16       0.02193375       0.00511073       0.00591863
O       -1.95723610       3.20562285       4.84503838       17       0.02193375       0.00257032      -0.00738533
O       -0.36878420       2.08241774       0.10720089       18       0.01455301       0.00778929      -0.01642486
O       -0.77120391      -0.66381647       1.85702710       19      -0.02193375       0.00768104      -0.00146670
O        3.67470223       4.58430579       1.74982621       20      -0.00488793      -0.01716394       0.01495815
O        1.78217777       2.70605737       1.50339548       21       0.00488793      -0.02153611      -0.00738533
O        1.78217777       5.73684528       0.24643073       22       0.00488793       0.00437217       0.02234348
O       -2.08625034       5.44144912       3.44884379       23      -0.00249281      -0.01631714      -0.01642486
O        3.09722420       1.77617912       6.57608491       24      -0.01455301      -0.00778929       0.01642486
O        4.81469034      -1.58285226       3.23444201       25       0.00249281       0.01631714       0.01642486
O        5.82566420       3.06334599       1.59181668       26      -0.01455301      -0.01032970      -0.01495815
O        3.37062967       2.19536021       3.58807364       27      -0.00249281      -0.00606578       0.02234348
O        0.64218967       3.93898125       6.32965417       28      -0.00249281       0.02238291      -0.00591863
O        2.08625033      -0.08038439       0.35363163       29       0.00249281      -0.02238291       0.00591863
O       -3.09722420       0.79525087       5.09146911       30       0.01455301       0.01032970       0.01495815
O        4.68567610       0.65297402       1.83824742       31      -0.02193375      -0.00257032       0.00738533
O        0.94626223       1.15253949       5.17989032       32      -0.00488793       0.02153611       0.00738533
O        3.09722420      -0.98092825       5.19867001       33      -0.01455301       0.01811899      -0.00146670
O        1.95723610       0.01084246       2.98801127       34      -0.02193375      -0.00511073      -0.00591863
O        0.94626223      -1.87824842       6.43685506       35      -0.00488793      -0.00437217      -0.02234348
O       -0.64218967       1.66323665       3.09521216       36       0.00249281       0.00606578      -0.02234348
O       -0.94626223      -0.72570893       4.93345959       37       0.00488793       0.01716394      -0.01495815
O       -0.36878420       4.83952512       1.48461579       38       0.01455301      -0.01811899       0.00146670
O        3.49964391       4.52241333       4.82625869       39       0.02193375      -0.00768104       0.00146670
40
Lattice="8.185320011718789 6.415438749810325e-10 2.3319931619266134e-14 -2.7284400045111163 7.7171937150772285 -1.1112017643949386e-09 -2.7284400036038567 -3.8585968568970648 6.6832858039232805" Properties=species:S:1:pos:R:3:spacegroup_kinds:I:1:forces:R:3 spacegroup="P 1" unit_cell=conventional occupancy="_JSON {\"0\": {\"In\": 1}, \"1\": {\"In\": 1}, \"2\": {\"In\": 1}, \"3\": {\"In\": 1}, \"4\": {\"In\": 1}, \"5\": {\"In\": 1}, \"6\": {\"In\": 1}, \"7\": {\"In\": 1}, \"8\": {\"In\": 1}, \"9\": {\"In\": 1}, \"10\": {\"In\": 1}, \"11\": {\"In\": 1}, \"12\": {\"In\": 1}, \"13\": {\"In\": 1}, \"14\": {\"In\": 1}, \"15\": {\"In\": 1}, \"16\": {\"O\": 1}, \"17\": {\"O\": 1}, \"18\": {\"O\": 1}, \"19\": {\"O\": 1}, \"20\": {\"O\": 1}, \"21\": {\"O\": 1}, \"22\": {\"O\": 1}, \"23\": {\"O\": 1}, \"24\": {\"O\": 1}, \"25\": {\"O\": 1}, \"26\": {\"O\": 1}, \"27\": {\"O\": 1}, \"28\": {\"O\": 1}, \"29\": {\"O\": 1}, \"30\": {\"O\": 1}, \"31\": {\"O\": 1}, \"32\": {\"O\": 1}, \"33\": {\"O\": 1}, \"34\": {\"O\": 1}, \"35\": {\"O\": 1}, \"36\": {\"O\": 1}, \"37\": {\"O\": 1}, \"38\": {\"O\": 1}, \"39\": {\"O\": 1}}" n_minim_iter=5 energy=-45132.21010248231 stress="-0.4126252665587226 -1.62806561848265e-14 -2.9097741357560234e-13 -1.62806561848265e-14 -0.4126252665581814 2.27787702562446e-13 -2.9097741357560234e-13 2.27787702562446e-13 -0.4126252665578471" free_energy=-45132.21010248231 pbc="T T T"
In      -3.89128756       2.75155582       5.25909422        0       0.00414290      -0.00292947       0.00507400
In       6.61972756       1.10704104       1.42419158        1      -0.00414290       0.00292947      -0.00507400
In       1.16284756      -0.82225739       4.76583448        2      -0.00414290       0.00292947      -0.00507400
In      -1.36422000      -1.92929843       3.34164290        3      -0.00000000      -0.00000000      -0.00000000
In      -1.16284756       3.71620504       3.09501303        4       0.00414290      -0.00292947      -0.00507400
In       4.29403245      -2.60916400       5.01246435        5       0.00414290       0.00585895      -0.00000000
In      -1.16284756       1.24943286       5.01246435        6       0.00414290       0.00585895       0.00000000
In      -1.56559245       6.46776086       1.67082145        7      -0.00414290      -0.00585895       0.00000000
In       3.89128756       0.14239182       3.58827277        8      -0.00414290       0.00292947       0.00507400
In      -1.36422000       3.85859686      -0.00000000        9      -0.00000000       0.00000000      -0.00000000
In       3.89128756       5.93028711       0.24662987       10      -0.00414290       0.00292947       0.00507400
In      -1.16284756      -2.07169025       6.43665593       11       0.00414290      -0.00292947      -0.00507400
In       3.89128756       2.60916400       1.67082145       12      -0.00414290      -0.00585895      -0.00000000
In       1.56559245       4.68085425       1.91745132       13       0.00414290      -0.00292947       0.00507400
In       4.09266000       0.00000000      -0.00000000       14      -0.00000000       0.00000000      -0.00000000
In       1.36422000       1.92929843       3.34164290       15      -0.00000000       0.00000000       0.00000000
O        0.77248456       3.84789244       3.69599369       16       0.00882968       0.00587535       0.00282626
O       -1.95595545       3.20617664       4.84455925       17       0.00882968      -0.00049006      -0.00650133
O       -0.36770505       2.08311402       0.10647498       18       0.00802053       0.00008210      -0.00749234
O       -0.77248456      -0.66312463       1.85726714       19      -0.00882968       0.00538529      -0.00367507
O        3.67479747       4.58319485       1.75079216       20      -0.00340526      -0.00971099       0.00381727
O        1.78208253       2.70466536       1.50291635       21       0.00340526      -0.00816135      -0.00650133
O        1.78208253       5.73712635       0.24787581       22       0.00340526      -0.00154965       0.01031860
O       -2.08654708       5.44019959       3.44811788       23       0.00259611      -0.00758919      -0.00749234
O        3.09614505       1.77548285       6.57681082       24      -0.00802053      -0.00008210       0.00749234
O        4.81498708      -1.58160273       3.23516792       25      -0.00259611       0.00758919       0.00749234
O        5.82458505       3.06306547       1.59085073       26      -0.00802053      -0.00644751      -0.00381727
O        3.37033293       2.19535631       3.58951872       27       0.00259611      -0.00269396       0.01031860
O        0.64189293       3.94023467       6.32893501       28       0.00259611       0.01028315      -0.00282626
O        2.08654707      -0.08163781       0.35435079       29      -0.00259611      -0.01028315       0.00282626
O       -3.09614505       0.79553139       5.09243507       30       0.00802053       0.00644751       0.00381727
O        4.68439545       0.65242022       1.83872655       31      -0.00882968       0.00049006       0.00650133
O        0.94635747       1.15393150       5.18036945       32      -0.00340526       0.00816135       0.00650133
O        3.09614505      -0.97995145       5.19891004       33      -0.00802053       0.00652960      -0.00367507
O        1.95595544       0.01070442       2.98729211       34      -0.00882968      -0.00587535      -0.00282626
O        0.94635747      -1.87852949       6.43540999       35      -0.00340526       0.00154965      -0.01031860
O       -0.64189293       1.66324055       3.09376708       36      -0.00259611       0.00269396      -0.01031860
O       -0.94635747      -0.72459799       4.93249363       37       0.00340526       0.00971099      -0.00381727
O       -0.36770505       4.83854832       1.48437575       38       0.00802053      -0.00652960       0.00367507
O        3.50092456       4.52172149       4.82601866       39       0.00882968      -0.00538529       0.00367507
40