40
Lattice="8.27240442027136 6.483701655062853e-10 1.6302129840672074e-14 -2.7574681407017425 7.799297682839144 -1.1230222507127578e-09 -2.7574681397848217 -3.899648840771195 6.754389925764477" Properties=species:S:1:pos:R:3:spacegroup_kinds:I:1:forces:R:3 spacegroup="P 1" unit_cell=conventional occupancy="_JSON {\"0\": {\"In\": 1}, \"1\": {\"In\": 1}, \"2\": {\"In\": 1}, \"3\": {\"In\": 1}, \"4\": {\"In\": 1}, \"5\": {\"In\": 1}, \"6\": {\"In\": 1}, \"7\": {\"In\": 1}, \"8\": {\"In\": 1}, \"9\": {\"In\": 1}, \"10\": {\"In\": 1}, \"11\": {\"In\": 1}, \"12\": {\"In\": 1}, \"13\": {\"In\": 1}, \"14\": {\"In\": 1}, \"15\": {\"In\": 1}, \"16\": {\"O\": 1}, \"17\": {\"O\": 1}, \"18\": {\"O\": 1}, \"19\": {\"O\": 1}, \"20\": {\"O\": 1}, \"21\": {\"O\": 1}, \"22\": {\"O\": 1}, \"23\": {\"O\": 1}, \"24\": {\"O\": 1}, \"25\": {\"O\": 1}, \"26\": {\"O\": 1}, \"27\": {\"O\": 1}, \"28\": {\"O\": 1}, \"29\": {\"O\": 1}, \"30\": {\"O\": 1}, \"31\": {\"O\": 1}, \"32\": {\"O\": 1}, \"33\": {\"O\": 1}, \"34\": {\"O\": 1}, \"35\": {\"O\": 1}, \"36\": {\"O\": 1}, \"37\": {\"O\": 1}, \"38\": {\"O\": 1}, \"39\": {\"O\": 1}}" n_minim_iter=1 energy=-45137.255711546204 stress="-0.33332008103786265 4.7286104495658814e-14 -3.5297708417622213e-14 4.7286104495658814e-14 -0.33332008103695226 -9.411465412474828e-14 -3.5297708417622213e-14 -9.411465412474828e-14 -0.33332008103719646" free_energy=-45137.255711546204 pbc="T T T"
In      -3.93938314       2.78556453       5.30684559        0      -0.02013183       0.01423536      -0.02465636
In       6.69685128       1.11408431       1.44754433        1       0.02013183      -0.01423536       0.02465636
In       1.18191500      -0.83574011       4.82473930        2       0.02013183      -0.01423536       0.02465636
In      -1.37873407      -1.94982442       3.37719496        3       0.00000000      -0.00000000      -0.00000000
In      -1.18191500       3.76047674       3.13614181        4      -0.02013183       0.01423536       0.02465636
In       4.33302128      -2.64639243       5.06579244        5      -0.02013183      -0.02847071      -0.00000000
In      -1.18191500       1.25325641       5.06579244        6      -0.02013183      -0.02847071      -0.00000000
In      -1.57555314       6.54604128       1.68859748        7       0.02013183       0.02847071       0.00000000
In       3.93938314       0.13917210       3.61824811        8       0.02013183      -0.01423536      -0.02465636
In      -1.37873407       3.89964884      -0.00000000        9       0.00000000      -0.00000000      -0.00000000
In       3.93938314       5.98864536       0.24105314       10       0.02013183      -0.01423536      -0.02465636
In      -1.18191500      -2.08899652       6.51333678       11      -0.02013183       0.01423536       0.02465636
In       3.93938314       2.64639244       1.68859748       12       0.02013183       0.02847071      -0.00000000
In       1.57555314       4.73538896       1.92965062       13      -0.02013183       0.01423536      -0.02465636
In       4.13620221       0.00000000      -0.00000000       14      -0.00000000      -0.00000000       0.00000000
In       1.37873407       1.94982442       3.37719496       15      -0.00000000       0.00000000      -0.00000000
O        0.78398168       3.89021481       3.71937264       16      -0.00898654       0.00129615       0.10104377
O       -1.97348646       3.22578822       4.90287371       17      -0.00898654       0.08685840      -0.05164438
O       -0.38288916       2.10106607       0.09655968       18       0.08011739       0.02385241       0.05748520
O       -0.78398168      -0.68329466       1.86785643       19       0.00898654       0.08815455       0.04939939
O        3.69913111       4.63869226       1.77129675       20       0.08488640      -0.05496545      -0.00808581
O        1.81580516       2.73518256       1.52567875       21      -0.08488640      -0.02048021      -0.05164438
O        1.81580516       5.80315854       0.24561800       22      -0.08488640      -0.03448524       0.04355857
O       -2.10853381       5.51010927       3.47375464       23       0.00421753      -0.08348620       0.05748520
O        3.14035730       1.79858277       6.65783024       24      -0.08011739      -0.02385241      -0.05748520
O        4.86600195      -1.61046042       3.28063528       25      -0.00421753       0.08348620      -0.05748520
O        5.89782544       3.08398060       1.60589821       26      -0.08011739       0.06170985       0.00808581
O        3.40640247       2.20312956       3.62281296       27       0.00421753       0.09152674       0.04355857
O        0.64893433       3.98570771       6.41221224       28       0.00421753      -0.00804054      -0.10104377
O        2.10853381      -0.08605886       0.34217768       29      -0.00421753       0.00804054       0.10104377
O       -3.14035730       0.81566825       5.14849171       30       0.08011739      -0.06170985      -0.00808581
O        4.73095460       0.67386063       1.85151621       31       0.00898654      -0.08685840       0.05164438
O        0.94166297       1.16446628       5.22871117       32       0.08488640       0.02048021       0.05164438
O        3.14035730      -0.98291452       5.24505140       33      -0.08011739      -0.03785744       0.04939939
O        1.97348646       0.00943403       3.03501728       34       0.00898654      -0.00129615      -0.10104377
O        0.94166297      -1.90350969       6.50877192       35       0.08488640       0.03448524      -0.04355857
O       -0.64893433       1.69651929       3.13157696       36      -0.00421753      -0.09152674      -0.04355857
O       -0.94166298      -0.73904342       4.98309317       37      -0.08488640       0.05496545       0.00808581
O       -0.38288916       4.88256336       1.50933852       38       0.08011739       0.03785744      -0.04939939
O        3.54144982       4.58294350       4.88653349       39      -0.00898654      -0.08815455      -0.04939939
40
Lattice="8.272404420271359 6.483701655062852e-10 1.6302129840672074e-14 -2.757468140701742 7.799297682839144 -1.1230222507127576e-09 -2.7574681397848213 -3.899648840771195 6.754389925764477" Properties=species:S:1:pos:R:3:spacegroup_kinds:I:1:forces:R:3 spacegroup="P 1" unit_cell=conventional occupancy="_JSON {\"0\": {\"In\": 1}, \"1\": {\"In\": 1}, \"2\": {\"In\": 1}, \"3\": {\"In\": 1}, \"4\": {\"In\": 1}, \"5\": {\"In\": 1}, \"6\": {\"In\": 1}, \"7\": {\"In\": 1}, \"8\": {\"In\": 1}, \"9\": {\"In\": 1}, \"10\": {\"In\": 1}, \"11\": {\"In\": 1}, \"12\": {\"In\": 1}, \"13\": {\"In\": 1}, \"14\": {\"In\": 1}, \"15\": {\"In\": 1}, \"16\": {\"O\": 1}, \"17\": {\"O\": 1}, \"18\": {\"O\": 1}, \"19\": {\"O\": 1}, \"20\": {\"O\": 1}, \"21\": {\"O\": 1}, \"22\": {\"O\": 1}, \"23\": {\"O\": 1}, \"24\": {\"O\": 1}, \"25\": {\"O\": 1}, \"26\": {\"O\": 1}, \"27\": {\"O\": 1}, \"28\": {\"O\": 1}, \"29\": {\"O\": 1}, \"30\": {\"O\": 1}, \"31\": {\"O\": 1}, \"32\": {\"O\": 1}, \"33\": {\"O\": 1}, \"34\": {\"O\": 1}, \"35\": {\"O\": 1}, \"36\": {\"O\": 1}, \"37\": {\"O\": 1}, \"38\": {\"O\": 1}, \"39\": {\"O\": 1}}" n_minim_iter=2 energy=-45137.259519616804 stress="-0.3326763671289535 1.0787187171647696e-13 1.7769140695587675e-13 1.0787187171647696e-13 -0.33267636712858883 -1.4386177198959412e-13 1.7769140695587675e-13 -1.4386177198959412e-13 -0.33267636712737825" free_energy=-45137.259519616804 pbc="T T T"
In      -3.93996931       2.78597902       5.30612768        0       0.04299460      -0.03040178       0.05265742
In       6.69743745       1.11366983       1.44826224        1      -0.04299460       0.03040178      -0.05265742
In       1.18250117      -0.83615459       4.82545720        2      -0.04299460       0.03040178      -0.05265742
In      -1.37873407      -1.94982442       3.37719496        3       0.00000000      -0.00000000       0.00000000
In      -1.18250117       3.76089123       3.13685972        4       0.04299460      -0.03040178      -0.05265742
In       4.33243511      -2.64722140       5.06579244        5       0.04299460       0.06080355       0.00000000
In      -1.18250117       1.25242744       5.06579244        6       0.04299460       0.06080355      -0.00000000
In      -1.57496697       6.54687025       1.68859748        7      -0.04299460      -0.06080355      -0.00000000
In       3.93996931       0.13875762       3.61753020        8      -0.04299460       0.03040178       0.05265742
In      -1.37873407       3.89964884      -0.00000000        9       0.00000000       0.00000000       0.00000000
In       3.93996931       5.98823088       0.24033523       10      -0.04299460       0.03040178       0.05265742
In      -1.18250117      -2.08858203       6.51405469       11       0.04299460      -0.03040178      -0.05265742
In       3.93996931       2.64722141       1.68859748       12      -0.04299460      -0.06080355       0.00000000
In       1.57496697       4.73580344       1.92893272       13       0.04299460      -0.03040178       0.05265742
In       4.13620221       0.00000000      -0.00000000       14      -0.00000000      -0.00000000      -0.00000000
In       1.37873407       1.94982442       3.37719496       15       0.00000000       0.00000000      -0.00000000
O        0.78372002       3.89025255       3.72231469       16      -0.03187941      -0.03458727       0.01042124
O       -1.97374812       3.22831723       4.90137000       17      -0.03187941       0.02631869       0.02474283
O       -0.38055642       2.10176057       0.09823345       18      -0.01842216       0.01680298       0.04122453
O       -0.78372002      -0.68072790       1.86929477       19       0.03187941      -0.00826858       0.03516407
O        3.70160271       4.63709186       1.77106132       20       0.03543997       0.03206957      -0.00606046
O        1.81333356       2.73458625       1.52417504       21      -0.03543997       0.02128330       0.02474283
O        1.81333356       5.80215445       0.24688628       22      -0.03543997       0.01078627      -0.03080329
O       -2.10841101       5.50767844       3.47542841       23      -0.02198272       0.01176758       0.04122453
O        3.13802455       1.79788827       6.65615647       24       0.01842216      -0.01680298      -0.04122453
O        4.86587915      -1.60802959       3.27896151       25       0.02198272      -0.01176758      -0.04122453
O        5.89549269       3.08577737       1.60613364       26       0.01842216       0.04410298       0.00606046
O        3.40652527       2.20579450       3.62408124       27      -0.02198272       0.02981770      -0.03080329
O        0.64905713       3.98547359       6.40927019       28      -0.02198272      -0.04158528      -0.01042124
O        2.10841101      -0.08582475       0.34511973       29       0.02198272       0.04158528       0.01042124
O       -3.13802456       0.81387147       5.14825628       30      -0.01842216      -0.04410298      -0.00606046
O        4.73121626       0.67133161       1.85301992       31       0.03187941      -0.02631869      -0.02474283
O        0.94413457       1.16506259       5.23021488       32       0.03543997      -0.02128330      -0.02474283
O        3.13802455      -0.98401680       5.24648974       33       0.01842216      -0.02730000       0.03516407
O        1.97374812       0.00939629       3.03207523       34       0.03187941       0.03458727      -0.01042124
O        0.94413457      -1.90250560       6.50750364       35       0.03543997      -0.01078627       0.03080329
O       -0.64905713       1.69385434       3.13030868       36       0.02198272      -0.02981770       0.03080329
O       -0.94413458      -0.73744301       4.98332860       37      -0.03543997      -0.03206957       0.00606046
O       -0.38055642       4.88366564       1.50790019       38      -0.01842216       0.02730000      -0.03516407
O        3.54118816       4.58037675       4.88509515       39      -0.03187941       0.00826858      -0.03516407
40
Lattice="8.272404420271354 6.483701655062851e-10 1.6302129840672064e-14 -2.7574681407017416 7.799297682839141 -1.123022250712757e-09 -2.757468139784821 -3.8996488407711936 6.754389925764475" Properties=species:S:1:pos:R:3:spacegroup_kinds:I:1:forces:R:3 spacegroup="P 1" unit_cell=conventional occupancy="_JSON {\"0\": {\"In\": 1}, \"1\": {\"In\": 1}, \"2\": {\"In\": 1}, \"3\": {\"In\": 1}, \"4\": {\"In\": 1}, \"5\": {\"In\": 1}, \"6\": {\"In\": 1}, \"7\": {\"In\": 1}, \"8\": {\"In\": 1}, \"9\": {\"In\": 1}, \"10\": {\"In\": 1}, \"11\": {\"In\": 1}, \"12\": {\"In\": 1}, \"13\": {\"In\": 1}, \"14\": {\"In\": 1}, \"15\": {\"In\": 1}, \"16\": {\"O\": 1}, \"17\": {\"O\": 1}, \"18\": {\"O\": 1}, \"19\": {\"O\": 1}, \"20\": {\"O\": 1}, \"21\": {\"O\": 1}, \"22\": {\"O\": 1}, \"23\": {\"O\": 1}, \"24\": {\"O\": 1}, \"25\": {\"O\": 1}, \"26\": {\"O\": 1}, \"27\": {\"O\": 1}, \"28\": {\"O\": 1}, \"29\": {\"O\": 1}, \"30\": {\"O\": 1}, \"31\": {\"O\": 1}, \"32\": {\"O\": 1}, \"33\": {\"O\": 1}, \"34\": {\"O\": 1}, \"35\": {\"O\": 1}, \"36\": {\"O\": 1}, \"37\": {\"O\": 1}, \"38\": {\"O\": 1}, \"39\": {\"O\": 1}}" n_minim_iter=3 energy=-45137.26309043394 stress="-0.332108229349529 3.709373865055137e-13 -7.193148468852578e-13 3.709373865055137e-13 -0.33210822934995626 -7.04140253736648e-13 -7.193148468852578e-13 -7.04140253736648e-13 -0.3321082293494504" free_energy=-45137.26309043394 pbc="T T T"
In      -3.93800600       2.78459075       5.30853224        0       0.00947624      -0.00670071       0.01160598
In       6.69547414       1.11505810       1.44585768        1      -0.00947624       0.00670071      -0.01160598
In       1.18053786      -0.83476632       4.82305265        2      -0.00947624       0.00670071      -0.01160598
In      -1.37873407      -1.94982442       3.37719496        3      -0.00000000      -0.00000000       0.00000000
In      -1.18053786       3.75950296       3.13445516        4       0.00947624      -0.00670071      -0.01160598
In       4.33439842      -2.64444486       5.06579244        5       0.00947624       0.01340143      -0.00000000
In      -1.18053786       1.25520398       5.06579244        6       0.00947624       0.01340143      -0.00000000
In      -1.57693028       6.54409370       1.68859748        7      -0.00947624      -0.01340143      -0.00000000
In       3.93800600       0.14014589       3.61993476        8      -0.00947624       0.00670071       0.01160598
In      -1.37873407       3.89964884      -0.00000000        9       0.00000000      -0.00000000       0.00000000
In       3.93800600       5.98961915       0.24273979       10      -0.00947624       0.00670071       0.01160598
In      -1.18053786      -2.08997030       6.51165013       11       0.00947624      -0.00670071      -0.01160598
In       3.93800600       2.64444486       1.68859748       12      -0.00947624      -0.01340143       0.00000000
In       1.57693028       4.73441517       1.93133727       13       0.00947624      -0.00670071       0.01160598
In       4.13620221       0.00000000      -0.00000000       14      -0.00000000       0.00000000       0.00000000
In       1.37873407       1.94982442       3.37719496       15      -0.00000000      -0.00000000      -0.00000000
O        0.78161191       3.88826671       3.72568015       16       0.00391434       0.01680859       0.00408441
O       -1.97585623       3.23222472       4.90140707       17       0.00391434      -0.00486709      -0.01659888
O       -0.37944737       2.10339319       0.10221071       18       0.01256334      -0.01098285      -0.00600606
O       -0.78161191      -0.67880625       1.87269729       19      -0.00391434       0.01194150      -0.01251446
O        3.70598943       4.63746648       1.77048658       20      -0.00589352      -0.01540910      -0.00650840
O        1.80894684       2.73527130       1.52421210       21       0.00589352      -0.00206811      -0.01659888
O        1.80894684       5.80184402       0.24627447       22       0.00589352      -0.01334099       0.01009047
O       -2.10958058       5.50608861       3.47940567       23       0.01454251      -0.00818388      -0.00600606
O        3.13691551       1.79625565       6.65217921       24      -0.01256334       0.01098285       0.00600606
O        4.86704872      -1.60643977       3.27498425       25      -0.01454251       0.00818388       0.00600606
O        5.89438365       3.09003809       1.60670838       26      -0.01256334      -0.01069283       0.00650840
O        3.40535570       2.21003382       3.62346944       27       0.01454251      -0.00110946       0.01009047
O        0.64788756       3.98282410       6.40590474       28       0.01454251       0.00929334      -0.00408441
O        2.10958058      -0.08317525       0.34848518       29      -0.01454251      -0.00929334       0.00408441
O       -3.13691551       0.80961076       5.14768154       30       0.01256334       0.01069283      -0.00650840
O        4.73332437       0.66742412       1.85298285       31      -0.00391434       0.00486709       0.01659888
O        0.94852129       1.16437754       5.23017782       32      -0.00589352       0.00206811       0.01659888
O        3.13691551      -0.98664489       5.24989225       33      -0.01256334      -0.00029003      -0.01251446
O        1.97585623       0.01138214       3.02870978       34      -0.00391434      -0.01680859      -0.00408441
O        0.94852130      -1.90219517       6.50811545       35      -0.00589352       0.01334099      -0.01009047
O       -0.64788756       1.68961503       3.13092048       36      -0.01454251       0.00110946      -0.01009047
O       -0.94852130      -0.73781763       4.98390334       37       0.00589352       0.01540910       0.00650840
O       -0.37944737       4.88629374       1.50449767       38       0.01256334       0.00029003       0.01251446
O        3.53908005       4.57845510       4.88169263       39       0.00391434      -0.01194150       0.01251446
40
Lattice="8.272404420271348 6.483701655062847e-10 1.6302129840672058e-14 -2.75746814070174 7.799297682839137 -1.1230222507127565e-09 -2.757468139784819 -3.899648840771192 6.754389925764471" Properties=species:S:1:pos:R:3:spacegroup_kinds:I:1:forces:R:3 spacegroup="P 1" unit_cell=conventional occupancy="_JSON {\"0\": {\"In\": 1}, \"1\": {\"In\": 1}, \"2\": {\"In\": 1}, \"3\": {\"In\": 1}, \"4\": {\"In\": 1}, \"5\": {\"In\": 1}, \"6\": {\"In\": 1}, \"7\": {\"In\": 1}, \"8\": {\"In\": 1}, \"9\": {\"In\": 1}, \"10\": {\"In\": 1}, \"11\": {\"In\": 1}, \"12\": {\"In\": 1}, \"13\": {\"In\": 1}, \"14\": {\"In\": 1}, \"15\": {\"In\": 1}, \"16\": {\"O\": 1}, \"17\": {\"O\": 1}, \"18\": {\"O\": 1}, \"19\": {\"O\": 1}, \"20\": {\"O\": 1}, \"21\": {\"O\": 1}, \"22\": {\"O\": 1}, \"23\": {\"O\": 1}, \"24\": {\"O\": 1}, \"25\": {\"O\": 1}, \"26\": {\"O\": 1}, \"27\": {\"O\": 1}, \"28\": {\"O\": 1}, \"29\": {\"O\": 1}, \"30\": {\"O\": 1}, \"31\": {\"O\": 1}, \"32\": {\"O\": 1}, \"33\": {\"O\": 1}, \"34\": {\"O\": 1}, \"35\": {\"O\": 1}, \"36\": {\"O\": 1}, \"37\": {\"O\": 1}, \"38\": {\"O\": 1}, \"39\": {\"O\": 1}}" n_minim_iter=4 energy=-45137.26347312087 stress="-0.331964007475375 3.41881123898628e-13 4.741526948304799e-15 3.41881123898628e-13 -0.33196400747603777 3.704115550775635e-13 4.741526948304799e-15 3.704115550775635e-13 -0.3319640074751919" free_energy=-45137.26347312087 pbc="T T T"
In      -3.93710845       2.78395608       5.30963151        0       0.00513971      -0.00363432       0.00629483
In       6.69457658       1.11569276       1.44475841        1      -0.00513971       0.00363432      -0.00629483
In       1.17964030      -0.83413166       4.82195337        2      -0.00513971       0.00363432      -0.00629483
In      -1.37873407      -1.94982442       3.37719496        3      -0.00000000      -0.00000000      -0.00000000
In      -1.17964031       3.75886829       3.13335589        4       0.00513971      -0.00363432      -0.00629483
In       4.33529597      -2.64317552       5.06579244        5       0.00513971       0.00726865      -0.00000000
In      -1.17964031       1.25647332       5.06579244        6       0.00513971       0.00726865      -0.00000000
In      -1.57782784       6.54282437       1.68859748        7      -0.00513971      -0.00726865       0.00000000
In       3.93710844       0.14078055       3.62103403        8      -0.00513971       0.00363432       0.00629483
In      -1.37873407       3.89964884      -0.00000000        9      -0.00000000       0.00000000       0.00000000
In       3.93710844       5.99025382       0.24383907       10      -0.00513971       0.00363432       0.00629483
In      -1.17964031      -2.09060497       6.51055085       11       0.00513971      -0.00363432      -0.00629483
In       3.93710844       2.64317553       1.68859748       12      -0.00513971      -0.00726865       0.00000000
In       1.57782783       4.73378050       1.93243655       13       0.00513971      -0.00363432       0.00629483
In       4.13620221       0.00000000      -0.00000000       14      -0.00000000       0.00000000       0.00000000
In       1.37873407       1.94982442       3.37719496       15      -0.00000000       0.00000000      -0.00000000
O        0.78163247       3.88921893       3.72641535       16       0.00930293      -0.00570473      -0.00215394
O       -1.97583567       3.23238532       4.90021482       17       0.00930293       0.00098700       0.00601741
O       -0.37839135       2.10282161       0.10228663       18      -0.00134695       0.00851760      -0.00702597
O       -0.78163248      -0.67769344       1.87224025       19      -0.00930293      -0.00471773       0.00386347
O        3.70613399       4.63639750       1.76995361       20      -0.00217043       0.00066129       0.01088944
O        1.80880229       2.73519838       1.52301986       21       0.00217043      -0.00909988       0.00601741
O        1.80880229       5.80084796       0.24693375       22       0.00217043       0.00976118       0.00487202
O       -2.10868967       5.50528351       3.47948159       23      -0.00847945      -0.00156929      -0.00702597
O        3.13585949       1.79682724       6.65210329       24       0.00134695      -0.00851760       0.00702597
O        4.86615781      -1.60563467       3.27490833       25       0.00847945       0.00156929       0.00702597
O        5.89332763       3.08981805       1.60724135       26       0.00134695      -0.00182587      -0.01088944
O        3.40624661       2.21050212       3.62412871       27      -0.00847945      -0.00530002       0.00487202
O        0.64877847       3.98316090       6.40516954       28      -0.00847945       0.00686931       0.00215394
O        2.10868967      -0.08351205       0.34922038       29       0.00847945      -0.00686931      -0.00215394
O       -3.13585949       0.80983080       5.14714857       30      -0.00134695       0.00182587       0.01088944
O        4.73330380       0.66726353       1.85417510       31      -0.00930293      -0.00098700      -0.00601741
O        0.94866585       1.16445046       5.23137006       32      -0.00217043       0.00909988      -0.00601741
O        3.13585949      -0.98699644       5.24943521       33       0.00134695       0.01034346       0.00386347
O        1.97583566       0.01042992       3.02797457       34      -0.00930293       0.00570473       0.00215394
O        0.94866585      -1.90119912       6.50745617       35      -0.00217043      -0.00976118      -0.00487202
O       -0.64877847       1.68914672       3.13026121       36       0.00847945       0.00530002      -0.00487202
O       -0.94866585      -0.73674866       4.98443631       37       0.00217043      -0.00066129      -0.01088944
O       -0.37839135       4.88664529       1.50495471       38      -0.00134695      -0.01034346      -0.00386347
O        3.53910061       4.57734229       4.88214967       39       0.00930293       0.00471773      -0.00386347
40
Lattice="8.27240442027135 6.483701655062849e-10 1.6302129840672058e-14 -2.7574681407017407 7.799297682839139 -1.123022250712757e-09 -2.75746813978482 -3.8996488407711927 6.754389925764474" Properties=species:S:1:pos:R:3:spacegroup_kinds:I:1:forces:R:3 spacegroup="P 1" unit_cell=conventional occupancy="_JSON {\"0\": {\"In\": 1}, \"1\": {\"In\": 1}, \"2\": {\"In\": 1}, \"3\": {\"In\": 1}, \"4\": {\"In\": 1}, \"5\": {\"In\": 1}, \"6\": {\"In\": 1}, \"7\": {\"In\": 1}, \"8\": {\"In\": 1}, \"9\": {\"In\": 1}, \"10\": {\"In\": 1}, \"11\": {\"In\": 1}, \"12\": {\"In\": 1}, \"13\": {\"In\": 1}, \"14\": {\"In\": 1}, \"15\": {\"In\": 1}, \"16\": {\"O\": 1}, \"17\": {\"O\": 1}, \"18\": {\"O\": 1}, \"19\": {\"O\": 1}, \"20\": {\"O\": 1}, \"21\": {\"O\": 1}, \"22\": {\"O\": 1}, \"23\": {\"O\": 1}, \"24\": {\"O\": 1}, \"25\": {\"O\": 1}, \"26\": {\"O\": 1}, \"27\": {\"O\": 1}, \"28\": {\"O\": 1}, \"29\": {\"O\": 1}, \"30\": {\"O\": 1}, \"31\": {\"O\": 1}, \"32\": {\"O\": 1}, \"33\": {\"O\": 1}, \"34\": {\"O\": 1}, \"35\": {\"O\": 1}, \"36\": {\"O\": 1}, \"37\": {\"O\": 1}, \"38\": {\"O\": 1}, \"39\": {\"O\": 1}}" n_minim_iter=5 energy=-45137.263574476514 stress="-0.3320260696059869 3.320564324318235e-13 -4.303762094004438e-13 3.320564324318235e-13 -0.33202606960678394 2.5847773748548367e-14 -4.303762094004438e-13 2.5847773748548367e-14 -0.3320260696060858" free_energy=-45137.263574476514 pbc="T T T"
In      -3.93666748       2.78364427       5.31017158        0      -0.00435436       0.00307900      -0.00533299
In       6.69413562       1.11600457       1.44421834        1       0.00435436      -0.00307900       0.00533299
In       1.17919934      -0.83381985       4.82141330        2       0.00435436      -0.00307900       0.00533299
In      -1.37873407      -1.94982442       3.37719496        3       0.00000000      -0.00000000      -0.00000000
In      -1.17919934       3.75855648       3.13281582        4      -0.00435436       0.00307900       0.00533299
In       4.33573694      -2.64255191       5.06579244        5      -0.00435436      -0.00615800       0.00000000
In      -1.17919934       1.25709694       5.06579244        6      -0.00435436      -0.00615800      -0.00000000
In      -1.57826880       6.54220075       1.68859748        7       0.00435436       0.00615800       0.00000000
In       3.93666748       0.14109236       3.62157410        8       0.00435436      -0.00307900      -0.00533299
In      -1.37873407       3.89964884      -0.00000000        9      -0.00000000      -0.00000000      -0.00000000
In       3.93666748       5.99056563       0.24437914       10       0.00435436      -0.00307900      -0.00533299
In      -1.17919934      -2.09091678       6.51001078       11      -0.00435436       0.00307900       0.00533299
In       3.93666748       2.64255191       1.68859748       12       0.00435436       0.00615800      -0.00000000
In       1.57826880       4.73346869       1.93297662       13      -0.00435436       0.00307900      -0.00533299
In       4.13620221       0.00000000      -0.00000000       14       0.00000000       0.00000000      -0.00000000
In       1.37873407       1.94982442       3.37719496       15      -0.00000000      -0.00000000       0.00000000
O        0.78217621       3.88927813       3.72626283       16       0.00774946      -0.00081265       0.00846420
O       -1.97529193       3.23222363       4.90023981       17       0.00774946       0.00773654      -0.00352832
O       -0.37830673       2.10298456       0.10174932       18       0.00911105       0.00677374      -0.00186071
O       -0.78217622      -0.67779593       1.87211271       19      -0.00774946       0.00692388       0.00493588
O        3.70580030       4.63618977       1.77036339       20       0.00471092      -0.00799817       0.00679659
O        1.80913598       2.73473963       1.52304485       21      -0.00471092      -0.00988510      -0.00352832
O        1.80913598       5.80109898       0.24731854       22      -0.00471092       0.00188694       0.01032491
O       -2.10881510       5.50514941       3.47894428       23      -0.00334933      -0.01084790      -0.00186071
O        3.13577486       1.79666428       6.65264060       24      -0.00911105      -0.00677374       0.00186071
O        4.86628324      -1.60550056       3.27544564       25       0.00334933       0.01084790       0.00186071
O        5.89324300       3.08943420       1.60683157       26      -0.00911105       0.00177545      -0.00679659
O        3.40612118       2.21010385       3.62451350       27      -0.00334933       0.00381252       0.01032491
O        0.64865304       3.98369327       6.40532206       28      -0.00334933       0.00703537      -0.00846420
O        2.10881510      -0.08404443       0.34906786       29       0.00334933      -0.00703537       0.00846420
O       -3.13577487       0.81021464       5.14755835       30       0.00911105      -0.00177545       0.00679659
O        4.73276006       0.66742522       1.85415011       31      -0.00774946      -0.00773654       0.00352832
O        0.94833216       1.16490921       5.23134507       32       0.00471092       0.00988510       0.00352832
O        3.13577486      -0.98644964       5.24930768       33      -0.00911105       0.00499830       0.00493588
O        1.97529192       0.01037071       3.02812709       34      -0.00774946       0.00081265      -0.00846420
O        0.94833216      -1.90145013       6.50707138       35       0.00471092      -0.00188694      -0.01032491
O       -0.64865304       1.68954500       3.12987642       36       0.00334933      -0.00381252      -0.01032491
O       -0.94833216      -0.73654092       4.98402653       37      -0.00471092       0.00799817      -0.00679659
O       -0.37830673       4.88609848       1.50508224       38       0.00911105      -0.00499830      -0.00493588
O        3.53964435       4.57744477       4.88227721       39       0.00774946      -0.00692388      -0.00493588
40