40
Lattice="9.534848390450955 7.473145173098046e-10 2.7028689856976326e-14 -3.178282797521559 8.989541272382242 -1.2944165131750936e-09 -3.1782827964647202 -4.494770635443787 7.785171111114632" Properties=species:S:1:pos:R:3:spacegroup_kinds:I:1:forces:R:3 spacegroup="P 1" unit_cell=conventional occupancy="_JSON {\"0\": {\"In\": 1}, \"1\": {\"In\": 1}, \"2\": {\"In\": 1}, \"3\": {\"In\": 1}, \"4\": {\"In\": 1}, \"5\": {\"In\": 1}, \"6\": {\"In\": 1}, \"7\": {\"In\": 1}, \"8\": {\"In\": 1}, \"9\": {\"In\": 1}, \"10\": {\"In\": 1}, \"11\": {\"In\": 1}, \"12\": {\"In\": 1}, \"13\": {\"In\": 1}, \"14\": {\"In\": 1}, \"15\": {\"In\": 1}, \"16\": {\"O\": 1}, \"17\": {\"O\": 1}, \"18\": {\"O\": 1}, \"19\": {\"O\": 1}, \"20\": {\"O\": 1}, \"21\": {\"O\": 1}, \"22\": {\"O\": 1}, \"23\": {\"O\": 1}, \"24\": {\"O\": 1}, \"25\": {\"O\": 1}, \"26\": {\"O\": 1}, \"27\": {\"O\": 1}, \"28\": {\"O\": 1}, \"29\": {\"O\": 1}, \"30\": {\"O\": 1}, \"31\": {\"O\": 1}, \"32\": {\"O\": 1}, \"33\": {\"O\": 1}, \"34\": {\"O\": 1}, \"35\": {\"O\": 1}, \"36\": {\"O\": 1}, \"37\": {\"O\": 1}, \"38\": {\"O\": 1}, \"39\": {\"O\": 1}}" n_minim_iter=1 energy=-45143.682541313865 stress="0.10530995388323697 5.75547079949579e-14 -4.447717806057297e-14 5.75547079949579e-14 0.10530995388265534 2.802811076305958e-14 -4.447717806057297e-14 2.802811076305958e-14 0.10530995388338951" free_energy=-45143.682541313865 pbc="T T T"
In      -4.51579481       3.19314914       6.14706013        0       0.04480222      -0.03167996       0.05487129
In       7.69407761       1.30162150       1.63811098        1      -0.04480222       0.03167996      -0.05487129
In       1.33751201      -0.94576381       5.53069653        2      -0.04480222       0.03167996      -0.05487129
In      -1.58914140      -2.24738532       3.89258555        3      -0.00000000      -0.00000000      -0.00000000
In      -1.33751202       4.31684180       3.58440376        4       0.04480222      -0.03167996      -0.05487129
In       5.01905358      -3.01522029       5.83887833        5       0.04480222       0.06335991       0.00000000
In      -1.33751202       1.47955035       5.83887833        6       0.04480222       0.06335991      -0.00000000
In      -1.84077078       7.50999093       1.94629277        7      -0.04480222      -0.06335991      -0.00000000
In       4.51579481       0.17792885       4.20076735        8      -0.04480222       0.03167996       0.05487129
In      -1.58914140       4.49477064      -0.00000000        9       0.00000000      -0.00000000      -0.00000000
In       4.51579481       6.92008480       0.30818179       10      -0.04480222       0.03167996       0.05487129
In      -1.33751202      -2.42531416       7.47698931       11       0.04480222      -0.03167996      -0.05487129
In       4.51579481       3.01522029       1.94629277       12      -0.04480222      -0.06335991       0.00000000
In       1.84077078       5.44053445       2.25447457       13       0.04480222      -0.03167996       0.05487129
In       4.76742419       0.00000000      -0.00000000       14      -0.00000000       0.00000000      -0.00000000
In       1.58914140       2.24738532       3.89258555       15       0.00000000      -0.00000000      -0.00000000
O        1.11016419       4.51513061       4.18885053       16       0.03474412       0.02623079      -0.05328600
O       -2.06811861       3.61747099       5.67311359       17       0.03474412      -0.05926243       0.00392647
O       -0.43787575       2.46471521      -0.11542594       18      -0.01956115      -0.02086280      -0.06258363
O       -1.11016419      -0.85693968       2.07679301       19      -0.03474412      -0.03303164      -0.04935953
O        4.09995722       5.28506912       2.19221895       20      -0.06745453      -0.00310104       0.01322410
O        2.25660837       2.99140258       1.78052803       21       0.06745453      -0.01300293       0.00392647
O        2.25660837       6.78843718       0.41169091       22       0.06745453       0.00990189       0.00929763
O       -2.46971437       6.33341743       3.77715962       23       0.01314925       0.02539670      -0.06258363
O        3.61615854       2.03005543       7.90059704       24       0.01956115       0.02086280       0.06258363
O        5.64799716      -1.83864679       4.00801149       25      -0.01314925      -0.02539670       0.06258363
O        6.79444134       3.37978113       1.70036660       26       0.01956115      -0.06463042      -0.01322410
O        3.88685123       2.35179279       4.30427646       27       0.01314925      -0.06689737       0.00929763
O        0.70856843       4.79910169       7.48890613       28       0.01314925       0.04150067       0.05328600
O        2.46971436      -0.30433105       0.29626498       29      -0.01314925      -0.04150067      -0.05328600
O       -3.61615854       1.11498951       6.08480450       30      -0.01956115       0.06463042       0.01322410
O        5.24640140       0.87729965       2.11205752       31      -0.03474412       0.05926243      -0.00392647
O        0.92167443       1.50336806       6.00464307       32      -0.06745453       0.01300293      -0.00392647
O        3.61615854      -0.91506592       5.96937857       33       0.01956115       0.04376762      -0.04935953
O        2.06811861      -0.02035997       3.59632058       34      -0.03474412      -0.02623079       0.05328600
O        0.92167443      -2.29366654       7.37348020       35      -0.06745453      -0.00990189      -0.00929763
O       -0.70856843       2.14297785       3.48089464       36      -0.01314925       0.06689737      -0.00929763
O       -0.92167443      -0.79029848       5.59295216       37       0.06745453       0.00310104      -0.01322410
O       -0.43787575       5.40983656       1.81579254       38      -0.01956115      -0.04376762       0.04935953
O        4.28844698       5.35171032       5.70837809       39       0.03474412       0.03303164       0.04935953
40
Lattice="9.534848390450952 7.473145173098046e-10 2.702868985697632e-14 -3.178282797521559 8.989541272382239 -1.2944165131750932e-09 -3.1782827964647202 -4.4947706354437855 7.785171111114631" Properties=species:S:1:pos:R:3:spacegroup_kinds:I:1:forces:R:3 spacegroup="P 1" unit_cell=conventional occupancy="_JSON {\"0\": {\"In\": 1}, \"1\": {\"In\": 1}, \"2\": {\"In\": 1}, \"3\": {\"In\": 1}, \"4\": {\"In\": 1}, \"5\": {\"In\": 1}, \"6\": {\"In\": 1}, \"7\": {\"In\": 1}, \"8\": {\"In\": 1}, \"9\": {\"In\": 1}, \"10\": {\"In\": 1}, \"11\": {\"In\": 1}, \"12\": {\"In\": 1}, \"13\": {\"In\": 1}, \"14\": {\"In\": 1}, \"15\": {\"In\": 1}, \"16\": {\"O\": 1}, \"17\": {\"O\": 1}, \"18\": {\"O\": 1}, \"19\": {\"O\": 1}, \"20\": {\"O\": 1}, \"21\": {\"O\": 1}, \"22\": {\"O\": 1}, \"23\": {\"O\": 1}, \"24\": {\"O\": 1}, \"25\": {\"O\": 1}, \"26\": {\"O\": 1}, \"27\": {\"O\": 1}, \"28\": {\"O\": 1}, \"29\": {\"O\": 1}, \"30\": {\"O\": 1}, \"31\": {\"O\": 1}, \"32\": {\"O\": 1}, \"33\": {\"O\": 1}, \"34\": {\"O\": 1}, \"35\": {\"O\": 1}, \"36\": {\"O\": 1}, \"37\": {\"O\": 1}, \"38\": {\"O\": 1}, \"39\": {\"O\": 1}}" n_minim_iter=2 energy=-45143.69185454274 stress="0.10429692325963458 -3.1675832328180775e-14 1.1209293546327245e-14 -3.1675832328180775e-14 0.1042969232593442 2.009144091327143e-13 1.1209293546327245e-14 2.009144091327143e-13 0.10429692325932614" free_energy=-45143.69185454274 pbc="T T T"
In      -4.51259466       3.19088628       6.15097950        0       0.01933230      -0.01367000       0.02367714
In       7.69087745       1.30388436       1.63419160        1      -0.01933230       0.01367000      -0.02367714
In       1.33431186      -0.94350096       5.52677716        2      -0.01933230       0.01367000      -0.02367714
In      -1.58914140      -2.24738532       3.89258555        3      -0.00000000       0.00000000       0.00000000
In      -1.33431186       4.31457894       3.58048438        4       0.01933230      -0.01367000      -0.02367714
In       5.02225374      -3.01069458       5.83887833        5       0.01933230       0.02734000       0.00000000
In      -1.33431186       1.48407605       5.83887833        6       0.01933230       0.02734000       0.00000000
In      -1.84397094       7.50546522       1.94629277        7      -0.01933230      -0.02734000       0.00000000
In       4.51259465       0.18019170       4.20468673        8      -0.01933230       0.01367000       0.02367714
In      -1.58914140       4.49477064      -0.00000000        9       0.00000000      -0.00000000       0.00000000
In       4.51259465       6.92234765       0.31210117       10      -0.01933230       0.01367000       0.02367714
In      -1.33431186      -2.42757701       7.47306993       11       0.01933230      -0.01367000      -0.02367714
In       4.51259465       3.01069459       1.94629277       12      -0.01933230      -0.02734000      -0.00000000
In       1.84397094       5.43827160       2.25839395       13       0.01933230      -0.01367000       0.02367714
In       4.76742419       0.00000000      -0.00000000       14      -0.00000000       0.00000000       0.00000000
In       1.58914140       2.24738532       3.89258555       15      -0.00000000      -0.00000000       0.00000000
O        1.11264591       4.51700424       4.18504439       16       0.03055997      -0.00018663      -0.01366241
O       -2.06563689       3.61323796       5.67339405       17       0.03055997      -0.01173868       0.00699283
O       -0.43927297       2.46322501      -0.11989620       18      -0.00105663       0.01061763      -0.03172944
O       -1.11264591      -0.85929908       2.07326733       19      -0.03055997      -0.01192530      -0.00666958
O        4.09513904       5.28484762       2.19316352       20      -0.02125399      -0.00639370       0.02505986
O        2.26142655       2.99047380       1.78080850       21       0.02125399      -0.02489932       0.00699283
O        2.26142655       6.78914446       0.41235502       22       0.02125399       0.01850563       0.01806703
O       -2.46877513       6.33523148       3.77268936       23      -0.01036261      -0.00254301      -0.03172944
O        3.61755577       2.03154563       7.90506730       24       0.00105663      -0.01061763       0.03172944
O        5.64705793      -1.84046084       4.01248175       25       0.01036261       0.00254301       0.03172944
O        6.79583856       3.37516467       1.69942202       26       0.00105663      -0.02216969      -0.02505986
O        3.88779046       2.34701441       4.30494058       27      -0.01036261      -0.02620700       0.01806703
O        0.70950766       4.80206603       7.49271227       28      -0.01036261       0.02875001       0.01366241
O        2.46877513      -0.30729538       0.29245883       29       0.01036261      -0.02875001      -0.01366241
O       -3.61755577       1.11960597       6.08574908       30      -0.00105663       0.02216969       0.02505986
O        5.24391968       0.88153268       2.11177705       31      -0.03055997       0.01173868      -0.00699283
O        0.91685625       1.50429684       6.00436261       32      -0.02125399       0.02489932      -0.00699283
O        3.61755577      -0.91193966       5.96585289       33       0.00105663       0.03278732      -0.00666958
O        2.06563688      -0.02223360       3.60012672       34      -0.03055997       0.00018663       0.01366241
O        0.91685625      -2.29437382       7.37281608       35      -0.02125399      -0.01850563      -0.01806703
O       -0.70950767       2.14775623       3.48023052       36       0.01036261       0.02620700      -0.01806703
O       -0.91685625      -0.79007698       5.59200758       37       0.02125399       0.00639370      -0.02505986
O       -0.43927297       5.40671030       1.81931822       38      -0.00105663      -0.03278732       0.00666958
O        4.29092871       5.35406972       5.71190377       39       0.03055997       0.01192530       0.00666958
40
Lattice="9.534848390450948 7.473145173098042e-10 2.7028689856976304e-14 -3.178282797521557 8.989541272382233 -1.2944165131750926e-09 -3.1782827964647185 -4.494770635443783 7.785171111114628" Properties=species:S:1:pos:R:3:spacegroup_kinds:I:1:forces:R:3 spacegroup="P 1" unit_cell=conventional occupancy="_JSON {\"0\": {\"In\": 1}, \"1\": {\"In\": 1}, \"2\": {\"In\": 1}, \"3\": {\"In\": 1}, \"4\": {\"In\": 1}, \"5\": {\"In\": 1}, \"6\": {\"In\": 1}, \"7\": {\"In\": 1}, \"8\": {\"In\": 1}, \"9\": {\"In\": 1}, \"10\": {\"In\": 1}, \"11\": {\"In\": 1}, \"12\": {\"In\": 1}, \"13\": {\"In\": 1}, \"14\": {\"In\": 1}, \"15\": {\"In\": 1}, \"16\": {\"O\": 1}, \"17\": {\"O\": 1}, \"18\": {\"O\": 1}, \"19\": {\"O\": 1}, \"20\": {\"O\": 1}, \"21\": {\"O\": 1}, \"22\": {\"O\": 1}, \"23\": {\"O\": 1}, \"24\": {\"O\": 1}, \"25\": {\"O\": 1}, \"26\": {\"O\": 1}, \"27\": {\"O\": 1}, \"28\": {\"O\": 1}, \"29\": {\"O\": 1}, \"30\": {\"O\": 1}, \"31\": {\"O\": 1}, \"32\": {\"O\": 1}, \"33\": {\"O\": 1}, \"34\": {\"O\": 1}, \"35\": {\"O\": 1}, \"36\": {\"O\": 1}, \"37\": {\"O\": 1}, \"38\": {\"O\": 1}, \"39\": {\"O\": 1}}" n_minim_iter=3 energy=-45143.69395300057 stress="0.10353484452541707 8.670287255881729e-14 -4.875129496243508e-14 8.670287255881729e-14 0.10353484452526836 2.1502375638273303e-13 -4.875129496243508e-14 2.1502375638273303e-13 0.10353484452644328" free_energy=-45143.69395300057 pbc="T T T"
In      -4.51033851       3.18929094       6.15374271        0       0.00090854      -0.00064244       0.00111274
In       7.68862130       1.30547970       1.63142839        1      -0.00090854       0.00064244      -0.00111274
In       1.33205571      -0.94190562       5.52401395        2      -0.00090854       0.00064244      -0.00111274
In      -1.58914140      -2.24738532       3.89258555        3       0.00000000      -0.00000000      -0.00000000
In      -1.33205571       4.31298360       3.57772117        4       0.00090854      -0.00064244      -0.00111274
In       5.02450988      -3.00750391       5.83887833        5       0.00090854       0.00128488       0.00000000
In      -1.33205571       1.48726673       5.83887833        6       0.00090854       0.00128488      -0.00000000
In      -1.84622709       7.50227455       1.94629277        7      -0.00090854      -0.00128488      -0.00000000
In       4.51033850       0.18178704       4.20744993        8      -0.00090854       0.00064244       0.00111274
In      -1.58914140       4.49477064      -0.00000000        9      -0.00000000       0.00000000       0.00000000
In       4.51033850       6.92394299       0.31486438       10      -0.00090854       0.00064244       0.00111274
In      -1.33205571      -2.42917235       7.47030673       11       0.00090854      -0.00064244      -0.00111274
In       4.51033850       3.00750391       1.94629277       12      -0.00090854      -0.00128488       0.00000000
In       1.84622709       5.43667626       2.26115715       13       0.00090854      -0.00064244       0.00111274
In       4.76742419       0.00000000      -0.00000000       14       0.00000000      -0.00000000      -0.00000000
In       1.58914140       2.24738532       3.89258555       15       0.00000000       0.00000000       0.00000000
O        1.11476509       4.51805206       4.18258250       16       0.02612596      -0.01553180       0.01293493
O       -2.06351770       3.61058199       5.67371756       17       0.02612596       0.01896788       0.00698347
O       -0.44008275       2.46264013      -0.12315993       18       0.01194822       0.02899306      -0.01038064
O       -1.11476510      -0.86090722       2.07112895       19      -0.02612596       0.00343608       0.01991840
O        4.09192858       5.28457145       2.19428887       20       0.00917444      -0.00942934       0.03029904
O        2.26463701       2.98936114       1.78113200       21      -0.00917444      -0.03095441       0.00698347
O        2.26463701       6.78998095       0.41315687       22      -0.00917444       0.02152507       0.02331557
O       -2.46849363       6.33618991       3.76942563       23      -0.02335218      -0.02092924      -0.01038064
O        3.61836555       2.03213051       7.90833103       24      -0.01194822      -0.02899306       0.01038064
O        5.64677643      -1.84141927       4.01574548       25       0.02335218       0.02092924       0.01038064
O        6.79664834       3.37204576       1.69829668       26      -0.01194822       0.00550663      -0.03029904
O        3.88807196       2.34370872       4.30574242       27      -0.02335218       0.00147472       0.02331557
O        0.70978916       4.80441328       7.49517416       28      -0.02335218       0.01945452      -0.01293493
O        2.46849363      -0.30964264       0.28999694       29       0.02335218      -0.01945452       0.01293493
O       -3.61836555       1.12272488       6.08687443       30       0.01194822      -0.00550663       0.03029904
O        5.24180050       0.88418865       2.11145355       31      -0.02612596      -0.01896788      -0.00698347
O        0.91364578       1.50540951       6.00403910       32       0.00917444       0.03095441      -0.00698347
O        3.61836555      -0.90940563       5.96371450       33      -0.01194822       0.02348643       0.01991840
O        2.06351770      -0.02328142       3.60258861       34      -0.02612596       0.01553180      -0.01293493
O        0.91364578      -2.29521031       7.37201424       35       0.00917444      -0.02152507      -0.02331557
O       -0.70978917       2.15106192       3.47942868       36       0.02335218      -0.00147472      -0.02331557
O       -0.91364578      -0.78980081       5.59088223       37      -0.00917444       0.00942934      -0.03029904
O       -0.44008275       5.40417627       1.82145660       38       0.01194822      -0.02348643      -0.01991840
O        4.29304789       5.35567786       5.71404216       39       0.02612596      -0.00343608      -0.01991840
40
Lattice="9.534848390450946 7.473145173098041e-10 2.70286898569763e-14 -3.1782827975215566 8.989541272382231 -1.2944165131750926e-09 -3.178282796464718 -4.494770635443782 7.785171111114627" Properties=species:S:1:pos:R:3:spacegroup_kinds:I:1:forces:R:3 spacegroup="P 1" unit_cell=conventional occupancy="_JSON {\"0\": {\"In\": 1}, \"1\": {\"In\": 1}, \"2\": {\"In\": 1}, \"3\": {\"In\": 1}, \"4\": {\"In\": 1}, \"5\": {\"In\": 1}, \"6\": {\"In\": 1}, \"7\": {\"In\": 1}, \"8\": {\"In\": 1}, \"9\": {\"In\": 1}, \"10\": {\"In\": 1}, \"11\": {\"In\": 1}, \"12\": {\"In\": 1}, \"13\": {\"In\": 1}, \"14\": {\"In\": 1}, \"15\": {\"In\": 1}, \"16\": {\"O\": 1}, \"17\": {\"O\": 1}, \"18\": {\"O\": 1}, \"19\": {\"O\": 1}, \"20\": {\"O\": 1}, \"21\": {\"O\": 1}, \"22\": {\"O\": 1}, \"23\": {\"O\": 1}, \"24\": {\"O\": 1}, \"25\": {\"O\": 1}, \"26\": {\"O\": 1}, \"27\": {\"O\": 1}, \"28\": {\"O\": 1}, \"29\": {\"O\": 1}, \"30\": {\"O\": 1}, \"31\": {\"O\": 1}, \"32\": {\"O\": 1}, \"33\": {\"O\": 1}, \"34\": {\"O\": 1}, \"35\": {\"O\": 1}, \"36\": {\"O\": 1}, \"37\": {\"O\": 1}, \"38\": {\"O\": 1}, \"39\": {\"O\": 1}}" n_minim_iter=4 energy=-45143.695432740526 stress="0.10308121925017985 1.798654606758081e-13 1.0706904500341065e-13 1.798654606758081e-13 0.1030812192503732 -3.1596650338266536e-13 1.0706904500341065e-13 -3.1596650338266536e-13 0.10308121924985389" free_energy=-45143.695432740526 pbc="T T T"
In      -4.50903039       3.18836596       6.15534482        0      -0.00918526       0.00649496      -0.01124960
In       7.68731318       1.30640468       1.62982628        1       0.00918526      -0.00649496       0.01124960
In       1.33074759      -0.94098064       5.52241184        2       0.00918526      -0.00649496       0.01124960
In      -1.58914140      -2.24738532       3.89258555        3      -0.00000000       0.00000000      -0.00000000
In      -1.33074759       4.31205862       3.57611906        4      -0.00918526       0.00649496       0.01124960
In       5.02581800      -3.00565395       5.83887833        5      -0.00918526      -0.01298991       0.00000000
In      -1.33074759       1.48911669       5.83887833        6      -0.00918526      -0.01298991      -0.00000000
In      -1.84753521       7.50042459       1.94629277        7       0.00918526       0.01298991      -0.00000000
In       4.50903038       0.18271202       4.20905204        8       0.00918526      -0.00649496      -0.01124960
In      -1.58914140       4.49477064      -0.00000000        9      -0.00000000       0.00000000      -0.00000000
In       4.50903038       6.92486797       0.31646649       10       0.00918526      -0.00649496      -0.01124960
In      -1.33074759      -2.43009733       7.46870462       11      -0.00918526       0.00649496       0.01124960
In       4.50903038       3.00565395       1.94629277       12       0.00918526       0.01298991      -0.00000000
In       1.84753521       5.43575128       2.26275927       13      -0.00918526       0.00649496      -0.01124960
In       4.76742419       0.00000000      -0.00000000       14      -0.00000000       0.00000000      -0.00000000
In       1.58914140       2.24738532       3.89258555       15      -0.00000000      -0.00000000       0.00000000
O        1.11787323       4.51747826       4.18218846       16       0.01855948      -0.00672019       0.01798156
O       -2.06040956       3.61052764       5.67441150       17       0.01855948       0.01893258      -0.00317093
O       -0.43963893       2.46446974      -0.12572909       18       0.01770045       0.01954001      -0.00422302
O       -1.11787324      -0.86153537       2.07142885       19      -0.01855948       0.01221240       0.01481063
O        4.09084129       5.28371629       2.19715794       20       0.01166332      -0.01465056       0.01903365
O        2.26572430       2.98644887       1.78182594       21      -0.01166332      -0.02380891      -0.00317093
O        2.26572430       6.79203806       0.41533199       22      -0.01166332       0.00915835       0.02220458
O       -2.47007066       6.33516160       3.76685647       23      -0.01252235      -0.02320148      -0.00422302
O        3.61792172       2.03030090       7.91090019       24      -0.01770045      -0.01954001       0.00422302
O        5.64835346      -1.84039096       4.01831464       25       0.01252235       0.02320148       0.00422302
O        6.79620452       3.37073561       1.69542761       26      -0.01770045       0.00611276      -0.01903365
O        3.88649493       2.34199792       4.30791755       27      -0.01252235       0.00794350       0.02220458
O        0.70821213       4.80715240       7.49556820       28      -0.01252235       0.01525798      -0.01798156
O        2.47007066      -0.31238176       0.28960291       29       0.01252235      -0.01525798       0.01798156
O       -3.61792173       1.12403503       6.08974349       30       0.01770045      -0.00611276       0.01903365
O        5.23869236       0.88424300       2.11075960       31      -0.01855948      -0.01893258       0.00317093
O        0.91255850       1.50832177       6.00334516       32       0.01166332       0.02380891       0.00317093
O        3.61792172      -0.90626586       5.96401441       33      -0.01770045       0.01342725       0.01481063
O        2.06040956      -0.02270762       3.60298264       34      -0.01855948       0.00672019      -0.01798156
O        0.91255850      -2.29726742       7.36983911       35       0.01166332      -0.00915835      -0.02220458
O       -0.70821214       2.15277272       3.47725356       36       0.01252235      -0.00794350      -0.02220458
O       -0.91255850      -0.78894565       5.58801317       37      -0.01166332       0.01465056      -0.01903365
O       -0.43963893       5.40103651       1.82115670       38       0.01770045      -0.01342725      -0.01481063
O        4.29615603       5.35630601       5.71374225       39       0.01855948      -0.01221240      -0.01481063
40
Lattice="9.534848390450948 7.473145173098043e-10 2.702868985697631e-14 -3.1782827975215575 8.989541272382233 -1.294416513175093e-09 -3.178282796464719 -4.494770635443783 7.78517111111463" Properties=species:S:1:pos:R:3:spacegroup_kinds:I:1:forces:R:3 spacegroup="P 1" unit_cell=conventional occupancy="_JSON {\"0\": {\"In\": 1}, \"1\": {\"In\": 1}, \"2\": {\"In\": 1}, \"3\": {\"In\": 1}, \"4\": {\"In\": 1}, \"5\": {\"In\": 1}, \"6\": {\"In\": 1}, \"7\": {\"In\": 1}, \"8\": {\"In\": 1}, \"9\": {\"In\": 1}, \"10\": {\"In\": 1}, \"11\": {\"In\": 1}, \"12\": {\"In\": 1}, \"13\": {\"In\": 1}, \"14\": {\"In\": 1}, \"15\": {\"In\": 1}, \"16\": {\"O\": 1}, \"17\": {\"O\": 1}, \"18\": {\"O\": 1}, \"19\": {\"O\": 1}, \"20\": {\"O\": 1}, \"21\": {\"O\": 1}, \"22\": {\"O\": 1}, \"23\": {\"O\": 1}, \"24\": {\"O\": 1}, \"25\": {\"O\": 1}, \"26\": {\"O\": 1}, \"27\": {\"O\": 1}, \"28\": {\"O\": 1}, \"29\": {\"O\": 1}, \"30\": {\"O\": 1}, \"31\": {\"O\": 1}, \"32\": {\"O\": 1}, \"33\": {\"O\": 1}, \"34\": {\"O\": 1}, \"35\": {\"O\": 1}, \"36\": {\"O\": 1}, \"37\": {\"O\": 1}, \"38\": {\"O\": 1}, \"39\": {\"O\": 1}}" n_minim_iter=5 energy=-45143.69659794072 stress="0.10289110377998228 -3.682285768436493e-13 3.080187154549861e-13 -3.682285768436493e-13 0.10289110378056193 -3.3477722636675827e-13 3.080187154549861e-13 -3.3477722636675827e-13 0.10289110378008151" free_energy=-45143.69659794072 pbc="T T T"
In      -4.50859354       3.18805707       6.15587985        0      -0.01215902       0.00859772      -0.01489169
In       7.68687633       1.30671357       1.62929125        1       0.01215902      -0.00859772       0.01489169
In       1.33031074      -0.94067174       5.52187681        2       0.01215902      -0.00859772       0.01489169
In      -1.58914140      -2.24738532       3.89258555        3      -0.00000000       0.00000000       0.00000000
In      -1.33031074       4.31174973       3.57558403        4      -0.01215902       0.00859772       0.01489169
In       5.02625485      -3.00503615       5.83887833        5      -0.01215902      -0.01719545       0.00000000
In      -1.33031074       1.48973449       5.83887833        6      -0.01215902      -0.01719545       0.00000000
In      -1.84797206       7.49980679       1.94629277        7       0.01215902       0.01719545      -0.00000000
In       4.50859354       0.18302092       4.20958707        8       0.01215902      -0.00859772      -0.01489169
In      -1.58914140       4.49477064      -0.00000000        9       0.00000000       0.00000000      -0.00000000
In       4.50859354       6.92517687       0.31700152       10       0.01215902      -0.00859772      -0.01489169
In      -1.33031074      -2.43040623       7.46816959       11      -0.01215902       0.00859772       0.01489169
In       4.50859354       3.00503615       1.94629277       12       0.01215902       0.01719545      -0.00000000
In       1.84797205       5.43544238       2.26329429       13      -0.01215902       0.00859772      -0.01489169
In       4.76742419       0.00000000      -0.00000000       14      -0.00000000      -0.00000000       0.00000000
In       1.58914140       2.24738532       3.89258555       15      -0.00000000       0.00000000      -0.00000000
O        1.12102710       4.51630768       4.18305234       16       0.01110770       0.01207282       0.00955050
O       -2.05725569       3.61186108       5.67499331       17       0.01110770       0.00223457      -0.01523062
O       -0.43843410       2.46718135      -0.12753436       18       0.01719170      -0.00206747      -0.00777927
O       -1.12102711      -0.86137252       2.07287455       19      -0.01110770       0.01430739      -0.00568012
O        4.09104717       5.28251117       2.20040890       20      -0.00159580      -0.01879875       0.00209916
O        2.26551842       2.98303089       1.78240776       21       0.00159580      -0.01121730      -0.01523062
O        2.26551842       6.79425091       0.41800114       22       0.00159580      -0.00758145       0.01732978
O       -2.47222559       6.33312181       3.76505120       23       0.00767980      -0.01551934      -0.00777927
O        3.61671690       2.02758929       7.91270546       24      -0.01719170       0.00206747       0.00777927
O        5.65050838      -1.83835117       4.02011991       25      -0.00767980       0.01551934       0.00777927
O        6.79499969       3.37052801       1.69217665       26      -0.01719170      -0.00777078      -0.00209916
O        3.88434001       2.34145441       4.31058669       27       0.00767980       0.00102262       0.01732978
O        0.70605721       4.80973570       7.49470432       28       0.00767980       0.01449672      -0.00955050
O        2.47222558      -0.31496506       0.29046679       29      -0.00767980      -0.01449672       0.00955050
O       -3.61671690       1.12424263       6.09299446       30       0.01719170       0.00777078       0.00209916
O        5.23553849       0.88290956       2.11017779       31      -0.01110770      -0.00223457       0.01523062
O        0.91276438       1.51173975       6.00276335       32      -0.00159580       0.01121730       0.01523062
O        3.61671690      -0.90334665       5.96546010       33      -0.01719170       0.00570332      -0.00568012
O        2.05725569      -0.02153703       3.60211876       34      -0.01110770      -0.01207282      -0.00955050
O        0.91276438      -2.29948027       7.36716997       35      -0.00159580       0.00758145      -0.01732978
O       -0.70605721       2.15331623       3.47458441       36      -0.00767980      -0.00102262      -0.01732978
O       -0.91276438      -0.78774053       5.58476220       37       0.00159580       0.01879875      -0.00209916
O       -0.43843410       5.39811729       1.81971100       38       0.01719170      -0.00570332       0.00568012
O        4.29930990       5.35614316       5.71229656       39       0.01110770      -0.01430739       0.00568012
40