40
Lattice="9.33614760097502 7.317400691041023e-10 1.5710751246149222e-14 -3.1120492010148992 8.802204371500022 -1.267439210235969e-09 -3.1120491999800786 -4.401102185018251 7.62293259586641" Properties=species:S:1:pos:R:3:spacegroup_kinds:I:1:forces:R:3 spacegroup="P 1" unit_cell=conventional occupancy="_JSON {\"0\": {\"In\": 1}, \"1\": {\"In\": 1}, \"2\": {\"In\": 1}, \"3\": {\"In\": 1}, \"4\": {\"In\": 1}, \"5\": {\"In\": 1}, \"6\": {\"In\": 1}, \"7\": {\"In\": 1}, \"8\": {\"In\": 1}, \"9\": {\"In\": 1}, \"10\": {\"In\": 1}, \"11\": {\"In\": 1}, \"12\": {\"In\": 1}, \"13\": {\"In\": 1}, \"14\": {\"In\": 1}, \"15\": {\"In\": 1}, \"16\": {\"O\": 1}, \"17\": {\"O\": 1}, \"18\": {\"O\": 1}, \"19\": {\"O\": 1}, \"20\": {\"O\": 1}, \"21\": {\"O\": 1}, \"22\": {\"O\": 1}, \"23\": {\"O\": 1}, \"24\": {\"O\": 1}, \"25\": {\"O\": 1}, \"26\": {\"O\": 1}, \"27\": {\"O\": 1}, \"28\": {\"O\": 1}, \"29\": {\"O\": 1}, \"30\": {\"O\": 1}, \"31\": {\"O\": 1}, \"32\": {\"O\": 1}, \"33\": {\"O\": 1}, \"34\": {\"O\": 1}, \"35\": {\"O\": 1}, \"36\": {\"O\": 1}, \"37\": {\"O\": 1}, \"38\": {\"O\": 1}, \"39\": {\"O\": 1}}" n_minim_iter=7 energy=-45147.63473893537 stress="0.08899726730567256 6.034984755411678e-13 -2.774327907673025e-13 6.034984755411678e-13 0.0889972673058095 3.926637769955282e-13 -2.774327907673025e-13 3.926637769955282e-13 0.08899726730648731" free_energy=-45147.63473893537 pbc="T T T"
In      -4.42848957       3.13141501       6.01062900        0      -0.00422417       0.00298694      -0.00517353
In       7.54053877       1.26968718       1.61230359        1       0.00422417      -0.00298694       0.00517353
In       1.31644037      -0.93086391       5.42376989        2       0.00422417      -0.00298694       0.00517353
In      -1.55602460      -2.20055109       3.81146630        3      -0.00000000       0.00000000      -0.00000000
In      -1.31644037       4.23169055       3.51803674        4      -0.00422417       0.00298694       0.00517353
In       4.90765803      -2.96200337       5.71719944        5      -0.00422417      -0.00597388       0.00000000
In      -1.31644037       1.43909882       5.71719944        6      -0.00422417      -0.00597388       0.00000000
In      -1.79560883       7.36310556       1.90573315        7       0.00422417       0.00597388      -0.00000000
In       4.42848957       0.16941164       4.10489585        8       0.00422417      -0.00298694      -0.00517353
In      -1.55602460       4.40110219      -0.00000000        9      -0.00000000       0.00000000       0.00000000
In       4.42848957       6.77106492       0.29342956       10       0.00422417      -0.00298694      -0.00517353
In      -1.31644037      -2.36996273       7.32950303       11      -0.00422417       0.00298694       0.00517353
In       4.42848957       2.96200337       1.90573315       12       0.00422417       0.00597388      -0.00000000
In       1.79560883       5.33196610       2.19916270       13      -0.00422417       0.00298694      -0.00517353
In       4.66807380       0.00000000      -0.00000000       14       0.00000000      -0.00000000       0.00000000
In       1.55602460       2.20055110       3.81146629       15       0.00000000      -0.00000000      -0.00000000
O        1.01545471       4.41698466       4.11709589       16      -0.00021766      -0.00298912      -0.00171270
O       -2.09659449       3.55756840       5.55063003       17      -0.00021766       0.00001132       0.00344500
O       -0.44183225       2.38747480      -0.04564100       18      -0.00288005       0.00189391       0.00018425
O       -1.01545472      -0.82765132       2.04479332       19       0.00021766      -0.00297780       0.00173230
O        4.05297248       5.20240267       2.09043432       20       0.00008322       0.00308418       0.00154805
O        2.17112592       2.99138320       1.73916373       21      -0.00008322       0.00020144       0.00344500
O        2.17112592       6.61212166       0.35127059       22      -0.00008322       0.00288274      -0.00189695
O       -2.39821024       6.22239178       3.76582530       23      -0.00274561       0.00208404       0.00018425
O        3.55388144       2.01362739       7.66857359       24       0.00288005      -0.00189391      -0.00018425
O        5.51025944      -1.82128959       3.85710729       25       0.00274561      -0.00208404      -0.00018425
O        6.66593064       3.35476223       1.72103197       26       0.00288005       0.00110652      -0.00154805
O        3.82588816       2.35065558       4.16273688       27      -0.00274561      -0.00088245      -0.00189695
O        0.71383896       4.63025920       7.31730300       28      -0.00274561      -0.00120159       0.00171270
O        2.39821024      -0.22915701       0.30562959       29       0.00274561       0.00120159      -0.00171270
O       -3.55388145       1.04633996       5.90190062       30      -0.00288005      -0.00110652       0.00154805
O        5.20864368       0.84353379       2.07230256       31       0.00021766      -0.00001132      -0.00344500
O        0.94092328       1.40971899       5.88376886       32       0.00008322      -0.00020144      -0.00344500
O        3.55388144      -0.96728743       5.85625962       33       0.00288005       0.00078739       0.00173230
O        2.09659448      -0.01588247       3.50583670       34       0.00021766       0.00298912       0.00171270
O        0.94092328      -2.21101947       7.27166200       35       0.00008322      -0.00288274       0.00189695
O       -0.71383896       2.05044661       3.46019570       36       0.00274561       0.00088245       0.00189695
O       -0.94092328      -0.80130048       5.53249827       37      -0.00008322      -0.00308418      -0.00154805
O       -0.44183225       5.36838962       1.76667297       38      -0.00288005      -0.00078739      -0.00173230
O        4.12750391       5.22875351       5.57813927       39      -0.00021766       0.00297780      -0.00173230
