40
Lattice="9.267998108611128 7.26399480965316e-10 1.7140347604161794e-14 -3.0893327035552316 8.737952413921896 -1.2581849325206285e-09 -3.089332702527964 -4.3689762062345325 7.567288768354704" Properties=species:S:1:pos:R:3:spacegroup_kinds:I:1:forces:R:3 spacegroup="P 1" unit_cell=conventional occupancy="_JSON {\"0\": {\"In\": 1}, \"1\": {\"In\": 1}, \"2\": {\"In\": 1}, \"3\": {\"In\": 1}, \"4\": {\"In\": 1}, \"5\": {\"In\": 1}, \"6\": {\"In\": 1}, \"7\": {\"In\": 1}, \"8\": {\"In\": 1}, \"9\": {\"In\": 1}, \"10\": {\"In\": 1}, \"11\": {\"In\": 1}, \"12\": {\"In\": 1}, \"13\": {\"In\": 1}, \"14\": {\"In\": 1}, \"15\": {\"In\": 1}, \"16\": {\"O\": 1}, \"17\": {\"O\": 1}, \"18\": {\"O\": 1}, \"19\": {\"O\": 1}, \"20\": {\"O\": 1}, \"21\": {\"O\": 1}, \"22\": {\"O\": 1}, \"23\": {\"O\": 1}, \"24\": {\"O\": 1}, \"25\": {\"O\": 1}, \"26\": {\"O\": 1}, \"27\": {\"O\": 1}, \"28\": {\"O\": 1}, \"29\": {\"O\": 1}, \"30\": {\"O\": 1}, \"31\": {\"O\": 1}, \"32\": {\"O\": 1}, \"33\": {\"O\": 1}, \"34\": {\"O\": 1}, \"35\": {\"O\": 1}, \"36\": {\"O\": 1}, \"37\": {\"O\": 1}, \"38\": {\"O\": 1}, \"39\": {\"O\": 1}}" n_minim_iter=5 energy=-45148.79243580456 stress="0.08059195418912772 -1.2166588844991241e-15 -3.1549296890763925e-13 -1.2166588844991241e-15 0.08059195418904244 4.2501450651696386e-13 -3.1549296890763925e-13 4.2501450651696386e-13 0.08059195418891195" free_energy=-45148.79243580456 pbc="T T T"
In      -4.40223084       3.11284728       5.95932350        0       0.00263177      -0.00186094       0.00322325
In       7.49156354       1.25612893       1.60796526        1      -0.00263177       0.00186094      -0.00322325
In       1.31289814      -0.92835917       5.39160964        2      -0.00263177       0.00186094      -0.00322325
In      -1.54466635      -2.18448810       3.78364438        3       0.00000000      -0.00000000       0.00000000
In      -1.31289814       4.20509133       3.49978745        4       0.00263177      -0.00186094      -0.00322325
In       4.86576727      -2.94896240       5.67546657        5       0.00263177       0.00372189      -0.00000000
In      -1.31289814       1.42001381       5.67546657        6       0.00263177       0.00372189       0.00000000
In      -1.77643457       7.31793861       1.89182219        7      -0.00263177      -0.00372189      -0.00000000
In       4.40223084       0.16388488       4.06750131        8      -0.00263177       0.00186094       0.00322325
In      -1.54466635       4.36897621      -0.00000000        9       0.00000000       0.00000000       0.00000000
In       4.40223084       6.71734919       0.28385693       10      -0.00263177       0.00186094       0.00322325
In      -1.31289814      -2.34837298       7.28343183       11       0.00263177      -0.00186094      -0.00322325
In       4.40223084       2.94896241       1.89182219       12      -0.00263177      -0.00372189       0.00000000
In       1.77643456       5.29733538       2.17567912       13       0.00263177      -0.00186094       0.00322325
In       4.63399905       0.00000000      -0.00000000       14       0.00000000       0.00000000      -0.00000000
In       1.54466635       2.18448811       3.78364438       15      -0.00000000       0.00000000       0.00000000
O        0.98374718       4.38184685       4.09375016       16       0.00142046      -0.00639671      -0.00179541
O       -2.10558552       3.53885632       5.50926738       17       0.00142046       0.00164348       0.00643742
O       -0.44259426       2.36294392      -0.02128137       18      -0.00400790       0.00548191      -0.00021094
O       -0.98374719      -0.81724925       2.03572878       19      -0.00142046      -0.00475323       0.00464201
O        4.03832757       5.17393866       2.05701014       20       0.00107600       0.00463144       0.00485295
O        2.14033783       2.99003440       1.72562300       21      -0.00107600      -0.00188705       0.00643742
O        2.14033783       6.55288047       0.33138713       22      -0.00107600       0.00651850      -0.00158448
O       -2.37533631       6.18309821       3.76236302       23      -0.00650437       0.00195138      -0.00021094
O        3.53192696       2.00603229       7.58857013       24       0.00400790      -0.00548191       0.00021094
O        5.46466901      -1.81412199       3.80492574       25       0.00650437      -0.00195138       0.00021094
O        6.62125966       3.34752986       1.72663424       26       0.00400790       0.00255828      -0.00485295
O        3.80332910       2.35124096       4.11503152       27      -0.00650437      -0.00115837      -0.00158448
O        0.71399639       4.57258946       7.25718299       28      -0.00650437      -0.00079301       0.00179541
O        2.37533631      -0.20361325       0.31010577       29       0.00650437       0.00079301      -0.00179541
O       -3.53192696       1.02144635       5.84065452       30      -0.00400790      -0.00255828       0.00485295
O        5.19491822       0.83011989       2.05802138       31      -0.00142046      -0.00164348      -0.00643742
O        0.94899486       1.37894181       5.84166576       32       0.00107600       0.00188705      -0.00643742
O        3.53192696      -0.98458594       5.81937316       33       0.00400790       0.00292364       0.00464201
O        2.10558552      -0.01287064       3.47353861       34      -0.00142046       0.00639671       0.00179541
O        0.94899487      -2.18390426       7.23590163       35       0.00107600      -0.00651850       0.00158448
O       -0.71399640       2.01773525       3.45225724       36       0.00650437       0.00115837       0.00158448
O       -0.94899487      -0.80496245       5.51027862       37      -0.00107600      -0.00463144      -0.00485295
O       -0.44259426       5.35356215       1.74791560       38      -0.00400790      -0.00292364      -0.00464201
O        4.07307989       5.18622546       5.53155999       39       0.00142046       0.00475323      -0.00464201
