40
Lattice="8.185320011718776 6.415447095061061e-10 1.6130515729079147e-14 -2.7284400045111155 7.717193715077224 -1.1112000858951078e-09 -2.7284400036038474 -3.858596856897061 6.683285803923276" Properties=species:S:1:pos:R:3:spacegroup_kinds:I:1:forces:R:3 spacegroup="P 1" unit_cell=conventional occupancy="_JSON {\"0\": {\"In\": 1}, \"1\": {\"In\": 1}, \"2\": {\"In\": 1}, \"3\": {\"In\": 1}, \"4\": {\"In\": 1}, \"5\": {\"In\": 1}, \"6\": {\"In\": 1}, \"7\": {\"In\": 1}, \"8\": {\"In\": 1}, \"9\": {\"In\": 1}, \"10\": {\"In\": 1}, \"11\": {\"In\": 1}, \"12\": {\"In\": 1}, \"13\": {\"In\": 1}, \"14\": {\"In\": 1}, \"15\": {\"In\": 1}, \"16\": {\"O\": 1}, \"17\": {\"O\": 1}, \"18\": {\"O\": 1}, \"19\": {\"O\": 1}, \"20\": {\"O\": 1}, \"21\": {\"O\": 1}, \"22\": {\"O\": 1}, \"23\": {\"O\": 1}, \"24\": {\"O\": 1}, \"25\": {\"O\": 1}, \"26\": {\"O\": 1}, \"27\": {\"O\": 1}, \"28\": {\"O\": 1}, \"29\": {\"O\": 1}, \"30\": {\"O\": 1}, \"31\": {\"O\": 1}, \"32\": {\"O\": 1}, \"33\": {\"O\": 1}, \"34\": {\"O\": 1}, \"35\": {\"O\": 1}, \"36\": {\"O\": 1}, \"37\": {\"O\": 1}, \"38\": {\"O\": 1}, \"39\": {\"O\": 1}}" n_minim_iter=6 energy=-45137.2636521757 stress="-0.3319652685641858 2.4656296799789164e-13 6.095830757793655e-13 2.4656296799789164e-13 -0.33196526856366776 3.164924335963811e-13 6.095830757793655e-13 3.164924335963811e-13 -0.3319652685637709" free_energy=-45137.2636521757 pbc="T T T"
In      -3.89497249       2.75416146       5.25458113        0      -0.00000360       0.00000254      -0.00000441
In       6.62341249       1.10443540       1.42870467        1       0.00000360      -0.00000254       0.00000441
In       1.16653248      -0.82486303       4.77034757        2       0.00000360      -0.00000254       0.00000441
In      -1.36422000      -1.92929843       3.34164290        3      -0.00000000       0.00000000      -0.00000000
In      -1.16653248       3.71881067       3.09952612        4      -0.00000360       0.00000254       0.00000441
In       4.29034753      -2.61437527       5.01246435        5      -0.00000360      -0.00000509      -0.00000000
In      -1.16653248       1.24422159       5.01246435        6      -0.00000360      -0.00000509       0.00000000
In      -1.56190753       6.47297213       1.67082145        7       0.00000360       0.00000509      -0.00000000
In       3.89497248       0.13978619       3.58375968        8       0.00000360      -0.00000254      -0.00000441
In      -1.36422000       3.85859686      -0.00000000        9      -0.00000000       0.00000000      -0.00000000
In       3.89497248       5.92768148       0.24211678       10       0.00000360      -0.00000254      -0.00000441
In      -1.16653248      -2.06908461       6.44116902       11      -0.00000360       0.00000254       0.00000441
In       3.89497248       2.61437527       1.67082145       12       0.00000360       0.00000509      -0.00000000
In       1.56190752       4.68345989       1.91293823       13      -0.00000360       0.00000254      -0.00000441
In       4.09266000       0.00000000      -0.00000000       14       0.00000000      -0.00000000      -0.00000000
In       1.36422000       1.92929843       3.34164290       15       0.00000000       0.00000000      -0.00000000
O        0.77447411       3.84824874       3.68749469       16       0.00000754       0.00003981      -0.00002092
O       -1.95396589       3.19863814       4.84850019       17       0.00000754      -0.00003802      -0.00002402
O       -0.37381331       2.08130154       0.10049815       18       0.00000420      -0.00003566      -0.00002811
O       -0.77447412      -0.67030684       1.85270908       19      -0.00000754       0.00000179      -0.00004494
O        3.66702692       4.58692633       1.75221092       20      -0.00003836      -0.00001802      -0.00001683
O        1.78985308       2.70530242       1.50685729       21       0.00003836       0.00000556      -0.00002402
O        1.78985308       5.74022077       0.24535363       22       0.00003836      -0.00002358       0.00000719
O       -2.08687434       5.44656268       3.44214105       23       0.00003502       0.00000793      -0.00002811
O        3.10225331       1.77729532       6.58278765       24      -0.00000420       0.00003566       0.00002811
O        4.81531435      -1.58796582       3.24114474       25      -0.00003502      -0.00000793       0.00002811
O        5.83069332       3.05698315       1.58943197       26      -0.00000420      -0.00004218       0.00001683
O        3.37000566       2.18699869       3.58699653       27       0.00003502      -0.00002831       0.00000719
O        0.64156566       3.94222921       6.33743401       28       0.00003502       0.00002038       0.00002092
O        2.08687434      -0.08363235       0.34585179       29      -0.00003502      -0.00002038      -0.00002092
O       -3.10225331       0.80161371       5.09385382       30       0.00000420       0.00004218      -0.00001683
O        4.68240589       0.65995872       1.83478561       31      -0.00000754       0.00003802       0.00002402
O        0.93858692       1.15329444       5.17642851       32      -0.00003836      -0.00000556       0.00002402
O        3.10225331      -0.97568161       5.19435198       33      -0.00000420       0.00000652      -0.00004494
O        1.95396589       0.01034812       2.99579111       34      -0.00000754      -0.00003981       0.00002092
O        0.93858692      -1.88162391       6.43793217       35      -0.00003836       0.00002358      -0.00000719
O       -0.64156566       1.67159817       3.09628926       36      -0.00003502       0.00002831      -0.00000719
O       -0.93858692      -0.72832947       4.93107488       37       0.00003836       0.00001802       0.00001683
O       -0.37381331       4.83427848       1.48893382       38       0.00000420      -0.00000652       0.00004494
O        3.50291412       4.52890370       4.83057672       39       0.00000754      -0.00000179       0.00004494
