40
Lattice="8.603647306174764 6.743343579318826e-10 2.7766434996714002e-15 -2.8678824360273563 8.111596470619952 -1.1679801166608568e-09 -2.867882435073709 -4.0557982346356445 7.0248486095837315" Properties=species:S:1:pos:R:3:spacegroup_kinds:I:1:forces:R:3 spacegroup="P 1" unit_cell=conventional occupancy="_JSON {\"0\": {\"In\": 1}, \"1\": {\"In\": 1}, \"2\": {\"In\": 1}, \"3\": {\"In\": 1}, \"4\": {\"In\": 1}, \"5\": {\"In\": 1}, \"6\": {\"In\": 1}, \"7\": {\"In\": 1}, \"8\": {\"In\": 1}, \"9\": {\"In\": 1}, \"10\": {\"In\": 1}, \"11\": {\"In\": 1}, \"12\": {\"In\": 1}, \"13\": {\"In\": 1}, \"14\": {\"In\": 1}, \"15\": {\"In\": 1}, \"16\": {\"O\": 1}, \"17\": {\"O\": 1}, \"18\": {\"O\": 1}, \"19\": {\"O\": 1}, \"20\": {\"O\": 1}, \"21\": {\"O\": 1}, \"22\": {\"O\": 1}, \"23\": {\"O\": 1}, \"24\": {\"O\": 1}, \"25\": {\"O\": 1}, \"26\": {\"O\": 1}, \"27\": {\"O\": 1}, \"28\": {\"O\": 1}, \"29\": {\"O\": 1}, \"30\": {\"O\": 1}, \"31\": {\"O\": 1}, \"32\": {\"O\": 1}, \"33\": {\"O\": 1}, \"34\": {\"O\": 1}, \"35\": {\"O\": 1}, \"36\": {\"O\": 1}, \"37\": {\"O\": 1}, \"38\": {\"O\": 1}, \"39\": {\"O\": 1}}" n_minim_iter=4 energy=-45150.38668139733 stress="-0.07993032767277797 2.3120454247997445e-13 -7.743126671156658e-13 2.3120454247997445e-13 -0.07993032767318602 -3.928393726671319e-13 -7.743126671156658e-13 -3.928393726671319e-13 -0.07993032767338906" free_energy=-45150.38668139733 pbc="T T T"
In      -4.10370263       2.90175596       5.51128417        0      -0.00021001       0.00014850      -0.00025721
In       6.97158506       1.15404228       1.51356444        1       0.00021002      -0.00014850       0.00025721
In       1.23582019      -0.87385683       5.02598874        2       0.00021002      -0.00014850       0.00025721
In      -1.43394122      -2.02789912       3.51242430        3      -0.00000000       0.00000000       0.00000000
In      -1.23582019       3.91570552       3.26977659        4      -0.00021002       0.00014850       0.00025721
In       4.49994468      -2.76166323       5.26863645        5      -0.00021002      -0.00029701       0.00000000
In      -1.23582019       1.29413500       5.26863645        6      -0.00021002      -0.00029701       0.00000000
In      -1.63206225       6.81746147       1.75621215        7       0.00021002       0.00029701      -0.00000000
In       4.10370262       0.14009272       3.75507201        8       0.00021002      -0.00014850      -0.00025721
In      -1.43394122       4.05579824      -0.00000000        9       0.00000000       0.00000000      -0.00000000
In       4.10370262       6.22379008       0.24264771       10       0.00021002      -0.00014850      -0.00025721
In      -1.23582019      -2.16799184       6.78220090       11      -0.00021002       0.00014850       0.00025721
In       4.10370262       2.76166324       1.75621215       12       0.00021002       0.00029701      -0.00000000
In       1.63206224       4.92965507       1.99885986       13      -0.00021002       0.00014850      -0.00025721
In       4.30182365       0.00000000      -0.00000000       14       0.00000000       0.00000000       0.00000000
In       1.43394122       2.02789912       3.51242430       15      -0.00000000      -0.00000000       0.00000000
O        0.82862355       4.05091405       3.84461972       16      -0.00266723       0.00407235      -0.00062515
O       -2.03925888       3.33198044       5.10676858       17      -0.00266723      -0.00257757      -0.00321418
O       -0.41081897       2.18049953       0.07634340       18       0.00052021      -0.00483144       0.00068963
O       -0.82862355      -0.72870198       1.92653969       19       0.00266723       0.00149478      -0.00383934
O        3.82117424       4.82857711       1.85019628       20      -0.00154108      -0.00109662      -0.00452896
O        1.91459062       2.83987069       1.59434427       21       0.00154108       0.00337388      -0.00321418
O        1.91459062       6.04450466       0.25585201       22       0.00154108      -0.00447051      -0.00131478
O       -2.19273433       5.74418801       3.58876771       23       0.00472853       0.00112002       0.00068963
O        3.27870140       1.87529871       6.94850520       24      -0.00052021       0.00483144      -0.00068963
O        5.06061676      -1.68838978       3.43608090       25      -0.00472853      -0.00112002      -0.00068962
O        6.14658384       3.18426421       1.66222802       26      -0.00052021      -0.00181849       0.00452896
O        3.54303054       2.26376912       3.76827631       27       0.00472853       0.00003722      -0.00131478
O        0.67514810       4.15943758       6.69265319       28       0.00472853      -0.00115724       0.00062515
O        2.19273433      -0.10363934       0.33219541       29      -0.00472853       0.00115724      -0.00062515
O       -3.27870140       0.87153403       5.36262059       30       0.00052021       0.00181849      -0.00452896
O        4.90714132       0.72381780       1.91808003       31       0.00266723       0.00257757       0.00321418
O        0.95329181       1.21592755       5.43050433       32      -0.00154108      -0.00337388       0.00321418
O        3.27870140      -1.00376468       5.43896399       33      -0.00052021      -0.00301295      -0.00383934
O        2.03925888       0.00488419       3.18022889       34       0.00266723      -0.00407235       0.00062515
O        0.95329181      -1.98870642       6.76899660       35      -0.00154108       0.00447051       0.00131478
O       -0.67514811       1.79202912       3.25657229       36      -0.00472853      -0.00003722       0.00131478
O       -0.95329181      -0.77277887       5.17465232       37       0.00154108       0.00109662       0.00452896
O       -0.41081897       5.05956292       1.58588461       38       0.00052021       0.00301295       0.00383934
O        3.69650599       4.78450022       5.09830892       39      -0.00266723      -0.00149478       0.00383934
