40
Lattice="9.057288372867905 7.098872947219627e-10 -3.4310132259939453e-15 -3.0190961249585895 8.539293369919315 -1.2295613063605677e-09 -3.019096123954656 -4.2696466842497705 7.395244989537879" Properties=species:S:1:pos:R:3:spacegroup_kinds:I:1:forces:R:3 spacegroup="P 1" unit_cell=conventional occupancy="_JSON {\"0\": {\"In\": 1}, \"1\": {\"In\": 1}, \"2\": {\"In\": 1}, \"3\": {\"In\": 1}, \"4\": {\"In\": 1}, \"5\": {\"In\": 1}, \"6\": {\"In\": 1}, \"7\": {\"In\": 1}, \"8\": {\"In\": 1}, \"9\": {\"In\": 1}, \"10\": {\"In\": 1}, \"11\": {\"In\": 1}, \"12\": {\"In\": 1}, \"13\": {\"In\": 1}, \"14\": {\"In\": 1}, \"15\": {\"In\": 1}, \"16\": {\"O\": 1}, \"17\": {\"O\": 1}, \"18\": {\"O\": 1}, \"19\": {\"O\": 1}, \"20\": {\"O\": 1}, \"21\": {\"O\": 1}, \"22\": {\"O\": 1}, \"23\": {\"O\": 1}, \"24\": {\"O\": 1}, \"25\": {\"O\": 1}, \"26\": {\"O\": 1}, \"27\": {\"O\": 1}, \"28\": {\"O\": 1}, \"29\": {\"O\": 1}, \"30\": {\"O\": 1}, \"31\": {\"O\": 1}, \"32\": {\"O\": 1}, \"33\": {\"O\": 1}, \"34\": {\"O\": 1}, \"35\": {\"O\": 1}, \"36\": {\"O\": 1}, \"37\": {\"O\": 1}, \"38\": {\"O\": 1}, \"39\": {\"O\": 1}}" n_minim_iter=7 energy=-45151.766681922316 stress="0.020917476466758143 -1.1351953886603504e-14 -1.310216028174937e-13 -1.1351953886603504e-14 0.02091747646634084 -2.321343435067844e-13 -1.310216028174937e-13 -2.321343435067844e-13 0.02091747646653724" free_energy=-45151.766681922316 pbc="T T T"
In      -4.32303781       3.05684935       5.79824909        0       0.00451890      -0.00319535       0.00553450
In       7.34213394       1.21279733       1.59699589        1      -0.00451890       0.00319535      -0.00553450
In       1.30394169      -0.92202601       5.29461839        2      -0.00451890       0.00319535      -0.00553450
In      -1.50954806      -2.13482334       3.69762249        3       0.00000000      -0.00000000       0.00000000
In      -1.30394169       4.12426103       3.44580714        4       0.00451890      -0.00319535      -0.00553450
In       4.73425056      -2.91146369       5.54643374        5       0.00451890       0.00639069       0.00000000
In      -1.30394169       1.35818300       5.54643374        6       0.00451890       0.00639069      -0.00000000
In      -1.71515444       7.18111038       1.84881124        7      -0.00451890      -0.00639069       0.00000000
In       4.32303781       0.14538566       3.94943784        8      -0.00451890       0.00319535       0.00553450
In      -1.50954806       4.26964669      -0.00000000        9      -0.00000000      -0.00000000       0.00000000
In       4.32303781       6.54985569       0.25181535       10      -0.00451890       0.00319535       0.00553450
In      -1.30394169      -2.28020900       7.14342964       11       0.00451890      -0.00319535      -0.00553450
In       4.32303781       2.91146369       1.84881124       12      -0.00451890      -0.00639069      -0.00000000
In       1.71515443       5.19167270       2.10062660       13       0.00451890      -0.00319535       0.00553450
In       4.52864418       0.00000000      -0.00000000       14       0.00000000       0.00000000       0.00000000
In       1.50954806       2.13482334       3.69762249       15       0.00000000      -0.00000000      -0.00000000
O        0.89795263       4.27189707       4.01831044       16       0.00091048       0.00581789       0.00485906
O       -2.12114349       3.47883374       5.38414088       17       0.00091048       0.00129913      -0.00746797
O       -0.44414638       2.29301770       0.04278951       18       0.00701348      -0.00301634       0.00000665
O       -0.89795263      -0.78856257       2.00720633       19      -0.00091048       0.00711701      -0.00260891
O        3.98692373       5.08291379       1.96441683       20       0.00092134      -0.00711318      -0.00261555
O        2.05126852       2.97504536       1.68651839       21      -0.00092134      -0.00129145      -0.00746797
O        2.05126852       6.37751512       0.27789844       22      -0.00092134      -0.00582172       0.00485242
O       -2.30992662       6.05887602       3.74041200       23       0.00518166      -0.00560693       0.00000665
O        3.46324250       1.97662898       7.35245548       24      -0.00701348       0.00301634      -0.00000665
O        5.32902274      -1.78922933       3.65483298       25      -0.00518166       0.00560693      -0.00000665
O        6.48233863       3.31838900       1.73320566       26      -0.00701348      -0.00150242       0.00261555
O        3.72826563       2.34467715       3.97552093       27       0.00518166       0.00280922       0.00485242
O        0.70916951       4.40538689       7.07455704       28       0.00518166       0.00279771      -0.00485906
O        2.30992661      -0.13574020       0.32068795       29      -0.00518166      -0.00279771       0.00485906
O       -3.46324250       0.95125769       5.66203932       30       0.00701348       0.00150242      -0.00261555
O        5.14023962       0.79081295       2.01110410       31      -0.00091048      -0.00129913       0.00746797
O        0.96782760       1.29460133       5.70872660       32       0.00092134       0.00129145       0.00746797
O        3.46324250      -1.02537129       5.70482883       33      -0.00701348      -0.00151393      -0.00260891
O        2.12114349      -0.00225038       3.37693454       34      -0.00091048      -0.00581789      -0.00485906
O        0.96782760      -2.10786843       7.11734655       35       0.00092134       0.00582172      -0.00485242
O       -0.70916951       1.92496954       3.41972405       36      -0.00518166      -0.00280922      -0.00485242
O       -0.96782761      -0.81326710       5.43082816       37      -0.00092134       0.00711318       0.00261555
O       -0.44414638       5.29501798       1.69041615       38       0.00701348       0.00151393       0.00260891
O        3.91704875       5.05820926       5.38803865       39       0.00091048      -0.00711701       0.00260891
