40
Lattice="9.599274996065148 7.523640928987241e-10 2.7211321679777775e-14 -3.199758332731049 9.050283258672037 -1.303162836008958e-09 -3.1997583316670695 -4.5251416285836354 7.837775214323776" Properties=species:S:1:pos:R:3:spacegroup_kinds:I:1:forces:R:3 spacegroup="P 1" unit_cell=conventional occupancy="_JSON {\"0\": {\"In\": 1}, \"1\": {\"In\": 1}, \"2\": {\"In\": 1}, \"3\": {\"In\": 1}, \"4\": {\"In\": 1}, \"5\": {\"In\": 1}, \"6\": {\"In\": 1}, \"7\": {\"In\": 1}, \"8\": {\"In\": 1}, \"9\": {\"In\": 1}, \"10\": {\"In\": 1}, \"11\": {\"In\": 1}, \"12\": {\"In\": 1}, \"13\": {\"In\": 1}, \"14\": {\"In\": 1}, \"15\": {\"In\": 1}, \"16\": {\"O\": 1}, \"17\": {\"O\": 1}, \"18\": {\"O\": 1}, \"19\": {\"O\": 1}, \"20\": {\"O\": 1}, \"21\": {\"O\": 1}, \"22\": {\"O\": 1}, \"23\": {\"O\": 1}, \"24\": {\"O\": 1}, \"25\": {\"O\": 1}, \"26\": {\"O\": 1}, \"27\": {\"O\": 1}, \"28\": {\"O\": 1}, \"29\": {\"O\": 1}, \"30\": {\"O\": 1}, \"31\": {\"O\": 1}, \"32\": {\"O\": 1}, \"33\": {\"O\": 1}, \"34\": {\"O\": 1}, \"35\": {\"O\": 1}, \"36\": {\"O\": 1}, \"37\": {\"O\": 1}, \"38\": {\"O\": 1}, \"39\": {\"O\": 1}}" n_minim_iter=10 energy=-45143.69971284204 stress="0.10228887877584072 1.4740541495239056e-13 -2.0875873716891232e-13 1.4740541495239056e-13 0.1022888787761916 1.6265630970597673e-13 -2.0875873716891232e-13 1.6265630970597673e-13 0.1022888787764287" free_energy=-45143.69971284204 pbc="T T T"
In      -4.54324379       3.21255849       6.19234829        0      -0.00091976       0.00065037      -0.00112647
In       7.74300212       1.31258314       1.64542692        1       0.00091976      -0.00065037       0.00112647
In       1.34348546      -0.94998768       5.56431453        2       0.00091976      -0.00065037       0.00112647
In      -1.59987917      -2.26257081       3.91888760        3       0.00000000      -0.00000000      -0.00000000
In      -1.34348546       4.34384390       3.60487072        4      -0.00091976       0.00065037       0.00112647
In       5.05603120      -3.03126076       5.87833141        5      -0.00091976      -0.00130073       0.00000000
In      -1.34348546       1.49388087       5.87833141        6      -0.00091976      -0.00130073      -0.00000000
In      -1.85627288       7.55640239       1.95944380        7       0.00091976       0.00130073      -0.00000000
In       4.54324379       0.18129773       4.23290448        8       0.00091976      -0.00065037      -0.00112647
In      -1.59987917       4.52514163      -0.00000000        9      -0.00000000       0.00000000      -0.00000000
In       4.54324379       6.96901018       0.31401688       10       0.00091976      -0.00065037      -0.00112647
In      -1.34348546      -2.44386854       7.52375833       11      -0.00091976       0.00065037       0.00112647
In       4.54324379       3.03126077       1.95944380       12       0.00091976       0.00130073       0.00000000
In       1.85627287       5.47512931       2.27346068       13      -0.00091976       0.00065037      -0.00112647
In       4.79963750       0.00000000      -0.00000000       14       0.00000000      -0.00000000      -0.00000000
In       1.59987916       2.26257082       3.91888760       15      -0.00000000      -0.00000000       0.00000000
O        1.14090800       4.54981919       4.21179865       16      -0.00007006      -0.00040278      -0.00059272
O       -2.05885034       3.63518585       5.71050449       17      -0.00007006      -0.00031192       0.00064518
O       -0.43548946       2.48729637      -0.13906782       18      -0.00069718       0.00013152      -0.00012288
O       -1.14090800      -0.86527822       2.08452793       19       0.00007006      -0.00071470       0.00005246
O        4.11356953       5.31012901       2.22359575       20      -0.00027072       0.00064376       0.00017534
O        2.28594713       2.99194491       1.79161688       21       0.00027072       0.00017003       0.00064518
O        2.28594713       6.84332573       0.43197886       22       0.00027072       0.00047373      -0.00046984
O       -2.49020866       6.36919706       3.77981978       23      -0.00035639       0.00061347      -0.00012288
O        3.63524779       2.03784526       7.97684303       24       0.00069718      -0.00013152       0.00012288
O        5.68996699      -1.84405543       4.05795542       25       0.00035639      -0.00061347       0.00012288
O        6.83500612       3.38578274       1.69529185       26       0.00069718      -0.00004065      -0.00017534
O        3.90930800       2.35139225       4.35086647       27      -0.00035639      -0.00041315      -0.00046984
O        0.70954967       4.85483559       7.54486416       28      -0.00035639      -0.00020032       0.00059272
O        2.49020866      -0.32969396       0.29291104       29       0.00035639       0.00020032      -0.00059272
O       -3.63524780       1.13935890       6.14248336       30      -0.00069718       0.00004065       0.00017534
O        5.25860866       0.88995578       2.12727072       31       0.00007006       0.00031192      -0.00064518
O        0.91381120       1.53319672       6.04615833       32      -0.00027072      -0.00017003      -0.00064518
O        3.63524779      -0.89848636       6.00341554       33       0.00069718       0.00017218       0.00005246
O        2.05885033      -0.02467756       3.62597656       34       0.00007006       0.00040278       0.00059272
O        0.91381120      -2.31818409       7.40579634       35      -0.00027072      -0.00047373       0.00046984
O       -0.70954968       2.17374939       3.48690874       36       0.00035639       0.00041315       0.00046984
O       -0.91381120      -0.78498737       5.61417946       37       0.00027072      -0.00064376      -0.00017534
O       -0.43548946       5.42362800       1.83435967       38      -0.00069718      -0.00017218      -0.00005246
O        4.34066633       5.39041985       5.75324728       39      -0.00007006       0.00071470      -0.00005246
