40
Lattice="9.26799810861114 7.264000273296444e-10 1.0020745490595078e-14 -3.0893327035552405 8.737952413921908 -1.2581810453714906e-09 -3.0893327025279653 -4.368976206234541 7.56728876835472" Properties=species:S:1:pos:R:3:spacegroup_kinds:I:1:forces:R:3 spacegroup="P 1" unit_cell=conventional occupancy="_JSON {\"0\": {\"In\": 1}, \"1\": {\"In\": 1}, \"2\": {\"In\": 1}, \"3\": {\"In\": 1}, \"4\": {\"In\": 1}, \"5\": {\"In\": 1}, \"6\": {\"In\": 1}, \"7\": {\"In\": 1}, \"8\": {\"In\": 1}, \"9\": {\"In\": 1}, \"10\": {\"In\": 1}, \"11\": {\"In\": 1}, \"12\": {\"In\": 1}, \"13\": {\"In\": 1}, \"14\": {\"In\": 1}, \"15\": {\"In\": 1}, \"16\": {\"O\": 1}, \"17\": {\"O\": 1}, \"18\": {\"O\": 1}, \"19\": {\"O\": 1}, \"20\": {\"O\": 1}, \"21\": {\"O\": 1}, \"22\": {\"O\": 1}, \"23\": {\"O\": 1}, \"24\": {\"O\": 1}, \"25\": {\"O\": 1}, \"26\": {\"O\": 1}, \"27\": {\"O\": 1}, \"28\": {\"O\": 1}, \"29\": {\"O\": 1}, \"30\": {\"O\": 1}, \"31\": {\"O\": 1}, \"32\": {\"O\": 1}, \"33\": {\"O\": 1}, \"34\": {\"O\": 1}, \"35\": {\"O\": 1}, \"36\": {\"O\": 1}, \"37\": {\"O\": 1}, \"38\": {\"O\": 1}, \"39\": {\"O\": 1}}" n_minim_iter=8 energy=-45149.816843886394 stress="0.06955441982844893 1.9023406372885743e-14 1.518933931096788e-13 1.9023406372885743e-14 0.06955441983024271 -3.11408562688763e-13 1.518933931096788e-13 -3.11408562688763e-13 0.06955441982984427" free_energy=-45149.816843886394 pbc="T T T"
In      -4.40636972       3.11577391       5.95425444        0      -0.00175364       0.00124001      -0.00214776
In       7.49570242       1.25320230       1.61303432        1       0.00175364      -0.00124001       0.00214776
In       1.31703701      -0.93128580       5.39667871        2       0.00175364      -0.00124001       0.00214776
In      -1.54466635      -2.18448810       3.78364438        3      -0.00000000      -0.00000000       0.00000000
In      -1.31703701       4.20801796       3.50485651        4      -0.00175364       0.00124001       0.00214776
In       4.86162839      -2.95481565       5.67546657        5      -0.00175364      -0.00248002      -0.00000000
In      -1.31703701       1.41416055       5.67546657        6      -0.00175364      -0.00248002       0.00000000
In      -1.77229569       7.32379186       1.89182219        7       0.00175364       0.00248002       0.00000000
In       4.40636971       0.16095825       4.06243225        8       0.00175364      -0.00124001      -0.00214776
In      -1.54466635       4.36897621      -0.00000000        9       0.00000000      -0.00000000      -0.00000000
In       4.40636971       6.71442256       0.27878786       10       0.00175364      -0.00124001      -0.00214776
In      -1.31703701      -2.34544635       7.28850090       11      -0.00175364       0.00124001       0.00214776
In       4.40636971       2.95481566       1.89182219       12       0.00175364       0.00248002       0.00000000
In       1.77229569       5.30026201       2.17061006       13      -0.00175364       0.00124001      -0.00214776
In       4.63399905       0.00000000      -0.00000000       14      -0.00000000      -0.00000000      -0.00000000
In       1.54466635       2.18448811       3.78364438       15       0.00000000      -0.00000000       0.00000000
O        0.96531225       4.37882619       4.10025284       16       0.00060228       0.00125438      -0.00171906
O       -2.12402045       3.54599814       5.50863201       17       0.00060228      -0.00211594      -0.00022680
O       -0.44485377       2.35864799      -0.00210597       18      -0.00061152      -0.00125765      -0.00171340
O       -0.96531225      -0.81312809       2.04159609       19      -0.00060228      -0.00086156      -0.00194586
O        4.05120592       5.18088842       2.04370206       20      -0.00219569      -0.00012768      -0.00023246
O        2.12745948       3.00503441       1.72498763       21       0.00219569       0.00013748      -0.00022680
O        2.12745948       6.54483022       0.31871443       22       0.00219569      -0.00026515      -0.00000566
O       -2.37203924       6.18666047       3.78153841       23       0.00098188       0.00099577      -0.00171340
O        3.53418647       2.01032822       7.56939473       24       0.00061152       0.00125765       0.00171340
O        5.46137194      -1.81768426       3.78575035       25      -0.00098188      -0.00099577       0.00171340
O        6.62351917       3.36198828       1.73994232       26       0.00061152      -0.00211267       0.00023246
O        3.80662616       2.36606620       4.10235881       27       0.00098188      -0.00198173      -0.00000566
O        0.71729346       4.55420195       7.25068030       28       0.00098188       0.00098597       0.00171906
O        2.37203924      -0.18522574       0.31660846       29      -0.00098188      -0.00098597      -0.00171906
O       -3.53418647       1.00698793       5.82734644       30      -0.00061152       0.00211267      -0.00023246
O        5.21335315       0.82297807       2.05865675       31      -0.00060228       0.00211594       0.00022680
O        0.96187322       1.36394180       5.84230113       32      -0.00219569      -0.00013748       0.00022680
O        3.53418647      -1.00334028       5.82524047       33       0.00061152       0.00085502      -0.00194586
O        2.12402045      -0.00984997       3.46703592       34      -0.00060228      -0.00125438       0.00171906
O        0.96187322      -2.17585401       7.24857434       35      -0.00219569       0.00026515       0.00000566
O       -0.71729346       2.00291001       3.46492995       36      -0.00098188       0.00198173       0.00000566
O       -0.96187322      -0.81191221       5.52358670       37       0.00219569       0.00012768       0.00023246
O       -0.44485377       5.37231649       1.74204829       38      -0.00061152      -0.00085502       0.00194586
O        4.05464495       5.18210430       5.52569267       39       0.00060228       0.00086156       0.00194586
