40
Lattice="8.441275426781056 6.616076922054363e-10 1.1024027395296954e-14 -2.813758476217457 7.958510794633136 -1.1459458608430324e-09 -2.81375847528181 -3.979255396654957 6.892272525208935" Properties=species:S:1:pos:R:3:spacegroup_kinds:I:1:forces:R:3 spacegroup="P 1" unit_cell=conventional occupancy="_JSON {\"0\": {\"In\": 1}, \"1\": {\"In\": 1}, \"2\": {\"In\": 1}, \"3\": {\"In\": 1}, \"4\": {\"In\": 1}, \"5\": {\"In\": 1}, \"6\": {\"In\": 1}, \"7\": {\"In\": 1}, \"8\": {\"In\": 1}, \"9\": {\"In\": 1}, \"10\": {\"In\": 1}, \"11\": {\"In\": 1}, \"12\": {\"In\": 1}, \"13\": {\"In\": 1}, \"14\": {\"In\": 1}, \"15\": {\"In\": 1}, \"16\": {\"O\": 1}, \"17\": {\"O\": 1}, \"18\": {\"O\": 1}, \"19\": {\"O\": 1}, \"20\": {\"O\": 1}, \"21\": {\"O\": 1}, \"22\": {\"O\": 1}, \"23\": {\"O\": 1}, \"24\": {\"O\": 1}, \"25\": {\"O\": 1}, \"26\": {\"O\": 1}, \"27\": {\"O\": 1}, \"28\": {\"O\": 1}, \"29\": {\"O\": 1}, \"30\": {\"O\": 1}, \"31\": {\"O\": 1}, \"32\": {\"O\": 1}, \"33\": {\"O\": 1}, \"34\": {\"O\": 1}, \"35\": {\"O\": 1}, \"36\": {\"O\": 1}, \"37\": {\"O\": 1}, \"38\": {\"O\": 1}, \"39\": {\"O\": 1}}" n_minim_iter=3 energy=-45147.14054093699 stress="-0.1630508260727209 3.0361495003541214e-13 5.1903288761682905e-14 3.0361495003541214e-13 -0.16305082607214574 -1.224033076637226e-13 5.1903288761682905e-14 -1.224033076637226e-13 -0.16305082607222496" free_energy=-45147.14054093699 pbc="T T T"
In      -4.02413476       2.84549298       5.40987038        0       0.00097167      -0.00068707       0.00119005
In       6.83789323       1.13376242       1.48240214        1      -0.00097167       0.00068707      -0.00119005
In       1.21037628      -0.85586527       4.92853840        2      -0.00097167       0.00068707      -0.00119005
In      -1.40687924      -1.98962770       3.44613626        3       0.00000000       0.00000000       0.00000000
In      -1.21037628       3.84030683       3.20547027        4       0.00097167      -0.00068707      -0.00119005
In       4.41714067      -2.70654440       5.16920439        5       0.00097167       0.00137415      -0.00000000
In      -1.21037628       1.27271100       5.16920439        6       0.00097167       0.00137415      -0.00000000
In      -1.60338220       6.68579980       1.72306813        7      -0.00097167      -0.00137415       0.00000000
In       4.02413476       0.13894857       3.68680225        8      -0.00097167       0.00068707       0.00119005
In      -1.40687924       3.97925540      -0.00000000        9       0.00000000      -0.00000000       0.00000000
In       4.02413476       6.10783167       0.24066598       10      -0.00097167       0.00068707       0.00119005
In      -1.21037628      -2.12857627       6.65160654       11       0.00097167      -0.00068707      -0.00119005
In       4.02413476       2.70654441       1.72306813       12      -0.00097167      -0.00137415       0.00000000
In       1.60338219       4.83512068       1.96373412       13       0.00097167      -0.00068707       0.00119005
In       4.22063771       0.00000000      -0.00000000       14      -0.00000000      -0.00000000      -0.00000000
In       1.40687924       1.98962770       3.44613626       15       0.00000000       0.00000000      -0.00000000
O        0.80751020       3.97232997       3.78183051       16      -0.00062817       0.00343910      -0.00004647
O       -2.00624827       3.27862402       5.00735486       17      -0.00062817      -0.00175980      -0.00295511
O       -0.39792089       2.14136482       0.08487305       18       0.00137387      -0.00317546      -0.00050312
O       -0.80751021      -0.70755681       1.89691285       19       0.00062817       0.00167930      -0.00300159
O        3.75986579       4.73581369       1.81203980       20      -0.00144976      -0.00196978      -0.00249847
O        1.86765116       2.78826204       1.56121860       21       0.00144976       0.00117885      -0.00295511
O        1.86765116       5.92680705       0.25082120       22       0.00144976      -0.00314863       0.00045665
O       -2.15153841       5.63025824       3.53100931       23       0.00345181      -0.00023681      -0.00050312
O        3.21167937       1.83789058       6.80739947       24      -0.00137387       0.00317546       0.00050312
O        4.96529688      -1.65100284       3.36126321       25      -0.00345181       0.00023681       0.00050312
O        6.02543784       3.13381233       1.63409645       26      -0.00137387      -0.00202344       0.00249847
O        3.47597854       2.23244235       3.69695746       27       0.00345181      -0.00031731       0.00045665
O        0.66222006       4.07506561       6.55657827       28       0.00345181       0.00055412       0.00004647
O        2.15153841      -0.09581021       0.33569425       29      -0.00345181      -0.00055412      -0.00004647
O       -3.21167937       0.84544307       5.25817607       30       0.00137387       0.00202344      -0.00249847
O        4.82000675       0.70063138       1.88491766       31       0.00062817       0.00175980       0.00295511
O        0.94610731       1.19099336       5.33105392       32      -0.00144976      -0.00117885       0.00295511
O        3.21167937      -0.99244750       5.34304912       33      -0.00137387      -0.00115201      -0.00300159
O        2.00624827       0.00692543       3.11044201       34       0.00062817      -0.00343910       0.00004647
O        0.94610731      -1.94755165       6.64145132       35      -0.00144976       0.00314863      -0.00045665
O       -0.66222007       1.74681305       3.19531506       36      -0.00345181       0.00031731      -0.00045665
O       -0.94610731      -0.75655829       5.08023272       37       0.00144976       0.00196978       0.00249847
O       -0.39792089       4.97170291       1.54922340       38       0.00137387       0.00115201       0.00300159
O        3.62126868       4.68681221       4.99535967       39      -0.00062817      -0.00167930       0.00300159
