40
Lattice="9.198831365910552 7.209794452597274e-10 1.298455783461019e-16 -3.066277122649932 8.672741383528823 -1.248784760861155e-09 -3.0662771216303155 -4.336370691043424 7.51081435942109" Properties=species:S:1:pos:R:3:spacegroup_kinds:I:1:forces:R:3 spacegroup="P 1" unit_cell=conventional occupancy="_JSON {\"0\": {\"In\": 1}, \"1\": {\"In\": 1}, \"2\": {\"In\": 1}, \"3\": {\"In\": 1}, \"4\": {\"In\": 1}, \"5\": {\"In\": 1}, \"6\": {\"In\": 1}, \"7\": {\"In\": 1}, \"8\": {\"In\": 1}, \"9\": {\"In\": 1}, \"10\": {\"In\": 1}, \"11\": {\"In\": 1}, \"12\": {\"In\": 1}, \"13\": {\"In\": 1}, \"14\": {\"In\": 1}, \"15\": {\"In\": 1}, \"16\": {\"O\": 1}, \"17\": {\"O\": 1}, \"18\": {\"O\": 1}, \"19\": {\"O\": 1}, \"20\": {\"O\": 1}, \"21\": {\"O\": 1}, \"22\": {\"O\": 1}, \"23\": {\"O\": 1}, \"24\": {\"O\": 1}, \"25\": {\"O\": 1}, \"26\": {\"O\": 1}, \"27\": {\"O\": 1}, \"28\": {\"O\": 1}, \"29\": {\"O\": 1}, \"30\": {\"O\": 1}, \"31\": {\"O\": 1}, \"32\": {\"O\": 1}, \"33\": {\"O\": 1}, \"34\": {\"O\": 1}, \"35\": {\"O\": 1}, \"36\": {\"O\": 1}, \"37\": {\"O\": 1}, \"38\": {\"O\": 1}, \"39\": {\"O\": 1}}" n_minim_iter=6 energy=-45150.68171161056 stress="0.05688431036140587 1.513326165608531e-13 -9.413586464971669e-14 1.513326165608531e-13 0.05688431036225895 2.62429696717081e-13 -9.413586464971669e-14 2.62429696717081e-13 0.05688431036190565" free_energy=-45150.68171161056 pbc="T T T"
In      -4.38031725       3.09735204       5.90145044        0      -0.00326181       0.00230645      -0.00399489
In       7.44659437       1.23901866       1.60936391        1       0.00326181      -0.00230645       0.00399489
In       1.31404013      -0.92916668       5.36477109        2       0.00326181      -0.00230645       0.00399489
In      -1.53313856      -2.16818534       3.75540718        3       0.00000000      -0.00000000       0.00000000
In      -1.31404013       4.18144471       3.48706750        4      -0.00326181       0.00230645       0.00399489
In       4.81851411      -2.94242604       5.63311077        5      -0.00326181      -0.00461290      -0.00000000
In      -1.31404013       1.39394465       5.63311077        6      -0.00326181      -0.00461290       0.00000000
In      -1.75223699       7.27879674       1.87770359        7       0.00326181       0.00461290      -0.00000000
In       4.38031725       0.15492599       4.02374686        8       0.00326181      -0.00230645      -0.00399489
In      -1.53313856       4.33637069      -0.00000000        9       0.00000000       0.00000000      -0.00000000
In       4.38031725       6.65948203       0.26833968       10       0.00326181      -0.00230645      -0.00399489
In      -1.31404013      -2.32311133       7.24247468       11      -0.00326181       0.00230645       0.00399489
In       4.38031725       2.94242605       1.87770359       12       0.00326181       0.00461290      -0.00000000
In       1.75223699       5.26553738       2.14604327       13      -0.00326181       0.00230645      -0.00399489
In       4.59941568       0.00000000      -0.00000000       14      -0.00000000      -0.00000000      -0.00000000
In       1.53313856       2.16818535       3.75540718       15      -0.00000000      -0.00000000      -0.00000000
O        0.94134612       4.34409740       4.07265768       16       0.00001895      -0.00502751       0.00304370
O       -2.12493101       3.52316166       5.46779399       17       0.00001895       0.00514967       0.00283210
O       -0.44563398       2.33571935       0.01369005       18       0.00012149       0.00507716       0.00295769
O       -0.94134612      -0.80548232       2.02963731       19      -0.00001895       0.00012216       0.00587580
O        4.02997900       5.14975697       2.01594726       20       0.00484884       0.00158546       0.00291811
O        2.10257524       2.99720229       1.71238681       21      -0.00484884      -0.00173442       0.00283210
O        2.10257524       6.48892537       0.30356045       22      -0.00484884       0.00331989       0.00008600
O       -2.35068198       6.14613066       3.76909723       23      -0.00474630      -0.00180693       0.00295769
O        3.51191109       2.00065135       7.49712430       24      -0.00012149      -0.00507716      -0.00295769
O        5.41695910      -1.80975997       3.74171712       25       0.00474630       0.00180693      -0.00295769
O        6.57818822       3.34790096       1.73945991       26      -0.00012149       0.00510002      -0.00291811
O        3.78187227       2.35925397       4.05896763       27      -0.00474630       0.00346490       0.00008600
O        0.71559514       4.50372745       7.19356385       28      -0.00474630      -0.00165797      -0.00304370
O        2.35068197      -0.16735675       0.31725050       29       0.00474630       0.00165797       0.00304370
O       -3.51191110       0.98846974       5.77135444       30       0.00012149      -0.00510002       0.00291811
O        5.19120812       0.81320903       2.04302037       31      -0.00001895      -0.00514967      -0.00283210
O        0.96370188       1.33916841       5.79842755       32       0.00484884       0.00173442      -0.00283210
O        3.51191109      -1.01218161       5.78504449       33      -0.00012149      -0.00002286       0.00587580
O        2.12493100      -0.00772671       3.43815667       34      -0.00001895       0.00502751      -0.00304370
O        0.96370188      -2.15255468       7.20725390       35       0.00484884      -0.00331989      -0.00008600
O       -0.71559515       1.97711673       3.45184672       36       0.00474630      -0.00346490      -0.00008600
O       -0.96370188      -0.81338627       5.49486709       37      -0.00484884      -0.00158546      -0.00291811
O       -0.44563398       5.34855230       1.72576986       38       0.00012149       0.00002286      -0.00587580
O        4.00762324       5.14185301       5.48117704       39       0.00001895      -0.00012216      -0.00587580
