40
Lattice="9.33614760097501 7.317408454434959e-10 1.726638409817864e-14 -3.112049201014895 8.802204371500011 -1.2674366245738993e-09 -3.1120491999800737 -4.401102185018249 7.622932595866399" Properties=species:S:1:pos:R:3:spacegroup_kinds:I:1:forces:R:3 spacegroup="P 1" unit_cell=conventional occupancy="_JSON {\"0\": {\"In\": 1}, \"1\": {\"In\": 1}, \"2\": {\"In\": 1}, \"3\": {\"In\": 1}, \"4\": {\"In\": 1}, \"5\": {\"In\": 1}, \"6\": {\"In\": 1}, \"7\": {\"In\": 1}, \"8\": {\"In\": 1}, \"9\": {\"In\": 1}, \"10\": {\"In\": 1}, \"11\": {\"In\": 1}, \"12\": {\"In\": 1}, \"13\": {\"In\": 1}, \"14\": {\"In\": 1}, \"15\": {\"In\": 1}, \"16\": {\"O\": 1}, \"17\": {\"O\": 1}, \"18\": {\"O\": 1}, \"19\": {\"O\": 1}, \"20\": {\"O\": 1}, \"21\": {\"O\": 1}, \"22\": {\"O\": 1}, \"23\": {\"O\": 1}, \"24\": {\"O\": 1}, \"25\": {\"O\": 1}, \"26\": {\"O\": 1}, \"27\": {\"O\": 1}, \"28\": {\"O\": 1}, \"29\": {\"O\": 1}, \"30\": {\"O\": 1}, \"31\": {\"O\": 1}, \"32\": {\"O\": 1}, \"33\": {\"O\": 1}, \"34\": {\"O\": 1}, \"35\": {\"O\": 1}, \"36\": {\"O\": 1}, \"37\": {\"O\": 1}, \"38\": {\"O\": 1}, \"39\": {\"O\": 1}}" n_minim_iter=5 energy=-45148.79243580456 stress="0.08059195418912772 -1.2166588844991241e-15 -3.1549296890763925e-13 -1.2166588844991241e-15 0.08059195418904244 4.2501450651696386e-13 -3.1549296890763925e-13 4.2501450651696386e-13 0.08059195418891195" free_energy=-45148.79243580456 pbc="T T T"
In      -4.43460135       3.13573669       6.00314363        0       0.00263177      -0.00186094       0.00322325
In       7.54665055       1.26536550       1.61978896        1      -0.00263177       0.00186094      -0.00322325
In       1.32255215      -0.93518559       5.43125525        2      -0.00263177       0.00186094      -0.00322325
In      -1.55602460      -2.20055109       3.81146630        3       0.00000000      -0.00000000       0.00000000
In      -1.32255215       4.23601223       3.52552210        4       0.00263177      -0.00186094      -0.00322325
In       4.90154625      -2.97064673       5.71719944        5       0.00263177       0.00372189      -0.00000000
In      -1.32255215       1.43045546       5.71719944        6       0.00263177       0.00372189       0.00000000
In      -1.78949706       7.37174892       1.90573315        7      -0.00263177      -0.00372189      -0.00000000
In       4.43460135       0.16508996       4.09741049        8      -0.00263177       0.00186094       0.00322325
In      -1.55602460       4.40110219      -0.00000000        9       0.00000000       0.00000000       0.00000000
In       4.43460134       6.76674324       0.28594419       10      -0.00263177       0.00186094       0.00322325
In      -1.32255215      -2.36564105       7.33698840       11       0.00263177      -0.00186094      -0.00322325
In       4.43460135       2.97064673       1.90573315       12      -0.00263177      -0.00372189       0.00000000
In       1.78949705       5.33628778       2.19167734       13       0.00263177      -0.00186094       0.00322325
In       4.66807380       0.00000000      -0.00000000       14       0.00000000       0.00000000      -0.00000000
In       1.55602460       2.20055110       3.81146629       15      -0.00000000       0.00000000       0.00000000
O        0.99098088       4.41406747       4.12385234       16       0.00142046      -0.00639671      -0.00179541
O       -2.12106832       3.56487825       5.54977816       17       0.00142046       0.00164348       0.00643742
O       -0.44584874       2.38031913      -0.02143785       18      -0.00400790       0.00548191      -0.00021094
O       -0.99098088      -0.82325865       2.05069791       19      -0.00142046      -0.00475323       0.00464201
O        4.06802222       5.21198369       2.07213576       20       0.00107600       0.00463144       0.00485295
O        2.15607618       3.01202073       1.73831186       21      -0.00107600      -0.00188705       0.00643742
O        2.15607618       6.60106515       0.33382389       22      -0.00107600       0.00651850      -0.00158448
O       -2.39280264       6.22856380       3.79002845       23      -0.00650437       0.00195138      -0.00021094
O        3.55789794       2.02078306       7.64437044       24       0.00400790      -0.00548191       0.00021094
O        5.50485184      -1.82746161       3.83290414       25       0.00650437      -0.00195138       0.00021094
O        6.66994714       3.37214494       1.73933054       26       0.00400790       0.00255828      -0.00485295
O        3.83129576       2.36853012       4.14529019       27      -0.00650437      -0.00115837      -0.00158448
O        0.71924656       4.60621265       7.31054654       28      -0.00650437      -0.00079301       0.00179541
O        2.39280264      -0.20511046       0.31238604       29       0.00650437       0.00079301      -0.00179541
O       -3.55789794       1.02895725       5.88360205       30      -0.00400790      -0.00255828       0.00485295
O        5.23311752       0.83622394       2.07315443       31      -0.00142046      -0.00164348      -0.00643742
O        0.95597302       1.38908146       5.88462073       32       0.00107600       0.00188705      -0.00643742
O        3.55789794      -0.99182580       5.86216420       33       0.00400790       0.00292364       0.00464201
O        2.12106832      -0.01296528       3.49908025       34      -0.00142046       0.00639671       0.00179541
O        0.95597302      -2.19996296       7.28910870       35       0.00107600      -0.00651850       0.00158448
O       -0.71924656       2.03257207       3.47764240       36       0.00650437       0.00115837       0.00158448
O       -0.95597302      -0.81088150       5.55079683       37      -0.00107600      -0.00463144      -0.00485295
O       -0.44584874       5.39292800       1.76076838       38      -0.00400790      -0.00292364      -0.00464201
O        4.10303008       5.22436084       5.57223468       39       0.00142046       0.00475323      -0.00464201
