40
Lattice="9.469539160045768 7.421939524451725e-10 1.9126408261474576e-14 -3.1565130540483395 8.927967139459172 -1.2855506908943263e-09 -3.156513052998735 -4.463983568987368 7.731846347781351" Properties=species:S:1:pos:R:3:spacegroup_kinds:I:1:forces:R:3 spacegroup="P 1" unit_cell=conventional occupancy="_JSON {\"0\": {\"In\": 1}, \"1\": {\"In\": 1}, \"2\": {\"In\": 1}, \"3\": {\"In\": 1}, \"4\": {\"In\": 1}, \"5\": {\"In\": 1}, \"6\": {\"In\": 1}, \"7\": {\"In\": 1}, \"8\": {\"In\": 1}, \"9\": {\"In\": 1}, \"10\": {\"In\": 1}, \"11\": {\"In\": 1}, \"12\": {\"In\": 1}, \"13\": {\"In\": 1}, \"14\": {\"In\": 1}, \"15\": {\"In\": 1}, \"16\": {\"O\": 1}, \"17\": {\"O\": 1}, \"18\": {\"O\": 1}, \"19\": {\"O\": 1}, \"20\": {\"O\": 1}, \"21\": {\"O\": 1}, \"22\": {\"O\": 1}, \"23\": {\"O\": 1}, \"24\": {\"O\": 1}, \"25\": {\"O\": 1}, \"26\": {\"O\": 1}, \"27\": {\"O\": 1}, \"28\": {\"O\": 1}, \"29\": {\"O\": 1}, \"30\": {\"O\": 1}, \"31\": {\"O\": 1}, \"32\": {\"O\": 1}, \"33\": {\"O\": 1}, \"34\": {\"O\": 1}, \"35\": {\"O\": 1}, \"36\": {\"O\": 1}, \"37\": {\"O\": 1}, \"38\": {\"O\": 1}, \"39\": {\"O\": 1}}" n_minim_iter=8 energy=-45146.37665316593 stress="0.09512840728412904 -1.003700577114105e-13 -2.5130978263956216e-14 -1.003700577114105e-13 0.09512840728351399 -1.4592112664186023e-13 -2.5130978263956216e-14 -1.4592112664186023e-13 0.09512840728391363" free_energy=-45146.37665316593 pbc="T T T"
In      -4.48736349       3.17304515       6.10189410        0      -0.00131083       0.00092690      -0.00160543
In       7.64387654       1.29093842       1.62995224        1       0.00131083      -0.00092690       0.00160543
In       1.33085043      -0.94105336       5.49587541        2       0.00131083      -0.00092690       0.00160543
In      -1.57825653      -2.23199178       3.86592317        3      -0.00000000       0.00000000       0.00000000
In      -1.33085044       4.28904105       3.56291383        4      -0.00131083       0.00092689       0.00160543
In       4.98217567      -2.99810262       5.79888476        5      -0.00131083      -0.00185379      -0.00000000
In      -1.33085044       1.46588095       5.79888476        6      -0.00131083      -0.00185379       0.00000000
In      -1.82566262       7.46208620       1.93296158        7       0.00131083       0.00185379       0.00000000
In       4.48736349       0.17494253       4.16893251        8       0.00131083      -0.00092690      -0.00160543
In      -1.57825653       4.46398357      -0.00000000        9      -0.00000000      -0.00000000      -0.00000000
In       4.48736349       6.87091788       0.30300934       10       0.00131083      -0.00092689      -0.00160543
In      -1.33085044      -2.40693431       7.42883700       11      -0.00131083       0.00092690       0.00160543
In       4.48736349       2.99810263       1.93296158       12       0.00131083       0.00185379       0.00000000
In       1.82566262       5.40503694       2.23597093       13      -0.00131083       0.00092689      -0.00160543
In       4.73476958       0.00000000      -0.00000000       14       0.00000000       0.00000000       0.00000000
In       1.57825652       2.23199179       3.86592317       15       0.00000000       0.00000000      -0.00000000
O        1.05735572       4.48254710       4.16830700       16       0.00083873      -0.00359272       0.00243732
O       -2.09915733       3.60057800       5.63161635       17       0.00083873       0.00390713       0.00189273
O       -0.44407281       2.43025651      -0.07317372       18       0.00057601       0.00409290       0.00157097
O       -1.05735573      -0.84484204       2.06807702       19      -0.00083873       0.00031442       0.00433004
O        4.09437660       5.26657875       2.14125073       20       0.00340411       0.00059258       0.00275907
O        2.21864951       3.01090363       1.76569318       21      -0.00340411      -0.00209314       0.00189273
O        2.21864950       6.71965869       0.37555755       22      -0.00340411       0.00268572       0.00086635
O       -2.43929208       6.30456572       3.79274945       23      -0.00366682      -0.00190737       0.00157097
O        3.60058586       2.03372706       7.80502006       24      -0.00057601      -0.00409290      -0.00157097
O        5.59580513      -1.84058214       3.93909689       25       0.00366682       0.00190737      -0.00157097
O        6.75709892       3.38374975       1.72467244       26      -0.00057601       0.00340695      -0.00275908
O        3.87373402       2.36432631       4.24148072       27      -0.00366682       0.00231418       0.00086635
O        0.71722097       4.72305869       7.42946251       28      -0.00366682      -0.00040681      -0.00243732
O        2.43929208      -0.25907512       0.30238383       29       0.00366682       0.00040681       0.00243732
O       -3.60058587       1.08023383       6.00717391       30       0.00057601      -0.00340695       0.00275907
O        5.25567038       0.86340558       2.10022999       31      -0.00083873      -0.00390713      -0.00189273
O        0.93786354       1.45307994       5.96615316       32       0.00340411       0.00209314      -0.00189273
O        3.60058586      -0.95349323       5.93400019       33      -0.00057601       0.00068596       0.00433004
O        2.09915733      -0.01856352       3.56353934       34      -0.00083873       0.00359272      -0.00243731
O        0.93786354      -2.25567512       7.35628879       35       0.00340411      -0.00268572      -0.00086635
O       -0.71722097       2.09965726       3.49036562       36       0.00366682      -0.00231418      -0.00086635
O       -0.93786355      -0.80259518       5.59059561       37      -0.00340411      -0.00059258      -0.00275908
O       -0.44407281       5.41747680       1.79784615       38       0.00057601      -0.00068596      -0.00433004
O        4.21386878       5.30882562       5.66376933       39       0.00083873      -0.00031442      -0.00433004
