40
Lattice="8.10359218494576 6.351340063527878e-10 3.781138506349686e-14 -2.7011973955807296 7.640139981048901 -1.1000932296029293e-09 -2.7011973946825467 -3.8200699898893187 6.616555312790885" Properties=species:S:1:pos:R:3:spacegroup_kinds:I:1:forces:R:3 spacegroup="P 1" unit_cell=conventional occupancy="_JSON {\"0\": {\"In\": 1}, \"1\": {\"In\": 1}, \"2\": {\"In\": 1}, \"3\": {\"In\": 1}, \"4\": {\"In\": 1}, \"5\": {\"In\": 1}, \"6\": {\"In\": 1}, \"7\": {\"In\": 1}, \"8\": {\"In\": 1}, \"9\": {\"In\": 1}, \"10\": {\"In\": 1}, \"11\": {\"In\": 1}, \"12\": {\"In\": 1}, \"13\": {\"In\": 1}, \"14\": {\"In\": 1}, \"15\": {\"In\": 1}, \"16\": {\"O\": 1}, \"17\": {\"O\": 1}, \"18\": {\"O\": 1}, \"19\": {\"O\": 1}, \"20\": {\"O\": 1}, \"21\": {\"O\": 1}, \"22\": {\"O\": 1}, \"23\": {\"O\": 1}, \"24\": {\"O\": 1}, \"25\": {\"O\": 1}, \"26\": {\"O\": 1}, \"27\": {\"O\": 1}, \"28\": {\"O\": 1}, \"29\": {\"O\": 1}, \"30\": {\"O\": 1}, \"31\": {\"O\": 1}, \"32\": {\"O\": 1}, \"33\": {\"O\": 1}, \"34\": {\"O\": 1}, \"35\": {\"O\": 1}, \"36\": {\"O\": 1}, \"37\": {\"O\": 1}, \"38\": {\"O\": 1}, \"39\": {\"O\": 1}}" n_minim_iter=1 energy=-45129.30498468994 stress="-0.4819853694869678 9.126936922457309e-14 5.801108253155107e-13 9.126936922457309e-14 -0.48198536948684384 4.484775447580975e-13 5.801108253155107e-13 4.484775447580975e-13 -0.4819853694872903" free_energy=-45129.30498468994 pbc="T T T"
In      -3.81900575       2.70044486       5.24752527        0       0.06093155      -0.04308511       0.07462561
In       6.52020314       1.11962513       1.36903004        1      -0.06093155       0.04308511      -0.07462561
In       1.11780835      -0.79040986       4.67730770        2      -0.06093155       0.04308511      -0.07462561
In      -1.35059870      -1.91003499       3.30827765        3       0.00000000       0.00000000      -0.00000000
In      -1.11780835       3.65546236       3.02316887        4       0.06093155      -0.04308511      -0.07462561
In       4.28458644      -2.53583722       4.96241648        5       0.06093155       0.08617023       0.00000000
In      -1.11780835       1.28423277       4.96241648        6       0.06093155       0.08617023       0.00000000
In      -1.58338905       6.35590722       1.65413883        7      -0.06093155      -0.08617023      -0.00000000
In       3.81900574       0.16460764       3.59338644        8      -0.06093155       0.04308511       0.07462561
In      -1.35059870       3.82006999      -0.00000000        9       0.00000000       0.00000000       0.00000000
In       3.81900574       5.89471262       0.28510878       10      -0.06093155       0.04308511       0.07462561
In      -1.11780835      -2.07464263       6.33144653       11       0.06093155      -0.04308511      -0.07462561
In       3.81900574       2.53583723       1.65413883       12      -0.06093155      -0.08617023       0.00000000
In       1.58338904       4.61047986       1.93924761       13       0.06093155      -0.04308511       0.07462561
In       4.05179609       0.00000000      -0.00000000       14      -0.00000000      -0.00000000       0.00000000
In       1.35059870       1.91003500       3.30827765       15       0.00000000      -0.00000000      -0.00000000
O        0.79127576       3.80241329       3.70802875       16      -0.02906255       0.05108481       0.30360074
O       -1.90992163       3.22007545       4.77783208       17      -0.02906255       0.23738355      -0.19604112
O       -0.31856859       2.09481892       0.11027825       18       0.26228306       0.03137109       0.16078293
O       -0.79127576      -0.61765124       1.86930553       19       0.02906255       0.28846836       0.10755962
O        3.67255679       4.50139041       1.75902727       20       0.23349487      -0.19564030      -0.05322331
O        1.72983799       2.63736790       1.46955443       21      -0.23349487      -0.05172741      -0.19604112
O        1.72983799       5.68409251       0.28947284       22      -0.23349487      -0.14391288       0.14281781
O       -2.08120375       5.33218136       3.41855591       23       0.05785074      -0.25773987       0.16078293
O        3.01976598       1.72525107       6.50627705       24      -0.26228306      -0.03137109      -0.16078293
O        4.78240114      -1.51211136       3.19799940       25      -0.05785074       0.25773987      -0.16078293
O        5.72096337       3.05294823       1.54925038       26      -0.26228306       0.15492765       0.05322331
O        3.32119104       2.20450058       3.59775050       27       0.05785074       0.26811204       0.14281781
O        0.61999364       3.92352804       6.21680421       28       0.05785074      -0.01037217      -0.30360074
O        2.08120375      -0.10345804       0.39975110       29      -0.05785074       0.01037217       0.30360074
O       -3.01976598       0.76712176       5.06730493       30       0.26228306      -0.15492765      -0.05322331
O        4.61111903       0.59999454       1.83872322       31       0.02906255      -0.23738355       0.19604112
O        0.97135940       1.18270210       5.14700088       32       0.23349487       0.05172741       0.19604112
O        3.01976598      -0.95812930       5.17758318       33      -0.26228306      -0.12355656       0.10755962
O        1.90992163       0.01765670       2.90852655       34       0.02906255      -0.05108481      -0.30360074
O        0.97135940      -1.86402251       6.32708247       35       0.23349487       0.14391288      -0.14281781
O       -0.61999365       1.61556941       3.01880481       36      -0.05785074      -0.26811204      -0.14281781
O       -0.97135940      -0.68132042       4.85752804       37      -0.23349487       0.19564030       0.05322331
O       -0.31856859       4.77819930       1.43897212       38       0.26228306       0.12355656      -0.10755962
O        3.49247315       4.43772123       4.74724978       39      -0.02906255      -0.28846836      -0.10755962
40
Lattice="8.10359218494576 6.351340063527879e-10 3.7811385063496886e-14 -2.70119739558073 7.640139981048903 -1.1000932296029293e-09 -2.701197394682547 -3.8200699898893196 6.616555312790886" Properties=species:S:1:pos:R:3:spacegroup_kinds:I:1:forces:R:3 spacegroup="P 1" unit_cell=conventional occupancy="_JSON {\"0\": {\"In\": 1}, \"1\": {\"In\": 1}, \"2\": {\"In\": 1}, \"3\": {\"In\": 1}, \"4\": {\"In\": 1}, \"5\": {\"In\": 1}, \"6\": {\"In\": 1}, \"7\": {\"In\": 1}, \"8\": {\"In\": 1}, \"9\": {\"In\": 1}, \"10\": {\"In\": 1}, \"11\": {\"In\": 1}, \"12\": {\"In\": 1}, \"13\": {\"In\": 1}, \"14\": {\"In\": 1}, \"15\": {\"In\": 1}, \"16\": {\"O\": 1}, \"17\": {\"O\": 1}, \"18\": {\"O\": 1}, \"19\": {\"O\": 1}, \"20\": {\"O\": 1}, \"21\": {\"O\": 1}, \"22\": {\"O\": 1}, \"23\": {\"O\": 1}, \"24\": {\"O\": 1}, \"25\": {\"O\": 1}, \"26\": {\"O\": 1}, \"27\": {\"O\": 1}, \"28\": {\"O\": 1}, \"29\": {\"O\": 1}, \"30\": {\"O\": 1}, \"31\": {\"O\": 1}, \"32\": {\"O\": 1}, \"33\": {\"O\": 1}, \"34\": {\"O\": 1}, \"35\": {\"O\": 1}, \"36\": {\"O\": 1}, \"37\": {\"O\": 1}, \"38\": {\"O\": 1}, \"39\": {\"O\": 1}}" n_minim_iter=2 energy=-45129.36709475273 stress="-0.47168175186300404 6.311648014999795e-13 2.310800995023037e-13 6.311648014999795e-13 -0.47168175186330225 -1.414484967795661e-13 2.310800995023037e-13 -1.414484967795661e-13 -0.47168175186474737" free_energy=-45129.36709475273 pbc="T T T"
In      -3.81587994       2.69823459       5.25135358        0       0.28857694      -0.20405471       0.35343313
In       6.51707734       1.12183541       1.36520173        1      -0.28857694       0.20405471      -0.35343313
In       1.11468255      -0.78819959       4.67347939        2      -0.28857694       0.20405471      -0.35343313
In      -1.35059870      -1.91003499       3.30827765        3      -0.00000000       0.00000000       0.00000000
In      -1.11468255       3.65325208       3.01934056        4       0.28857694      -0.20405471      -0.35343313
In       4.28771224      -2.53141667       4.96241648        5       0.28857694       0.40810942      -0.00000000
In      -1.11468255       1.28865332       4.96241648        6       0.28857694       0.40810942      -0.00000000
In      -1.58651485       6.35148667       1.65413883        7      -0.28857694      -0.40810942       0.00000000
In       3.81587994       0.16681791       3.59721475        8      -0.28857694       0.20405471       0.35343313
In      -1.35059870       3.82006999      -0.00000000        9      -0.00000000      -0.00000000       0.00000000
In       3.81587994       5.89692290       0.28893709       10      -0.28857694       0.20405471       0.35343313
In      -1.11468255      -2.07685290       6.32761822       11       0.28857694      -0.20405471      -0.35343313
In       3.81587994       2.53141668       1.65413883       12      -0.28857694      -0.40810942       0.00000000
In       1.58651485       4.60826958       1.94307592       13       0.28857694      -0.20405471       0.35343313
In       4.05179609       0.00000000      -0.00000000       14       0.00000000      -0.00000000       0.00000000
In       1.35059870       1.91003500       3.30827765       15       0.00000000       0.00000000      -0.00000000
O        0.78978484       3.80503395       3.72360354       16      -0.05952630      -0.13892273      -0.06916198
O       -1.91141255       3.23225328       4.76777513       17      -0.05952630       0.00956534       0.15489160
O       -0.30511341       2.09642827       0.11852645       18      -0.14180142       0.06774263       0.05412557
O       -0.78978485      -0.60285275       1.87482336       19       0.05952630      -0.12935739       0.08572963
O        3.68453513       4.49135402       1.75629690       20       0.02886039       0.16060681       0.03160405
O        1.71785966       2.63471427       1.45949748       21      -0.02886039       0.05293349       0.15489160
O        1.71785966       5.67670975       0.29679943       22      -0.02886039       0.10767332      -0.12328755
O       -2.07823599       5.31895925       3.42680411       23      -0.11113551       0.11111078       0.05412557
O        3.00631080       1.72364173       6.49802885       24       0.14180142      -0.06774263      -0.05412557
O        4.77943339      -1.49888925       3.18975120       25       0.11113551      -0.11111078      -0.05412557
O        5.70750820       3.06089605       1.55198075       26       0.14180142       0.08074544      -0.03160405
O        3.32415880       2.21825479       3.60507708       27      -0.11113551      -0.00868127      -0.12328755
O        0.62296140       3.92299594       6.20122942       28      -0.11113551      -0.10242951       0.06916198
O        2.07823599      -0.10292595       0.41532588       29       0.11113551       0.10242951      -0.06916198
O       -3.00631080       0.75917394       5.06457456       30      -0.14180142      -0.08074544       0.03160405
O        4.61260994       0.58781671       1.84878018       31       0.05952630      -0.00956534      -0.15489160
O        0.98333774       1.18535572       5.15705783       32       0.02886039      -0.05293349      -0.15489160
O        3.00631080      -0.96446778       5.18310102       33       0.14180142      -0.01300280       0.08572963
O        1.91141255       0.01503604       2.89295177       34       0.05952630       0.13892273       0.06916198
O        0.98333774      -1.85663975       6.31975588       35       0.02886039      -0.10767332       0.12328755
O       -0.62296140       1.60181520       3.01147822       36       0.11113551       0.00868127       0.12328755
O       -0.98333774      -0.67128403       4.86025840       37      -0.02886039      -0.16060681      -0.03160405
O       -0.30511341       4.78453778       1.43345429       38      -0.14180142       0.01300280      -0.08572963
O        3.49098224       4.42292274       4.74173195       39      -0.05952630       0.12935739      -0.08572963
40
Lattice="8.103592184945766 6.351340063527885e-10 3.781138506349692e-14 -2.7011973955807322 7.640139981048909 -1.1000932296029303e-09 -2.7011973946825494 -3.8200699898893227 6.616555312790891" Properties=species:S:1:pos:R:3:spacegroup_kinds:I:1:forces:R:3 spacegroup="P 1" unit_cell=conventional occupancy="_JSON {\"0\": {\"In\": 1}, \"1\": {\"In\": 1}, \"2\": {\"In\": 1}, \"3\": {\"In\": 1}, \"4\": {\"In\": 1}, \"5\": {\"In\": 1}, \"6\": {\"In\": 1}, \"7\": {\"In\": 1}, \"8\": {\"In\": 1}, \"9\": {\"In\": 1}, \"10\": {\"In\": 1}, \"11\": {\"In\": 1}, \"12\": {\"In\": 1}, \"13\": {\"In\": 1}, \"14\": {\"In\": 1}, \"15\": {\"In\": 1}, \"16\": {\"O\": 1}, \"17\": {\"O\": 1}, \"18\": {\"O\": 1}, \"19\": {\"O\": 1}, \"20\": {\"O\": 1}, \"21\": {\"O\": 1}, \"22\": {\"O\": 1}, \"23\": {\"O\": 1}, \"24\": {\"O\": 1}, \"25\": {\"O\": 1}, \"26\": {\"O\": 1}, \"27\": {\"O\": 1}, \"28\": {\"O\": 1}, \"29\": {\"O\": 1}, \"30\": {\"O\": 1}, \"31\": {\"O\": 1}, \"32\": {\"O\": 1}, \"33\": {\"O\": 1}, \"34\": {\"O\": 1}, \"35\": {\"O\": 1}, \"36\": {\"O\": 1}, \"37\": {\"O\": 1}, \"38\": {\"O\": 1}, \"39\": {\"O\": 1}}" n_minim_iter=3 energy=-45129.44201744378 stress="-0.45903841635185433 -1.2669802853053507e-13 4.660382067614762e-13 -1.2669802853053507e-13 -0.45903841635380654 2.337553259030343e-13 4.660382067614762e-13 2.337553259030343e-13 -0.4590384163529917" free_energy=-45129.44201744378 pbc="T T T"
In      -3.80031127       2.68722587       5.27042123        0       0.04118141      -0.02911966       0.05043673
In       6.50150866       1.13284412       1.34613408        1      -0.04118141       0.02911966      -0.05043673
In       1.09911387      -0.77719087       4.65441173        2      -0.04118141       0.02911966      -0.05043673
In      -1.35059870      -1.91003499       3.30827765        3      -0.00000000      -0.00000000      -0.00000000
In      -1.09911387       3.64224337       3.00027290        4       0.04118141      -0.02911966      -0.05043673
In       4.30328092      -2.50939924       4.96241648        5       0.04118141       0.05823931      -0.00000000
In      -1.09911387       1.31067075       4.96241648        6       0.04118141       0.05823931       0.00000000
In      -1.60208352       6.32946923       1.65413883        7      -0.04118141      -0.05823931       0.00000000
In       3.80031127       0.17782663       3.61628240        8      -0.04118141       0.02911966       0.05043673
In      -1.35059870       3.82006999      -0.00000000        9       0.00000000      -0.00000000      -0.00000000
In       3.80031127       5.90793161       0.30800475       10      -0.04118141       0.02911966       0.05043673
In      -1.09911387      -2.08786162       6.30855056       11       0.04118141      -0.02911966      -0.05043673
In       3.80031127       2.50939924       1.65413883       12      -0.04118141      -0.05823931      -0.00000000
In       1.60208352       4.59726086       1.96214358       13       0.04118141      -0.02911966       0.05043673
In       4.05179609       0.00000000      -0.00000000       14       0.00000000      -0.00000000       0.00000000
In       1.35059870       1.91003500       3.30827765       15       0.00000000       0.00000000      -0.00000000
O        0.78555570       3.80250103       3.73950611       16       0.12316984       0.06797160      -0.01618445
O       -1.91564169       3.24729177       4.76201742       17       0.12316984      -0.04800195      -0.05077290
O       -0.29473276       2.10113607       0.13066201       18       0.05988418      -0.00325223      -0.12828169
O       -0.78555571      -0.59034718       1.88496822       19      -0.12316984       0.01996965      -0.06695736
O        3.70012327       4.48585492       1.75430621       20      -0.08631328      -0.09403312       0.06132433
O        1.70227152       2.63368871       1.45373977       21       0.08631328      -0.10012499      -0.05077290
O        1.70227152       5.67223620       0.30056644       22       0.08631328       0.00609187       0.11209723
O       -2.07921434       5.30760301       3.43893966       23       0.02302763      -0.05537527      -0.12828169
O        2.99593015       1.71893392       6.48589330       24      -0.05988418       0.00325223       0.12828169
O        4.78041173      -1.48753301       3.17761564       25      -0.02302763       0.05537527       0.12828169
O        5.69712755       3.07375965       1.55397144       26      -0.05988418      -0.11272132      -0.06132433
O        3.32318045       2.23444261       3.60884410       27       0.02302763      -0.08340757       0.11209723
O        0.62198305       3.91816436       6.18532686       28       0.02302763       0.13878284       0.01618445
O        2.07921434      -0.09809437       0.43122845       29      -0.02302763      -0.13878284      -0.01618445
O       -2.99593016       0.74631034       5.06258387       30       0.05988418       0.11272132       0.06132433
O        4.61683908       0.57277822       1.85453789       31      -0.12316984       0.04800195       0.05077290
O        0.99892587       1.18638128       5.16281554       32      -0.08631328       0.10012499       0.05077290
O        2.99593015      -0.97262358       5.19324588       33      -0.05988418       0.10946909      -0.06695736
O        1.91564169       0.01756896       2.87704920       34      -0.12316984      -0.06797160       0.01618445
O        0.99892587      -1.85216621       6.31598887       35      -0.08631328      -0.00609187      -0.11209723
O       -0.62198306       1.58562739       3.00771121       36      -0.02302763       0.08340757      -0.11209723
O       -0.99892588      -0.66578493       4.86224910       37       0.08631328       0.09403312      -0.06132433
O       -0.29473276       4.79269357       1.42330943       38       0.05988418      -0.10946909       0.06695736
O        3.48675310       4.41041718       4.73158709       39       0.12316984      -0.01996965       0.06695736
40
Lattice="8.103592184945779 6.351340063527893e-10 3.781138506349696e-14 -2.7011973955807376 7.640139981048918 -1.1000932296029322e-09 -2.7011973946825547 -3.820069989889327 6.6165553127909025" Properties=species:S:1:pos:R:3:spacegroup_kinds:I:1:forces:R:3 spacegroup="P 1" unit_cell=conventional occupancy="_JSON {\"0\": {\"In\": 1}, \"1\": {\"In\": 1}, \"2\": {\"In\": 1}, \"3\": {\"In\": 1}, \"4\": {\"In\": 1}, \"5\": {\"In\": 1}, \"6\": {\"In\": 1}, \"7\": {\"In\": 1}, \"8\": {\"In\": 1}, \"9\": {\"In\": 1}, \"10\": {\"In\": 1}, \"11\": {\"In\": 1}, \"12\": {\"In\": 1}, \"13\": {\"In\": 1}, \"14\": {\"In\": 1}, \"15\": {\"In\": 1}, \"16\": {\"O\": 1}, \"17\": {\"O\": 1}, \"18\": {\"O\": 1}, \"19\": {\"O\": 1}, \"20\": {\"O\": 1}, \"21\": {\"O\": 1}, \"22\": {\"O\": 1}, \"23\": {\"O\": 1}, \"24\": {\"O\": 1}, \"25\": {\"O\": 1}, \"26\": {\"O\": 1}, \"27\": {\"O\": 1}, \"28\": {\"O\": 1}, \"29\": {\"O\": 1}, \"30\": {\"O\": 1}, \"31\": {\"O\": 1}, \"32\": {\"O\": 1}, \"33\": {\"O\": 1}, \"34\": {\"O\": 1}, \"35\": {\"O\": 1}, \"36\": {\"O\": 1}, \"37\": {\"O\": 1}, \"38\": {\"O\": 1}, \"39\": {\"O\": 1}}" n_minim_iter=4 energy=-45129.46539242127 stress="-0.45564603149605776 1.066828578227823e-12 -3.204975973869702e-13 1.066828578227823e-12 -0.4556460314941759 -6.627422839085217e-13 -3.204975973869702e-13 -6.627422839085217e-13 -0.45564603149670657" free_energy=-45129.46539242127 pbc="T T T"
In      -3.79361639       2.68249188       5.27862075        0      -0.00794351       0.00561691      -0.00972877
In       6.49481378       1.13757812       1.33793456        1       0.00794351      -0.00561691       0.00972877
In       1.09241899      -0.77245688       4.64621221        2       0.00794351      -0.00561691       0.00972877
In      -1.35059870      -1.91003499       3.30827765        3       0.00000000       0.00000000       0.00000000
In      -1.09241900       3.63750937       2.99207339        4      -0.00794351       0.00561691       0.00972877
In       4.30997579      -2.49993125       4.96241648        5      -0.00794351      -0.01123381      -0.00000000
In      -1.09241900       1.32013874       4.96241648        6      -0.00794351      -0.01123381       0.00000000
In      -1.60877840       6.32000125       1.65413883        7       0.00794351       0.01123381      -0.00000000
In       3.79361639       0.18256062       3.62448192        8       0.00794351      -0.00561691      -0.00972877
In      -1.35059870       3.82006999      -0.00000000        9      -0.00000000       0.00000000      -0.00000000
In       3.79361639       5.91266561       0.31620426       10       0.00794351      -0.00561691      -0.00972877
In      -1.09241900      -2.09259561       6.30035104       11      -0.00794351       0.00561691       0.00972877
In       3.79361639       2.49993126       1.65413883       12       0.00794351       0.01123381       0.00000000
In       1.60877840       4.59252687       1.97034309       13      -0.00794351       0.00561691      -0.00972877
In       4.05179609       0.00000000      -0.00000000       14       0.00000000      -0.00000000       0.00000000
In       1.35059870       1.91003500       3.30827765       15       0.00000000      -0.00000000       0.00000000
O        0.79336093       3.80670830       3.74199105       16       0.05227876      -0.01303576       0.01828095
O       -1.90783646       3.24734016       4.75713134       17       0.05227876       0.02234965       0.00214883
O       -0.28811874       2.10202678       0.12431700       18       0.02620747       0.04078484      -0.02978185
O       -0.79336094      -0.58609152       1.88256709       19      -0.05227876       0.00931388       0.02042978
O        3.69756715       4.47793597       1.75825008       20       0.00364520      -0.02650844       0.05021163
O        1.70482764       2.62631374       1.44885369       21      -0.00364520      -0.05673877       0.00214883
O        1.70482764       5.67169222       0.30939639       22      -0.00364520       0.03023032       0.04806280
O       -2.07784943       5.30107035       3.43259466       23      -0.02971649      -0.03830358      -0.02978185
O        2.98931613       1.71804322       6.49223830       24      -0.02620747      -0.04078484       0.02978185
O        4.77904682      -1.48100035       3.18396065       25       0.02971649       0.03830358       0.02978185
O        5.69051353       3.06871007       1.55002757       26      -0.02620747      -0.00539942      -0.05021163
O        3.32454536       2.23221400       3.61767405       27      -0.02971649      -0.00664005       0.04806280
O        0.62334796       3.92692563       6.18284191       28      -0.02971649       0.04494363      -0.01828095
O        2.07784943      -0.10685563       0.43371340       29       0.02971649      -0.04494363       0.01828095
O       -2.98931614       0.75135992       5.06652774       30       0.02620747       0.00539942       0.05021163
O        4.60903385       0.57272983       1.85942396       31      -0.05227876      -0.02234965      -0.00214883
O        0.99636975       1.19375625       5.16770162       32       0.00364520       0.05673877      -0.00214883
O        2.98931613      -0.96668329       5.19084474       33      -0.02620747       0.04618426       0.02042978
O        1.90783646       0.01336169       2.87456426       34      -0.05227876       0.01303576      -0.01828095
O        0.99636975      -1.85162223       6.30715892       35       0.00364520      -0.03023032      -0.04806280
O       -0.62334797       1.58785599       2.99888126       36       0.02971649       0.00664005      -0.04806280
O       -0.99636976      -0.65786598       4.85830523       37      -0.00364520       0.02650844      -0.05021163
O       -0.28811874       4.78675328       1.42571056       38       0.02620747      -0.04618426      -0.02042978
O        3.49455833       4.40616151       4.73398822       39       0.05227876      -0.00931388      -0.02042978
40
Lattice="8.103592184945782 6.351340063527895e-10 3.781138506349697e-14 -2.7011973955807393 7.640139981048921 -1.1000932296029328e-09 -2.7011973946825565 -3.8200699898893284 6.616555312790906" Properties=species:S:1:pos:R:3:spacegroup_kinds:I:1:forces:R:3 spacegroup="P 1" unit_cell=conventional occupancy="_JSON {\"0\": {\"In\": 1}, \"1\": {\"In\": 1}, \"2\": {\"In\": 1}, \"3\": {\"In\": 1}, \"4\": {\"In\": 1}, \"5\": {\"In\": 1}, \"6\": {\"In\": 1}, \"7\": {\"In\": 1}, \"8\": {\"In\": 1}, \"9\": {\"In\": 1}, \"10\": {\"In\": 1}, \"11\": {\"In\": 1}, \"12\": {\"In\": 1}, \"13\": {\"In\": 1}, \"14\": {\"In\": 1}, \"15\": {\"In\": 1}, \"16\": {\"O\": 1}, \"17\": {\"O\": 1}, \"18\": {\"O\": 1}, \"19\": {\"O\": 1}, \"20\": {\"O\": 1}, \"21\": {\"O\": 1}, \"22\": {\"O\": 1}, \"23\": {\"O\": 1}, \"24\": {\"O\": 1}, \"25\": {\"O\": 1}, \"26\": {\"O\": 1}, \"27\": {\"O\": 1}, \"28\": {\"O\": 1}, \"29\": {\"O\": 1}, \"30\": {\"O\": 1}, \"31\": {\"O\": 1}, \"32\": {\"O\": 1}, \"33\": {\"O\": 1}, \"34\": {\"O\": 1}, \"35\": {\"O\": 1}, \"36\": {\"O\": 1}, \"37\": {\"O\": 1}, \"38\": {\"O\": 1}, \"39\": {\"O\": 1}}" n_minim_iter=5 energy=-45129.46732013387 stress="-0.4546656913136749 -6.25059290370842e-13 -6.730252785490371e-13 -6.25059290370842e-13 -0.4546656913134048 -4.545201795297172e-13 -6.730252785490371e-13 -4.545201795297172e-13 -0.454665691314249" free_energy=-45129.46732013387 pbc="T T T"
In      -3.79202330       2.68136539       5.28057188        0      -0.00736399       0.00520713      -0.00901901
In       6.49322069       1.13870461       1.33598343        1       0.00736399      -0.00520713       0.00901901
In       1.09082590      -0.77133039       4.64426108        2       0.00736399      -0.00520713       0.00901901
In      -1.35059870      -1.91003499       3.30827765        3       0.00000000       0.00000000      -0.00000000
In      -1.09082590       3.63638289       2.99012225        4      -0.00736399       0.00520713       0.00901901
In       4.31156889      -2.49767828       4.96241648        5      -0.00736399      -0.01041425      -0.00000000
In      -1.09082590       1.32239171       4.96241648        6      -0.00736399      -0.01041425       0.00000000
In      -1.61037150       6.31774827       1.65413883        7       0.00736399       0.01041425       0.00000000
In       3.79202329       0.18368711       3.62643305        8       0.00736399      -0.00520713      -0.00901901
In      -1.35059870       3.82006999      -0.00000000        9       0.00000000       0.00000000       0.00000000
In       3.79202329       5.91379209       0.31815540       10       0.00736399      -0.00520713      -0.00901901
In      -1.09082590      -2.09372210       6.29839991       11      -0.00736399       0.00520713       0.00901901
In       3.79202329       2.49767828       1.65413883       12       0.00736399       0.01041425      -0.00000000
In       1.61037149       4.59140038       1.97229423       13      -0.00736399       0.00520713      -0.00901901
In       4.05179609       0.00000000      -0.00000000       14      -0.00000000      -0.00000000      -0.00000000
In       1.35059870       1.91003500       3.30827765       15      -0.00000000      -0.00000000       0.00000000
O        0.79598064       3.80739357       3.74314462       16       0.02164654      -0.03002489       0.01040584
O       -1.90521675       3.24799655       4.75596110       17       0.02164654       0.02402417       0.02079939
O       -0.28598058       2.10302367       0.12255698       18       0.00155798       0.03822893      -0.00380397
O       -0.79598064      -0.58474986       1.88255041       19      -0.02164654      -0.00600072       0.03120524
O        3.69731276       4.47557817       1.75999342       20       0.01543469       0.00380450       0.03500920
O        1.70508203       2.62362506       1.44768344       21      -0.01543469      -0.02841661       0.02079939
O        1.70508203       5.67202310       0.31230998       22      -0.01543469       0.03222111       0.01420981
O       -2.07807659       5.29872217       3.43083464       23      -0.03552325      -0.01421185      -0.00380397
O        2.98717797       1.71704633       6.49399832       24      -0.00155798      -0.03822893       0.00380397
O        4.77927398      -1.47865218       3.18572067       25       0.03552325       0.01421185       0.00380397
O        5.68837537       3.06768429       1.54828423       26      -0.00155798       0.01582013      -0.03500920
O        3.32431820       2.23186387       3.62058764       27      -0.03552325       0.00381160       0.01420981
O        0.62312081       3.92962394       6.18168834       28      -0.03552325       0.01040026      -0.01040584
O        2.07807659      -0.10955394       0.43486697       29       0.03552325      -0.01040026       0.01040584
O       -2.98717798       0.75238570       5.06827108       30       0.00155798      -0.01582013       0.03500920
O        4.60641415       0.57207345       1.86059421       31      -0.02164654      -0.02402417      -0.02079939
O        0.99611536       1.19644493       5.16887186       32       0.01543469       0.02841661      -0.02079939
O        2.98717797      -0.96466062       5.19082807       33      -0.00155798       0.02240879       0.03120524
O        1.90521675       0.01267642       2.87341069       34      -0.02164654       0.03002489      -0.01040584
O        0.99611536      -1.85195310       6.30424533       35       0.01543469      -0.03222111      -0.01420981
O       -0.62312081       1.58820613       2.99596767       36       0.03552325      -0.00381160      -0.01420981
O       -0.99611537      -0.65550817       4.85656188       37      -0.01543469      -0.00380450      -0.03500920
O       -0.28598058       4.78473062       1.42572724       38       0.00155798      -0.02240879      -0.03120524
O        3.49717804       4.40481986       4.73400490       39       0.02164654       0.00600072      -0.03120524
40