40
Lattice="9.478018916809864 7.428647551652329e-10 4.57191528848108e-15 -3.1593396396370017 8.935961930806549 -1.2866787106100308e-09 -3.159339638586436 -4.46798096466041 7.738770040186898" Properties=species:S:1:pos:R:3:spacegroup_kinds:I:1:forces:R:3 spacegroup="P 1" unit_cell=conventional occupancy="_JSON {\"0\": {\"In\": 1}, \"1\": {\"In\": 1}, \"2\": {\"In\": 1}, \"3\": {\"In\": 1}, \"4\": {\"In\": 1}, \"5\": {\"In\": 1}, \"6\": {\"In\": 1}, \"7\": {\"In\": 1}, \"8\": {\"In\": 1}, \"9\": {\"In\": 1}, \"10\": {\"In\": 1}, \"11\": {\"In\": 1}, \"12\": {\"In\": 1}, \"13\": {\"In\": 1}, \"14\": {\"In\": 1}, \"15\": {\"In\": 1}, \"16\": {\"O\": 1}, \"17\": {\"O\": 1}, \"18\": {\"O\": 1}, \"19\": {\"O\": 1}, \"20\": {\"O\": 1}, \"21\": {\"O\": 1}, \"22\": {\"O\": 1}, \"23\": {\"O\": 1}, \"24\": {\"O\": 1}, \"25\": {\"O\": 1}, \"26\": {\"O\": 1}, \"27\": {\"O\": 1}, \"28\": {\"O\": 1}, \"29\": {\"O\": 1}, \"30\": {\"O\": 1}, \"31\": {\"O\": 1}, \"32\": {\"O\": 1}, \"33\": {\"O\": 1}, \"34\": {\"O\": 1}, \"35\": {\"O\": 1}, \"36\": {\"O\": 1}, \"37\": {\"O\": 1}, \"38\": {\"O\": 1}, \"39\": {\"O\": 1}}" n_minim_iter=7 energy=-45145.879463714795 stress="0.10955564117014421 -1.7547111064261368e-14 6.251302295371244e-15 -1.7547111064261368e-14 0.10955564116922369 -1.6833874322444574e-13 6.251302295371244e-15 -1.6833874322444574e-13 0.10955564116937111" free_energy=-45145.879463714795 pbc="T T T"
In      -4.45013492       3.14672058       6.15787514        0      -0.00384281       0.00271727      -0.00470646
In       7.60947456       1.32126039       1.58089490        1       0.00384281      -0.00271727       0.00470646
In       1.29079528      -0.91273009       5.45027992        2       0.00384281      -0.00271727       0.00470646
In      -1.57966982      -2.23399048       3.86938502        3      -0.00000000       0.00000000       0.00000000
In      -1.29079528       4.26371582       3.51558741        4      -0.00384281       0.00271727       0.00470646
In       5.02788399      -2.94245543       5.80407753        5      -0.00384281      -0.00543455       0.00000000
In      -1.29079528       1.52552553       5.80407753        6      -0.00384281      -0.00543455      -0.00000000
In      -1.86854436       7.41043640       1.93469251        7       0.00384281       0.00543455      -0.00000000
In       4.45013492       0.20426515       4.22318263        8       0.00384281      -0.00271727      -0.00470646
In      -1.57966982       4.46798097      -0.00000000        9      -0.00000000       0.00000000      -0.00000000
In       4.45013492       6.90623659       0.35379761       10       0.00384281      -0.00271727      -0.00470646
In      -1.29079528      -2.43825562       7.38497243       11      -0.00384281       0.00271727       0.00470646
In       4.45013492       2.94245544       1.93469251       12       0.00384281       0.00543455      -0.00000000
In       1.86854436       5.38071106       2.28849012       13      -0.00384281       0.00271727      -0.00470646
In       4.73900946       0.00000000      -0.00000000       14      -0.00000000      -0.00000000       0.00000000
In       1.57966982       2.23399048       3.86938502       15      -0.00000000       0.00000000       0.00000000
O        1.05354004       4.47767588       4.17311491       16       0.00295997      -0.00363536      -0.00676264
O       -2.10579960       3.60917608       5.64381654       17       0.00295997      -0.00403894       0.00652963
O       -0.44936855       2.43790245      -0.06624807       18      -0.00624874       0.00247260      -0.00474868
O       -1.05354004      -0.84910998       2.07816142       19      -0.00295997      -0.00767429      -0.00023301
O        4.10469703       5.27884261       2.14440948       20      -0.00479460       0.00493264       0.00451568
O        2.21398224       3.01629870       1.77443152       21       0.00479460      -0.00144437       0.00652963
O        2.21398224       6.73052488       0.36997796       22       0.00479460       0.00637701      -0.00201395
O       -2.44826599       6.31300604       3.80313695       23      -0.00441410       0.00506717      -0.00474868
O        3.60870819       2.03007852       7.80501810       24       0.00624874      -0.00247260       0.00474868
O        5.60760562      -1.84502507       3.93563308       25       0.00441410      -0.00506717       0.00474868
O        6.76804783       3.39556920       1.72497553       26       0.00624874      -0.00287618      -0.00451568
O        3.87041329       2.37110068       4.23936298       27      -0.00441410      -0.00664606      -0.00201395
O        0.71107365       4.71983618       7.43504014       28      -0.00441410       0.00157890       0.00676264
O        2.44826599      -0.25185521       0.30372989       29       0.00441411      -0.00157890      -0.00676264
O       -3.60870819       1.07241177       6.01379450       30      -0.00624874       0.00287618       0.00451568
O        5.26513924       0.85880489       2.09495350       31      -0.00295997       0.00403894      -0.00652963
O        0.94535740       1.45168227       5.96433852       32      -0.00479460       0.00144437      -0.00652963
O        3.60870819      -0.95766675       5.94754643       33       0.00624874       0.00534878      -0.00023301
O        2.10579960      -0.00969491       3.56565512       34      -0.00295997       0.00363536       0.00676264
O        0.94535740      -2.26254391       7.36879207       35      -0.00479460      -0.00637701       0.00201395
O       -0.71107365       2.09688029       3.49940705       36       0.00441411       0.00664606       0.00201395
O       -0.94535740      -0.81086164       5.59436055       37       0.00479460      -0.00493264      -0.00451568
O       -0.44936856       5.42564772       1.79122360       38      -0.00624874      -0.00534878       0.00023301
O        4.21287967       5.31709095       5.66060862       39       0.00295997       0.00767429       0.00023301
