40
Lattice="9.136783001756354 7.161201028196433e-10 7.080523721735314e-15 -3.0455943345939493 8.61424162479049 -1.2403540167946746e-09 -3.0455943335812092 -4.3071208116791295 7.460152082232803" Properties=species:S:1:pos:R:3:spacegroup_kinds:I:1:forces:R:3 spacegroup="P 1" unit_cell=conventional occupancy="_JSON {\"0\": {\"In\": 1}, \"1\": {\"In\": 1}, \"2\": {\"In\": 1}, \"3\": {\"In\": 1}, \"4\": {\"In\": 1}, \"5\": {\"In\": 1}, \"6\": {\"In\": 1}, \"7\": {\"In\": 1}, \"8\": {\"In\": 1}, \"9\": {\"In\": 1}, \"10\": {\"In\": 1}, \"11\": {\"In\": 1}, \"12\": {\"In\": 1}, \"13\": {\"In\": 1}, \"14\": {\"In\": 1}, \"15\": {\"In\": 1}, \"16\": {\"O\": 1}, \"17\": {\"O\": 1}, \"18\": {\"O\": 1}, \"19\": {\"O\": 1}, \"20\": {\"O\": 1}, \"21\": {\"O\": 1}, \"22\": {\"O\": 1}, \"23\": {\"O\": 1}, \"24\": {\"O\": 1}, \"25\": {\"O\": 1}, \"26\": {\"O\": 1}, \"27\": {\"O\": 1}, \"28\": {\"O\": 1}, \"29\": {\"O\": 1}, \"30\": {\"O\": 1}, \"31\": {\"O\": 1}, \"32\": {\"O\": 1}, \"33\": {\"O\": 1}, \"34\": {\"O\": 1}, \"35\": {\"O\": 1}, \"36\": {\"O\": 1}, \"37\": {\"O\": 1}, \"38\": {\"O\": 1}, \"39\": {\"O\": 1}}" n_minim_iter=1 energy=-45151.01239156075 stress="0.044722665051526354 -3.278884182428546e-13 4.3231680821535785e-13 -3.278884182428546e-13 0.04472266505024752 -3.6018698708984063e-13 4.3231680821535785e-13 -3.6018698708984063e-13 0.044722665050782054" free_energy=-45151.01239156075 pbc="T T T"
In      -4.35081438       3.07649035       5.86159053        0       0.06787747      -0.04799662       0.08313258
In       7.39640871       1.23063047       1.59856155        1      -0.06787747       0.04799662      -0.08313258
In       1.30522004      -0.92292994       5.32863759        2      -0.06787747       0.04799662      -0.08313258
In      -1.52279717      -2.15356040       3.73007604        3      -0.00000000       0.00000000      -0.00000000
In      -1.30522004       4.15327055       3.46359957        4       0.06787747      -0.04799662      -0.08313258
In       4.78596863      -2.92264008       5.59511406        5       0.06787747       0.09599323      -0.00000000
In      -1.30522004       1.38448073       5.59511406        6       0.06787747       0.09599323      -0.00000000
In      -1.74037429       7.22976090       1.86503802        7      -0.06787747      -0.09599323       0.00000000
In       4.35081437       0.15385026       3.99655251        8      -0.06787747       0.04799662       0.08313258
In      -1.52279717       4.30712081      -0.00000000        9       0.00000000      -0.00000000      -0.00000000
In       4.35081437       6.61453148       0.26647647       10      -0.06787747       0.04799662       0.08313258
In      -1.30522004      -2.30741066       7.19367561       11       0.06787747      -0.04799662      -0.08313258
In       4.35081437       2.92264009       1.86503802       12      -0.06787747      -0.09599323       0.00000000
In       1.74037429       5.23005076       2.13151449       13       0.06787747      -0.04799662       0.08313258
In       4.56839150       0.00000000      -0.00000000       14       0.00000000       0.00000000      -0.00000000
In       1.52279717       2.15356041       3.73007604       15       0.00000000       0.00000000       0.00000000
O        0.92808037       4.31171934       4.04533769       16       0.01923412       0.00773271      -0.07171691
O       -2.11751396       3.50106595       5.43350079       17       0.01923412      -0.06597502       0.02916173
O       -0.44626016       2.31931105       0.02020823       18      -0.04850001      -0.01807976      -0.05379529
O       -0.92808037      -0.80145633       2.01868640       19      -0.01923412      -0.05824231      -0.04255518
O        4.00667462       5.12024438       1.99847817       20      -0.06861322       0.02718359       0.01124011
O        2.08451405       2.98294973       1.70342475       21       0.06861322       0.00385757       0.02916173
O        2.08451405       6.44441546       0.29505342       22       0.06861322       0.02332602      -0.01792162
O       -2.33542081       6.10831565       3.75028427       23       0.00087909       0.05175283      -0.05379529
O        3.49185449       1.98780977       7.43994384       24       0.04850001       0.01807976       0.05379529
O        5.38101514      -1.80119483       3.70986780       25      -0.00087909      -0.05175283       0.05379529
O        6.53744882       3.33071678       1.73159787       26       0.04850001      -0.05562797      -0.01124011
O        3.75576785       2.34724404       4.02512946       27       0.00087909      -0.07246451      -0.01792162
O        0.71017352       4.46580276       7.14489042       28       0.00087909       0.02071167       0.07171691
O        2.33542081      -0.15868194       0.31526165       29      -0.00087909      -0.02071167      -0.07171691
O       -3.49185449       0.97640404       5.72855421       30      -0.04850001       0.05562797       0.01124011
O        5.16310829       0.80605487       2.02665129       31      -0.01923412       0.06597502      -0.02916173
O        0.96108028       1.32417108       5.75672733       32      -0.06861322      -0.00385757      -0.02916173
O        3.49185449      -1.01140573       5.74876244       33       0.04850001       0.03754821      -0.04255518
O        2.11751396      -0.00459853       3.41481438       34      -0.01923412      -0.00773271       0.07171691
O        0.96108028      -2.13729464       7.16509866       35      -0.06861322      -0.02332602       0.01792162
O       -0.71017352       1.95987677       3.43502262       36      -0.00087909       0.07246451       0.01792162
O       -0.96108029      -0.81312356       5.46167391       37       0.06861322      -0.02718359      -0.01124011
O       -0.44626016       5.31852654       1.71138963       38      -0.04850001      -0.03754821       0.04255518
O        3.97367470       5.10857715       5.44146567       39       0.01923412       0.05824231       0.04255518
40
Lattice="9.136783001756354 7.161201028196434e-10 7.080523721735313e-15 -3.0455943345939507 8.614241624790488 -1.240354016794675e-09 -3.0455943335812106 -4.307120811679129 7.460152082232806" Properties=species:S:1:pos:R:3:spacegroup_kinds:I:1:forces:R:3 spacegroup="P 1" unit_cell=conventional occupancy="_JSON {\"0\": {\"In\": 1}, \"1\": {\"In\": 1}, \"2\": {\"In\": 1}, \"3\": {\"In\": 1}, \"4\": {\"In\": 1}, \"5\": {\"In\": 1}, \"6\": {\"In\": 1}, \"7\": {\"In\": 1}, \"8\": {\"In\": 1}, \"9\": {\"In\": 1}, \"10\": {\"In\": 1}, \"11\": {\"In\": 1}, \"12\": {\"In\": 1}, \"13\": {\"In\": 1}, \"14\": {\"In\": 1}, \"15\": {\"In\": 1}, \"16\": {\"O\": 1}, \"17\": {\"O\": 1}, \"18\": {\"O\": 1}, \"19\": {\"O\": 1}, \"20\": {\"O\": 1}, \"21\": {\"O\": 1}, \"22\": {\"O\": 1}, \"23\": {\"O\": 1}, \"24\": {\"O\": 1}, \"25\": {\"O\": 1}, \"26\": {\"O\": 1}, \"27\": {\"O\": 1}, \"28\": {\"O\": 1}, \"29\": {\"O\": 1}, \"30\": {\"O\": 1}, \"31\": {\"O\": 1}, \"32\": {\"O\": 1}, \"33\": {\"O\": 1}, \"34\": {\"O\": 1}, \"35\": {\"O\": 1}, \"36\": {\"O\": 1}, \"37\": {\"O\": 1}, \"38\": {\"O\": 1}, \"39\": {\"O\": 1}}" n_minim_iter=2 energy=-45151.02562898815 stress="0.04325406171291016 -5.557353582129719e-14 -9.528543899138934e-13 -5.557353582129719e-14 0.043254061712637876 -2.7075702864394557e-13 -9.528543899138934e-13 -2.7075702864394557e-13 0.043254061712725486" free_energy=-45151.02562898815 pbc="T T T"
In      -4.34596599       3.07306202       5.86752857        0       0.01775690      -0.01255602       0.02174767
In       7.39156032       1.23405880       1.59262351        1      -0.01775690       0.01255602      -0.02174767
In       1.30037165      -0.91950161       5.32269955        2      -0.01775690       0.01255602      -0.02174767
In      -1.52279717      -2.15356040       3.73007604        3       0.00000000      -0.00000000       0.00000000
In      -1.30037165       4.14984222       3.45766153        4       0.01775690      -0.01255602      -0.02174767
In       4.79081702      -2.91578342       5.59511406        5       0.01775690       0.02511205      -0.00000000
In      -1.30037165       1.39133739       5.59511406        6       0.01775690       0.02511205       0.00000000
In      -1.74522269       7.22290424       1.86503802        7      -0.01775690      -0.02511205      -0.00000000
In       4.34596598       0.15727859       4.00249055        8      -0.01775690       0.01255602       0.02174767
In      -1.52279717       4.30712081      -0.00000000        9      -0.00000000       0.00000000      -0.00000000
In       4.34596598       6.61795981       0.27241451       10      -0.01775690       0.01255602       0.02174767
In      -1.30037165      -2.31083899       7.18773757       11       0.01775690      -0.01255602      -0.02174767
In       4.34596598       2.91578343       1.86503802       12      -0.01775690      -0.02511205       0.00000000
In       1.74522268       5.22662243       2.13745253       13       0.01775690      -0.01255602       0.02174767
In       4.56839150       0.00000000      -0.00000000       14       0.00000000      -0.00000000      -0.00000000
In       1.52279717       2.15356041       3.73007604       15      -0.00000000      -0.00000000      -0.00000000
O        0.92945424       4.31227168       4.04021506       16       0.02846694       0.01166092      -0.00581033
O       -2.11614010       3.49635345       5.43558377       17       0.02846694      -0.01086236      -0.00719349
O       -0.44972444       2.31801964       0.01636571       18       0.01024188       0.00202471      -0.02951455
O       -0.92945424      -0.80561650       2.01564675       19      -0.02846694       0.00079857      -0.01300382
O        4.00177367       5.12218606       1.99928103       20      -0.01973011      -0.01783880       0.01651072
O        2.08941499       2.98322527       1.70550773       21       0.01973011      -0.02321810      -0.00719349
O        2.08941499       6.44608160       0.29377330       22       0.01973011       0.00537931       0.02370421
O       -2.33535802       6.11201228       3.74644175       23       0.00150504      -0.01033104      -0.02951455
O        3.49531877       1.98910118       7.44378636       24      -0.01024188      -0.00202471       0.02951455
O        5.38095235      -1.80489146       3.71371032       25      -0.00150504       0.01033104       0.02951455
O        6.54091311       3.32674335       1.73079500       26      -0.01024188      -0.02454799      -0.01651072
O        3.75583065       2.34206801       4.02384934       27       0.00150504      -0.02039483       0.02370421
O        0.71023631       4.46728216       7.15001306       28       0.00150504       0.03072586       0.00581033
O        2.33535802      -0.16016134       0.31013902       29      -0.00150504      -0.03072586      -0.00581033
O       -3.49531878       0.98037746       5.72935707       30       0.01024188       0.02454799       0.01651072
O        5.16173443       0.81076737       2.02456831       31      -0.02846694       0.01086236       0.00719349
O        0.95617934       1.32389554       5.75464435       32      -0.01973011       0.02321810       0.00719349
O        3.49531877      -1.00872371       5.74572279       33      -0.01024188       0.02657270      -0.01300382
O        2.11614009      -0.00515086       3.41993702       34      -0.02846694      -0.01166092       0.00581033
O        0.95617934      -2.13896079       7.16637877       35      -0.01973011      -0.00537931      -0.02370421
O       -0.71023632       1.96505281       3.43630273       36      -0.00150504       0.02039483      -0.02370421
O       -0.95617934      -0.81506525       5.46087104       37       0.01973011       0.01783880      -0.01651072
O       -0.44972444       5.31584453       1.71442929       38       0.01024188      -0.02657270       0.01300382
O        3.97504857       5.11273731       5.44450533       39       0.02846694      -0.00079857       0.01300382
40
Lattice="9.136783001756354 7.161201028196434e-10 7.080523721735313e-15 -3.0455943345939507 8.614241624790488 -1.240354016794675e-09 -3.0455943335812106 -4.307120811679129 7.460152082232806" Properties=species:S:1:pos:R:3:spacegroup_kinds:I:1:forces:R:3 spacegroup="P 1" unit_cell=conventional occupancy="_JSON {\"0\": {\"In\": 1}, \"1\": {\"In\": 1}, \"2\": {\"In\": 1}, \"3\": {\"In\": 1}, \"4\": {\"In\": 1}, \"5\": {\"In\": 1}, \"6\": {\"In\": 1}, \"7\": {\"In\": 1}, \"8\": {\"In\": 1}, \"9\": {\"In\": 1}, \"10\": {\"In\": 1}, \"11\": {\"In\": 1}, \"12\": {\"In\": 1}, \"13\": {\"In\": 1}, \"14\": {\"In\": 1}, \"15\": {\"In\": 1}, \"16\": {\"O\": 1}, \"17\": {\"O\": 1}, \"18\": {\"O\": 1}, \"19\": {\"O\": 1}, \"20\": {\"O\": 1}, \"21\": {\"O\": 1}, \"22\": {\"O\": 1}, \"23\": {\"O\": 1}, \"24\": {\"O\": 1}, \"25\": {\"O\": 1}, \"26\": {\"O\": 1}, \"27\": {\"O\": 1}, \"28\": {\"O\": 1}, \"29\": {\"O\": 1}, \"30\": {\"O\": 1}, \"31\": {\"O\": 1}, \"32\": {\"O\": 1}, \"33\": {\"O\": 1}, \"34\": {\"O\": 1}, \"35\": {\"O\": 1}, \"36\": {\"O\": 1}, \"37\": {\"O\": 1}, \"38\": {\"O\": 1}, \"39\": {\"O\": 1}}" n_minim_iter=3 energy=-45151.02678225113 stress="0.042721646664098396 -1.682968022800309e-13 -9.280357503773269e-14 -1.682968022800309e-13 0.042721646663474735 1.1564913481105383e-13 -9.280357503773269e-14 1.1564913481105383e-13 0.0427216466644986" free_energy=-45151.02678225113 pbc="T T T"
In      -4.34437880       3.07193971       5.86947247        0       0.00209501      -0.00148140       0.00256585
In       7.38997313       1.23518111       1.59067960        1      -0.00209501       0.00148140      -0.00256585
In       1.29878446      -0.91837930       5.32075565        2      -0.00209501       0.00148140      -0.00256585
In      -1.52279717      -2.15356040       3.73007604        3       0.00000000      -0.00000000       0.00000000
In      -1.29878446       4.14871991       3.45571762        4       0.00209501      -0.00148140      -0.00256585
In       4.79240421      -2.91353880       5.59511406        5       0.00209501       0.00296279      -0.00000000
In      -1.29878446       1.39358201       5.59511406        6       0.00209501       0.00296279      -0.00000000
In      -1.74680988       7.22065962       1.86503802        7      -0.00209501      -0.00296279      -0.00000000
In       4.34437879       0.15840091       4.00443445        8      -0.00209501       0.00148140       0.00256585
In      -1.52279717       4.30712081      -0.00000000        9       0.00000000       0.00000000       0.00000000
In       4.34437879       6.61908212       0.27435841       10      -0.00209501       0.00148140       0.00256585
In      -1.29878446      -2.31196131       7.18579367       11       0.00209501      -0.00148140      -0.00256585
In       4.34437879       2.91353880       1.86503802       12      -0.00209501      -0.00296279      -0.00000000
In       1.74680987       5.22550011       2.13939643       13       0.00209501      -0.00148140       0.00256585
In       4.56839150       0.00000000      -0.00000000       14      -0.00000000       0.00000000      -0.00000000
In       1.52279717       2.15356041       3.73007604       15      -0.00000000       0.00000000      -0.00000000
O        0.93033838       4.31263114       4.03877814       16       0.02991695       0.00967934       0.01308784
O       -2.11525596       3.49492931       5.43599092       17       0.02991695       0.00649473      -0.01492647
O       -0.45043351       2.31772207       0.01482159       18       0.02522138       0.00981500      -0.02067735
O       -0.93033838      -0.80668117       2.01461699       19      -0.02991695       0.01617407      -0.00183864
O        4.00013627       5.12235924       1.99979539       20      -0.00384903      -0.02811214       0.01883871
O        2.09105239       2.98286641       1.70591488       21       0.00384903      -0.03037088      -0.01492647
O        2.09105239       6.44661364       0.29388051       22       0.00384903       0.00225873       0.03376519
O       -2.33531383       6.11277998       3.74489763       23      -0.00084654      -0.02705061      -0.02067735
O        3.49602784       1.98939874       7.44533049       24      -0.02522138      -0.00981500       0.02067735
O        5.38090816      -1.80565917       3.71525445       25       0.00084654       0.02705061       0.02067735
O        6.54162218       3.32525732       1.73028064       26      -0.02522138      -0.01299961      -0.01883871
O        3.75587484       2.34034690       4.02395655       27      -0.00084654      -0.00438181       0.03376519
O        0.71028050       4.46823556       7.15144997       28      -0.00084654       0.03143242      -0.01308784
O        2.33531383      -0.16111474       0.30870210       29       0.00084654      -0.03143242       0.01308784
O       -3.49602785       0.98186350       5.72987143       30       0.02522138       0.01299961       0.01883871
O        5.16085029       0.81219150       2.02416115       31      -0.02991695      -0.00649473       0.01492647
O        0.95454194       1.32425441       5.75423719       32      -0.00384903       0.03037088       0.01492647
O        3.49602784      -1.00753524       5.74469303       33      -0.02522138       0.02281461      -0.00183864
O        2.11525595      -0.00551032       3.42137393       34      -0.02991695      -0.00967934      -0.01308784
O        0.95454194      -2.13949283       7.16627157       35      -0.00384903      -0.00225873      -0.03376519
O       -0.71028051       1.96677391       3.43619553       36       0.00084654       0.00438181      -0.03376519
O       -0.95454194      -0.81523842       5.46035668       37       0.00384903       0.02811214      -0.01883871
O       -0.45043351       5.31465606       1.71545905       38       0.02522138      -0.02281461       0.00183864
O        3.97593271       5.11380199       5.44553509       39       0.02991695      -0.01617407       0.00183864
40
Lattice="9.136783001756354 7.161201028196434e-10 7.080523721735313e-15 -3.0455943345939507 8.614241624790488 -1.240354016794675e-09 -3.0455943335812106 -4.307120811679129 7.460152082232806" Properties=species:S:1:pos:R:3:spacegroup_kinds:I:1:forces:R:3 spacegroup="P 1" unit_cell=conventional occupancy="_JSON {\"0\": {\"In\": 1}, \"1\": {\"In\": 1}, \"2\": {\"In\": 1}, \"3\": {\"In\": 1}, \"4\": {\"In\": 1}, \"5\": {\"In\": 1}, \"6\": {\"In\": 1}, \"7\": {\"In\": 1}, \"8\": {\"In\": 1}, \"9\": {\"In\": 1}, \"10\": {\"In\": 1}, \"11\": {\"In\": 1}, \"12\": {\"In\": 1}, \"13\": {\"In\": 1}, \"14\": {\"In\": 1}, \"15\": {\"In\": 1}, \"16\": {\"O\": 1}, \"17\": {\"O\": 1}, \"18\": {\"O\": 1}, \"19\": {\"O\": 1}, \"20\": {\"O\": 1}, \"21\": {\"O\": 1}, \"22\": {\"O\": 1}, \"23\": {\"O\": 1}, \"24\": {\"O\": 1}, \"25\": {\"O\": 1}, \"26\": {\"O\": 1}, \"27\": {\"O\": 1}, \"28\": {\"O\": 1}, \"29\": {\"O\": 1}, \"30\": {\"O\": 1}, \"31\": {\"O\": 1}, \"32\": {\"O\": 1}, \"33\": {\"O\": 1}, \"34\": {\"O\": 1}, \"35\": {\"O\": 1}, \"36\": {\"O\": 1}, \"37\": {\"O\": 1}, \"38\": {\"O\": 1}, \"39\": {\"O\": 1}}" n_minim_iter=4 energy=-45151.02814687849 stress="0.041947424441818065 6.114189402654342e-13 -4.298125946662996e-13 6.114189402654342e-13 0.04194742444188455 -6.009333496309563e-13 -4.298125946662996e-13 -6.009333496309563e-13 0.041947424443297056" free_energy=-45151.02814687849 pbc="T T T"
In      -4.34193503       3.07021170       5.87246547        0      -0.01576900       0.01115036      -0.01931300
In       7.38752936       1.23690912       1.58768661        1       0.01576900      -0.01115036       0.01931300
In       1.29634069      -0.91665129       5.31776265        2       0.01576900      -0.01115036       0.01931300
In      -1.52279717      -2.15356040       3.73007604        3      -0.00000000      -0.00000000      -0.00000000
In      -1.29634069       4.14699190       3.45272463        4      -0.01576900       0.01115036       0.01931300
In       4.79484798      -2.91008279       5.59511406        5      -0.01576900      -0.02230073       0.00000000
In      -1.29634069       1.39703802       5.59511406        6      -0.01576900      -0.02230073       0.00000000
In      -1.74925364       7.21720360       1.86503802        7       0.01576900       0.02230073      -0.00000000
In       4.34193502       0.16012891       4.00742745        8       0.01576900      -0.01115036      -0.01931300
In      -1.52279717       4.30712081      -0.00000000        9      -0.00000000      -0.00000000       0.00000000
In       4.34193502       6.62081013       0.27735140       10       0.01576900      -0.01115036      -0.01931300
In      -1.29634069      -2.31368931       7.18280067       11      -0.01576900       0.01115036       0.01931300
In       4.34193502       2.91008279       1.86503802       12       0.01576900       0.02230073      -0.00000000
In       1.74925364       5.22377211       2.14238942       13      -0.01576900       0.01115036      -0.01931300
In       4.56839150       0.00000000      -0.00000000       14      -0.00000000      -0.00000000      -0.00000000
In       1.52279717       2.15356041       3.73007604       15       0.00000000      -0.00000000      -0.00000000
O        0.93395600       4.31389641       4.03773809       16       0.02572180      -0.00417786       0.03018967
O       -2.11163833       3.49339597       5.43541519       17       0.02572180       0.02823395      -0.01147671
O       -0.44948038       2.31807281       0.01098254       18       0.03125424       0.02432193      -0.00470088
O       -0.93395600      -0.80694925       2.01300121       19      -0.02572180       0.02405610       0.01871297
O        3.99748475       5.12041084       2.00201867       20       0.01804529      -0.02677015       0.02341385
O        2.09370392       2.97996680       1.70533915       21      -0.01804529      -0.03366206      -0.01147671
O        2.09370392       6.44756485       0.29667951       22      -0.01804529       0.00689191       0.03489055
O       -2.33532680       6.11176445       3.74105858       23      -0.01251285      -0.03757409      -0.00470088
O        3.49507471       1.98904801       7.44916954       24      -0.03125424      -0.02432193       0.00470088
O        5.38092113      -1.80464363       3.71909350       25       0.01251285       0.03757409       0.00470088
O        6.54066905       3.32210797       1.72805737       26      -0.03125424       0.00808988      -0.02341385
O        3.75586187       2.33752995       4.02675555       27      -0.01251285       0.01471596       0.03489055
O        0.71026753       4.47206804       7.15249002       28      -0.01251285       0.02285813      -0.03018967
O        2.33532680      -0.16494722       0.30766205       29       0.01251285      -0.02285813       0.03018967
O       -3.49507472       0.98501284       5.73209471       30       0.03125424      -0.00808988       0.02341385
O        5.15723266       0.81372485       2.02473688       31      -0.02572180      -0.02823395       0.01147671
O        0.95189041       1.32715402       5.75481292       32       0.01804529       0.03366206       0.01147671
O        3.49507471      -1.00403516       5.74307725       33      -0.03125424       0.01623204       0.01871297
O        2.11163833      -0.00677559       3.42241398       34      -0.02572180       0.00417786      -0.03018967
O        0.95189041      -2.14044404       7.16347256       35       0.01804529      -0.00689191      -0.03489055
O       -0.71026754       1.96959086       3.43339652       36       0.01251285      -0.01471596      -0.03489055
O       -0.95189042      -0.81329002       5.45813341       37      -0.01804529       0.02677015      -0.02341385
O       -0.44948038       5.31115597       1.71707483       38       0.03125424      -0.01623204      -0.01871297
O        3.97955033       5.11407006       5.44715087       39       0.02572180      -0.02405610      -0.01871297
40
Lattice="9.136783001756356 7.161201028196433e-10 7.080523721735313e-15 -3.045594334593951 8.614241624790488 -1.2403540167946754e-09 -3.045594333581211 -4.307120811679129 7.460152082232808" Properties=species:S:1:pos:R:3:spacegroup_kinds:I:1:forces:R:3 spacegroup="P 1" unit_cell=conventional occupancy="_JSON {\"0\": {\"In\": 1}, \"1\": {\"In\": 1}, \"2\": {\"In\": 1}, \"3\": {\"In\": 1}, \"4\": {\"In\": 1}, \"5\": {\"In\": 1}, \"6\": {\"In\": 1}, \"7\": {\"In\": 1}, \"8\": {\"In\": 1}, \"9\": {\"In\": 1}, \"10\": {\"In\": 1}, \"11\": {\"In\": 1}, \"12\": {\"In\": 1}, \"13\": {\"In\": 1}, \"14\": {\"In\": 1}, \"15\": {\"In\": 1}, \"16\": {\"O\": 1}, \"17\": {\"O\": 1}, \"18\": {\"O\": 1}, \"19\": {\"O\": 1}, \"20\": {\"O\": 1}, \"21\": {\"O\": 1}, \"22\": {\"O\": 1}, \"23\": {\"O\": 1}, \"24\": {\"O\": 1}, \"25\": {\"O\": 1}, \"26\": {\"O\": 1}, \"27\": {\"O\": 1}, \"28\": {\"O\": 1}, \"29\": {\"O\": 1}, \"30\": {\"O\": 1}, \"31\": {\"O\": 1}, \"32\": {\"O\": 1}, \"33\": {\"O\": 1}, \"34\": {\"O\": 1}, \"35\": {\"O\": 1}, \"36\": {\"O\": 1}, \"37\": {\"O\": 1}, \"38\": {\"O\": 1}, \"39\": {\"O\": 1}}" n_minim_iter=5 energy=-45151.031278990806 stress="0.042116233182617875 3.271264142710406e-13 -1.4437252472527083e-13 3.271264142710406e-13 0.04211623318059861 1.6129714346301283e-13 -1.4437252472527083e-13 1.6129714346301283e-13 0.042116233181513384" free_energy=-45151.031278990806 pbc="T T T"
In      -4.34188030       3.07017301       5.87253249        0       0.00207976      -0.00147061       0.00254717
In       7.38747463       1.23694781       1.58761959        1      -0.00207976       0.00147061      -0.00254717
In       1.29628597      -0.91661260       5.31769563        2      -0.00207976       0.00147061      -0.00254717
In      -1.52279717      -2.15356040       3.73007604        3      -0.00000000       0.00000000       0.00000000
In      -1.29628597       4.14695321       3.45265761        4       0.00207976      -0.00147061      -0.00254717
In       4.79490270      -2.91000540       5.59511406        5       0.00207976       0.00294122      -0.00000000
In      -1.29628597       1.39711542       5.59511406        6       0.00207976       0.00294122       0.00000000
In      -1.74930837       7.21712621       1.86503802        7      -0.00207976      -0.00294122       0.00000000
In       4.34188030       0.16016761       4.00749447        8      -0.00207976       0.00147061       0.00254717
In      -1.52279717       4.30712081      -0.00000000        9      -0.00000000      -0.00000000      -0.00000000
In       4.34188030       6.62084883       0.27741843       10      -0.00207976       0.00147061       0.00254717
In      -1.29628597      -2.31372801       7.18273365       11       0.00207976      -0.00147061      -0.00254717
In       4.34188030       2.91000540       1.86503802       12      -0.00207976      -0.00294122      -0.00000000
In       1.74930837       5.22373341       2.14245645       13       0.00207976      -0.00147061       0.00254717
In       4.56839150       0.00000000      -0.00000000       14       0.00000000      -0.00000000      -0.00000000
In       1.52279717       2.15356041       3.73007604       15       0.00000000       0.00000000      -0.00000000
O        0.94056241       4.31543623       4.04102580       16       0.00770233      -0.02624406      -0.00348769
O       -2.10503192       3.49547329       5.43243781       17       0.00770233       0.01010160       0.02447186
O       -0.44386797       2.32085300       0.00678777       18      -0.01265181       0.02449415      -0.00045676
O       -0.94056241      -0.80333210       2.01331153       19      -0.00770233      -0.01614245       0.02098418
O        3.99724113       5.11437184       2.00652376       20       0.00695644       0.01587874       0.02144094
O        2.09394753       2.97304577       1.70236177       21      -0.00695644      -0.01062903       0.02447186
O        2.09394753       6.44844688       0.30416199       22      -0.00695644       0.02650777      -0.00303092
O       -2.33607718       6.10554629       3.73686381       23      -0.02731058       0.00376352      -0.00045676
O        3.48946230       1.98626782       7.45336431       24       0.01265181      -0.02449415       0.00045676
O        5.38167151      -1.79842547       3.72328827       25       0.02731058      -0.00376352       0.00045676
O        6.53505663       3.31986529       1.72355227       26       0.01265181       0.01185151      -0.02144094
O        3.75511149       2.33700626       4.03423803       27      -0.02731058      -0.00227733      -0.00303092
O        0.70951716       4.47880990       7.14920232       28      -0.02731058      -0.00148619       0.00348769
O        2.33607717      -0.17168908       0.31094976       29       0.02731058       0.00148619      -0.00348769
O       -3.48946230       0.98725553       5.73659980       30      -0.01265181      -0.01185151       0.02144094
O        5.15062625       0.81164752       2.02771426       31      -0.00770233      -0.01010160      -0.02447186
O        0.95164680       1.33407504       5.75779030       32       0.00695644       0.01062903      -0.02447186
O        3.48946230      -0.99901229       5.74338758       33       0.01265181       0.01264265       0.02098418
O        2.10503192      -0.00831542       3.41912628       34      -0.00770233       0.02624406       0.00348769
O        0.95164680      -2.14132606       7.15599009       35       0.00695644      -0.02650777       0.00303092
O       -0.70951716       1.97011456       3.42591405       36       0.02731058       0.00227733       0.00303092
O       -0.95164680      -0.80725102       5.45362831       37      -0.00695644      -0.01587874      -0.02144094
O       -0.44386797       5.30613311       1.71676450       38      -0.01265181      -0.01264265      -0.02098418
O        3.98615674       5.11045292       5.44684054       39       0.00770233       0.01614245      -0.02098418
40