40
Lattice="8.192649779468022 6.421150156491716e-10 3.3696128195787187e-14 -2.730883260428067 7.7241042863837155 -1.1121846959610872e-09 -2.730883259520008 -3.8620521425497456 6.689270534230007" Properties=species:S:1:pos:R:3:spacegroup_kinds:I:1:forces:R:3 spacegroup="P 1" unit_cell=conventional occupancy="_JSON {\"0\": {\"In\": 1}, \"1\": {\"In\": 1}, \"2\": {\"In\": 1}, \"3\": {\"In\": 1}, \"4\": {\"In\": 1}, \"5\": {\"In\": 1}, \"6\": {\"In\": 1}, \"7\": {\"In\": 1}, \"8\": {\"In\": 1}, \"9\": {\"In\": 1}, \"10\": {\"In\": 1}, \"11\": {\"In\": 1}, \"12\": {\"In\": 1}, \"13\": {\"In\": 1}, \"14\": {\"In\": 1}, \"15\": {\"In\": 1}, \"16\": {\"O\": 1}, \"17\": {\"O\": 1}, \"18\": {\"O\": 1}, \"19\": {\"O\": 1}, \"20\": {\"O\": 1}, \"21\": {\"O\": 1}, \"22\": {\"O\": 1}, \"23\": {\"O\": 1}, \"24\": {\"O\": 1}, \"25\": {\"O\": 1}, \"26\": {\"O\": 1}, \"27\": {\"O\": 1}, \"28\": {\"O\": 1}, \"29\": {\"O\": 1}, \"30\": {\"O\": 1}, \"31\": {\"O\": 1}, \"32\": {\"O\": 1}, \"33\": {\"O\": 1}, \"34\": {\"O\": 1}, \"35\": {\"O\": 1}, \"36\": {\"O\": 1}, \"37\": {\"O\": 1}, \"38\": {\"O\": 1}, \"39\": {\"O\": 1}}" n_minim_iter=7 energy=-45135.065041693444 stress="-0.365634146787306 2.6767598424866495e-13 1.2690367058856052e-13 2.6767598424866495e-13 -0.36563414678724304 -1.131971142339539e-12 1.2690367058856052e-13 -1.131971142339539e-12 -0.36563414678733985" free_energy=-45135.065041693444 pbc="T T T"
In      -3.86097620       2.73012246       5.30519500        0      -0.00181007       0.00127991      -0.00221687
In       6.59185946       1.13192969       1.38407553        1       0.00181007      -0.00127991       0.00221687
In       1.13009294      -0.79909638       4.72871080        2       0.00181007      -0.00127991       0.00221687
In      -1.36544163      -1.93102607       3.34463526        3       0.00000000      -0.00000000       0.00000000
In      -1.13009294       3.69563549       3.05639316        4      -0.00181007       0.00127991       0.00221687
In       4.33167358      -2.56370580       5.01695290        5      -0.00181007      -0.00255982      -0.00000000
In      -1.13009294       1.29834634       5.01695290        6      -0.00181007      -0.00255982       0.00000000
In      -1.60079032       6.42575795       1.67231763        7       0.00181007       0.00255982       0.00000000
In       3.86097620       0.16641666       3.63287736        8       0.00181007      -0.00127991      -0.00221687
In      -1.36544163       3.86205214      -0.00000000        9       0.00000000       0.00000000       0.00000000
In       3.86097620       5.95949487       0.28824210       10       0.00181007      -0.00127991      -0.00221687
In      -1.13009294      -2.09744272       6.40102843       11      -0.00181007       0.00127991       0.00221687
In       3.86097620       2.56370580       1.67231763       12       0.00181007       0.00255982       0.00000000
In       1.60079032       4.66114853       1.96055973       13      -0.00181007       0.00127991      -0.00221687
In       4.09632489       0.00000000      -0.00000000       14       0.00000000       0.00000000      -0.00000000
In       1.36544163       1.93102607       3.34463526       15      -0.00000000      -0.00000000       0.00000000
O        0.79997179       3.84420140       3.74877959       16       0.00045591      -0.00492441       0.00068631
O       -1.93091147       3.25546373       4.83033994       17       0.00045591       0.00305657       0.00392151
O       -0.32206962       2.11784075       0.11149020       18      -0.00160905       0.00451671       0.00139246
O       -0.79997180      -0.62443916       1.88984899       19      -0.00045591      -0.00186784       0.00460782
O        3.71291779       4.55086020       1.77835879       20       0.00272979       0.00267178       0.00321536
O        1.74884872       2.66635228       1.48570467       21      -0.00272979      -0.00144869       0.00392151
O        1.74884872       5.74656006       0.29265412       22      -0.00272979       0.00412047      -0.00070615
O       -2.10407595       5.39078145       3.45612547       23      -0.00479475       0.00001145       0.00139246
O        3.05295288       1.74421139       6.57778033       24       0.00160905      -0.00451671      -0.00139246
O        4.83495921      -1.52872930       3.23314506       25       0.00479475      -0.00001145      -0.00139246
O        5.78383614       3.08649980       1.56627647       26       0.00160905       0.00346426      -0.00321536
O        3.35769057       2.22872781       3.63728938       27      -0.00479475       0.00120018      -0.00070615
O        0.62680731       3.96664718       6.28512621       28      -0.00479475      -0.00121163      -0.00068631
O        2.10407595      -0.10459503       0.40414432       29       0.00479475       0.00121163       0.00068631
O       -3.05295288       0.77555235       5.12299406       30      -0.00160905      -0.00346426       0.00321536
O        4.66179472       0.60658841       1.85893059       31      -0.00045591      -0.00305657      -0.00392151
O        0.98203453       1.19569986       5.20356586       32       0.00272979       0.00144869      -0.00392151
O        3.05295288      -0.96865904       5.23448426       33       0.00160905       0.00105245       0.00460782
O        1.93091146       0.01785075       2.94049094       34      -0.00045591       0.00492441      -0.00068631
O        0.98203453      -1.88450792       6.39661641       35       0.00272979      -0.00412047       0.00070615
O       -0.62680731       1.63332434       3.05198114       36       0.00479475      -0.00120018       0.00070615
O       -0.98203454      -0.68880806       4.91091174       37      -0.00272979      -0.00267178      -0.00321536
O       -0.32206962       4.83071119       1.45478627       38      -0.00160905      -0.00105245      -0.00460782
O        3.53085505       4.48649130       4.79942154       39       0.00045591       0.00186784      -0.00460782
