40
Lattice="8.448834396778198 6.621958890673016e-10 1.233720243245088e-14 -2.816278132883723 7.965637459891293 -1.1469633158390287e-09 -2.8162781319472474 -3.9828187292834487 6.898444398367442" Properties=species:S:1:pos:R:3:spacegroup_kinds:I:1:forces:R:3 spacegroup="P 1" unit_cell=conventional occupancy="_JSON {\"0\": {\"In\": 1}, \"1\": {\"In\": 1}, \"2\": {\"In\": 1}, \"3\": {\"In\": 1}, \"4\": {\"In\": 1}, \"5\": {\"In\": 1}, \"6\": {\"In\": 1}, \"7\": {\"In\": 1}, \"8\": {\"In\": 1}, \"9\": {\"In\": 1}, \"10\": {\"In\": 1}, \"11\": {\"In\": 1}, \"12\": {\"In\": 1}, \"13\": {\"In\": 1}, \"14\": {\"In\": 1}, \"15\": {\"In\": 1}, \"16\": {\"O\": 1}, \"17\": {\"O\": 1}, \"18\": {\"O\": 1}, \"19\": {\"O\": 1}, \"20\": {\"O\": 1}, \"21\": {\"O\": 1}, \"22\": {\"O\": 1}, \"23\": {\"O\": 1}, \"24\": {\"O\": 1}, \"25\": {\"O\": 1}, \"26\": {\"O\": 1}, \"27\": {\"O\": 1}, \"28\": {\"O\": 1}, \"29\": {\"O\": 1}, \"30\": {\"O\": 1}, \"31\": {\"O\": 1}, \"32\": {\"O\": 1}, \"33\": {\"O\": 1}, \"34\": {\"O\": 1}, \"35\": {\"O\": 1}, \"36\": {\"O\": 1}, \"37\": {\"O\": 1}, \"38\": {\"O\": 1}, \"39\": {\"O\": 1}}" n_minim_iter=1 energy=-45145.85730669599 stress="-0.18583415623919514 7.125573216428329e-13 -4.2247699119938163e-13 7.125573216428329e-13 -0.18583415624042943 8.974099865712538e-13 -4.2247699119938163e-13 8.974099865712538e-13 -0.18583415623893576" free_energy=-45145.85730669599 pbc="T T T"
In      -4.03281129       2.85162821       5.40850166        0      -0.00004440       0.00003139      -0.00005438
In       6.84908941       1.13119053       1.48994274        1       0.00004440      -0.00003139       0.00005438
In       1.21653315      -0.86021884       4.93916493        2       0.00004440      -0.00003139       0.00005438
In      -1.40813907      -1.99140936       3.44922220        3       0.00000000       0.00000000      -0.00000000
In      -1.21653315       3.84733289       3.21455383        4      -0.00004440       0.00003139       0.00005438
In       4.41602311      -2.71614236       5.17383330        5      -0.00004440      -0.00006279      -0.00000000
In      -1.21653315       1.26667637       5.17383330        6      -0.00004440      -0.00006279       0.00000000
In      -1.59974498       6.69896110       1.72461110        7       0.00004440       0.00006279      -0.00000000
In       4.03281128       0.13548584       3.68389056        8       0.00004440      -0.00003139      -0.00005438
In      -1.40813907       3.98281873      -0.00000000        9      -0.00000000      -0.00000000       0.00000000
In       4.03281128       6.10971394       0.23466836       10       0.00004440      -0.00003139      -0.00005438
In      -1.21653315      -2.12689520       6.66377603       11      -0.00004440       0.00003139       0.00005438
In       4.03281128       2.71614237       1.72461110       12       0.00004440       0.00006279      -0.00000000
In       1.59974498       4.84303757       1.95927946       13      -0.00004440       0.00003139      -0.00005438
In       4.22441720       0.00000000      -0.00000000       14       0.00000000      -0.00000000      -0.00000000
In       1.40813906       1.99140937       3.44922220       15      -0.00000000       0.00000000       0.00000000
O        0.81309202       3.97210243       3.78671500       16       0.00517415      -0.05305831       0.07082354
O       -2.00318611       3.28474955       5.01436749       17       0.00517415       0.08786414       0.01053807
O       -0.39721870       2.14915910       0.08282344       18       0.03453997       0.06709937       0.04650371
O       -0.81309202      -0.70878549       1.90263810       19      -0.00517415       0.03480583       0.08136162
O        3.76462027       4.73942236       1.81981465       20       0.08111439      -0.00795690       0.03485791
O        1.86793599       2.78511483       1.56514529       21      -0.08111439      -0.03416628       0.01053807
O        1.86793599       5.93712626       0.25466936       22      -0.08111439       0.02620938       0.02431983
O       -2.15865286       5.63234311       3.53204564       23      -0.05174857      -0.05493105       0.04650371
O        3.21349683       1.83365964       6.81562095       24      -0.03453997      -0.06709937      -0.04650371
O        4.97493099      -1.64952437       3.36639875       25       0.05174857       0.05493105      -0.04650371
O        6.02977496       3.13771612       1.62940755       26      -0.03453997       0.07382308      -0.03485791
O        3.47390340       2.23407907       3.70389156       27      -0.05174857       0.06773892       0.02431983
O        0.65762527       4.08203402       6.56095159       28      -0.05174857      -0.01280787      -0.07082354
O        2.15865286      -0.09921528       0.33749281       29       0.05174857       0.01280787       0.07082354
O       -3.21349683       0.84510261       5.26903685       30       0.03453997      -0.07382308       0.03485791
O        4.81946424       0.69806919       1.88407691       31      -0.00517415      -0.08786414      -0.01053807
O        0.94834214       1.19770390       5.33329911       32       0.08111439       0.03416628      -0.01053807
O        3.21349683      -0.98855702       5.35186029       33      -0.03453997      -0.00672371       0.08136162
O        2.00318611       0.01071631       3.11172939       34      -0.00517415       0.05305831      -0.07082354
O        0.94834214      -1.95430753       6.64377503       35       0.08111439      -0.02620938      -0.02431983
O       -0.65762527       1.74873966       3.19455284       36       0.05174857      -0.06773892      -0.02431983
O       -0.94834214      -0.75660363       5.07862975       37      -0.08111439       0.00795690      -0.03485791
O       -0.39721870       4.97137576       1.54658410       38       0.03453997       0.00672371      -0.08136162
O        3.62937015       4.69160422       4.99580630       39       0.00517415      -0.03480583      -0.08136162
40
Lattice="8.448834396778194 6.621958890673015e-10 1.2337202432450877e-14 -2.8162781328837228 7.965637459891293 -1.1469633158390284e-09 -2.816278131947247 -3.9828187292834487 6.898444398367441" Properties=species:S:1:pos:R:3:spacegroup_kinds:I:1:forces:R:3 spacegroup="P 1" unit_cell=conventional occupancy="_JSON {\"0\": {\"In\": 1}, \"1\": {\"In\": 1}, \"2\": {\"In\": 1}, \"3\": {\"In\": 1}, \"4\": {\"In\": 1}, \"5\": {\"In\": 1}, \"6\": {\"In\": 1}, \"7\": {\"In\": 1}, \"8\": {\"In\": 1}, \"9\": {\"In\": 1}, \"10\": {\"In\": 1}, \"11\": {\"In\": 1}, \"12\": {\"In\": 1}, \"13\": {\"In\": 1}, \"14\": {\"In\": 1}, \"15\": {\"In\": 1}, \"16\": {\"O\": 1}, \"17\": {\"O\": 1}, \"18\": {\"O\": 1}, \"19\": {\"O\": 1}, \"20\": {\"O\": 1}, \"21\": {\"O\": 1}, \"22\": {\"O\": 1}, \"23\": {\"O\": 1}, \"24\": {\"O\": 1}, \"25\": {\"O\": 1}, \"26\": {\"O\": 1}, \"27\": {\"O\": 1}, \"28\": {\"O\": 1}, \"29\": {\"O\": 1}, \"30\": {\"O\": 1}, \"31\": {\"O\": 1}, \"32\": {\"O\": 1}, \"33\": {\"O\": 1}, \"34\": {\"O\": 1}, \"35\": {\"O\": 1}, \"36\": {\"O\": 1}, \"37\": {\"O\": 1}, \"38\": {\"O\": 1}, \"39\": {\"O\": 1}}" n_minim_iter=2 energy=-45145.863820012455 stress="-0.18456644736629987 -5.051815610945118e-13 -3.732062548337532e-13 -5.051815610945118e-13 -0.1845664473640033 5.350848170038545e-13 -3.732062548337532e-13 5.350848170038545e-13 -0.18456644736438113" free_energy=-45145.863820012455 pbc="T T T"
In      -4.03281436       2.85163038       5.40849789        0       0.04081357      -0.02885955       0.04998621
In       6.84909249       1.13118835       1.48994650        1      -0.04081357       0.02885955      -0.04998621
In       1.21653622      -0.86022101       4.93916870        2      -0.04081357       0.02885955      -0.04998621
In      -1.40813907      -1.99140936       3.44922220        3       0.00000000       0.00000000      -0.00000000
In      -1.21653623       3.84733506       3.21455760        4       0.04081357      -0.02885955      -0.04998621
In       4.41602004      -2.71614671       5.17383330        5       0.04081357       0.05771910      -0.00000000
In      -1.21653623       1.26667202       5.17383330        6       0.04081357       0.05771910      -0.00000000
In      -1.59974191       6.69896544       1.72461110        7      -0.04081357      -0.05771910       0.00000000
In       4.03281435       0.13548367       3.68388680        8      -0.04081357       0.02885955       0.04998621
In      -1.40813907       3.98281873      -0.00000000        9       0.00000000      -0.00000000       0.00000000
In       4.03281435       6.10971177       0.23466460       10      -0.04081357       0.02885955       0.04998621
In      -1.21653622      -2.12689303       6.66377980       11       0.04081357      -0.02885955      -0.04998621
In       4.03281435       2.71614671       1.72461110       12      -0.04081357      -0.05771910       0.00000000
In       1.59974191       4.84303975       1.95927570       13       0.04081357      -0.02885955       0.04998621
In       4.22441720       0.00000000      -0.00000000       14      -0.00000000       0.00000000      -0.00000000
In       1.40813906       1.99140937       3.44922220       15      -0.00000000      -0.00000000       0.00000000
O        0.81345004       3.96843110       3.79161558       16      -0.01634108      -0.00755026      -0.00441600
O       -2.00282809       3.29082924       5.01509666       17      -0.01634108      -0.00004924       0.00874672
O       -0.39482873       2.15380199       0.08604123       18      -0.01261190      -0.00268617       0.01331401
O       -0.81345004      -0.70637713       1.90826785       19       0.01634108      -0.00759950       0.00433071
O        3.77023292       4.73887179       1.82222661       20       0.00540060       0.01528634      -0.00898329
O        1.86232334       2.78275072       1.56587446       21      -0.00540060       0.01542293       0.00874672
O        1.86232334       5.93893980       0.25635215       22      -0.00540060      -0.00013659      -0.01773001
O       -2.16223356       5.62854220       3.53526343       23      -0.00167142       0.01278601       0.01331401
O        3.21110686       1.82901675       6.81240316       24       0.01261190       0.00268617      -0.01331401
O        4.97851169      -1.64572346       3.36318096       25       0.00167142      -0.01278601      -0.01331401
O        6.02738499       3.14282425       1.62699558       26       0.01261190       0.01018718       0.00898329
O        3.47032270       2.23876621       3.70557435       27      -0.00167142       0.00513726      -0.01773001
O        0.65404457       4.08114779       6.55605101       28      -0.00167142      -0.01792327       0.00441600
O        2.16223356      -0.09832905       0.34239339       29       0.00167142       0.01792327      -0.00441600
O       -3.21110686       0.83999448       5.27144881       30      -0.01261190      -0.01018718      -0.00898329
O        4.81910622       0.69198950       1.88334773       31       0.01634108       0.00004924      -0.00874672
O        0.95395479       1.20006801       5.33256993       32       0.00540060      -0.01542293      -0.00874672
O        3.21110686      -0.98902227       5.35749005       33       0.01261190      -0.01287335       0.00433071
O        2.00282809       0.01438764       3.10682881       34       0.01634108       0.00755026       0.00441600
O        0.95395479      -1.95612107       6.64209224       35       0.00540060       0.00013659       0.01773001
O       -0.65404457       1.74405252       3.19287004       36       0.00167142      -0.00513726       0.01773001
O       -0.95395479      -0.75605306       5.07621778       37      -0.00540060      -0.01528634       0.00898329
O       -0.39482873       4.97184100       1.54095435       38      -0.01261190       0.01287335      -0.00433071
O        3.62972817       4.68919586       4.99017654       39      -0.01634108       0.00759950      -0.00433071
40
Lattice="8.448834396778187 6.621958890673011e-10 1.2337202432450868e-14 -2.816278132883721 7.965637459891289 -1.146963315839028e-09 -2.816278131947245 -3.9828187292834465 6.898444398367437" Properties=species:S:1:pos:R:3:spacegroup_kinds:I:1:forces:R:3 spacegroup="P 1" unit_cell=conventional occupancy="_JSON {\"0\": {\"In\": 1}, \"1\": {\"In\": 1}, \"2\": {\"In\": 1}, \"3\": {\"In\": 1}, \"4\": {\"In\": 1}, \"5\": {\"In\": 1}, \"6\": {\"In\": 1}, \"7\": {\"In\": 1}, \"8\": {\"In\": 1}, \"9\": {\"In\": 1}, \"10\": {\"In\": 1}, \"11\": {\"In\": 1}, \"12\": {\"In\": 1}, \"13\": {\"In\": 1}, \"14\": {\"In\": 1}, \"15\": {\"In\": 1}, \"16\": {\"O\": 1}, \"17\": {\"O\": 1}, \"18\": {\"O\": 1}, \"19\": {\"O\": 1}, \"20\": {\"O\": 1}, \"21\": {\"O\": 1}, \"22\": {\"O\": 1}, \"23\": {\"O\": 1}, \"24\": {\"O\": 1}, \"25\": {\"O\": 1}, \"26\": {\"O\": 1}, \"27\": {\"O\": 1}, \"28\": {\"O\": 1}, \"29\": {\"O\": 1}, \"30\": {\"O\": 1}, \"31\": {\"O\": 1}, \"32\": {\"O\": 1}, \"33\": {\"O\": 1}, \"34\": {\"O\": 1}, \"35\": {\"O\": 1}, \"36\": {\"O\": 1}, \"37\": {\"O\": 1}, \"38\": {\"O\": 1}, \"39\": {\"O\": 1}}" n_minim_iter=3 energy=-45145.86523504828 stress="-0.18418807132325 3.790339557686803e-13 5.557876229431382e-13 3.790339557686803e-13 -0.1841880713232881 6.863003843160016e-13 5.557876229431382e-13 6.863003843160016e-13 -0.18418807132306392" free_energy=-45145.86523504828 pbc="T T T"
In      -4.03112032       2.85043251       5.41057266        0       0.00520403      -0.00367980       0.00637361
In       6.84739845       1.13238622       1.48787173        1      -0.00520403       0.00367980      -0.00637361
In       1.21484218      -0.85902314       4.93709393        2      -0.00520403       0.00367980      -0.00637361
In      -1.40813907      -1.99140936       3.44922220        3      -0.00000000      -0.00000000      -0.00000000
In      -1.21484218       3.84613719       3.21248283        4       0.00520403      -0.00367980      -0.00637361
In       4.41771408      -2.71375097       5.17383330        5       0.00520403       0.00735961      -0.00000000
In      -1.21484218       1.26906776       5.17383330        6       0.00520403       0.00735961      -0.00000000
In      -1.60143595       6.69656970       1.72461110        7      -0.00520403      -0.00735961      -0.00000000
In       4.03112031       0.13668154       3.68596156        8      -0.00520403       0.00367980       0.00637361
In      -1.40813907       3.98281873      -0.00000000        9       0.00000000      -0.00000000       0.00000000
In       4.03112031       6.11090963       0.23673936       10      -0.00520403       0.00367980       0.00637361
In      -1.21484218      -2.12809090       6.66170503       11       0.00520403      -0.00367980      -0.00637361
In       4.03112031       2.71375098       1.72461110       12      -0.00520403      -0.00735961       0.00000000
In       1.60143595       4.84184188       1.96135046       13       0.00520403      -0.00367980       0.00637361
In       4.22441720       0.00000000      -0.00000000       14      -0.00000000       0.00000000      -0.00000000
In       1.40813906       1.99140937       3.44922220       15       0.00000000      -0.00000000       0.00000000
O        0.81284928       3.96732004       3.79249680       16       0.00262851       0.02482967       0.01810657
O       -2.00342885       3.29214792       5.01561825       17       0.00262851       0.00326591      -0.03055641
O       -0.39483323       2.15469905       0.08729309       18       0.02736494      -0.01422539      -0.00026059
O       -0.81284928      -0.70616950       1.90967066       19      -0.00262851       0.02809558      -0.01244984
O        3.77167644       4.73938692       1.82237756       20       0.00220296      -0.02824604      -0.01218925
O        1.86087982       2.78287756       1.56639605       21      -0.00220296      -0.00356682      -0.03055641
O        1.86087982       5.93932810       0.25598151       22      -0.00220296      -0.02467922       0.01836716
O       -2.16308082       5.62824742       3.53651529       23       0.02253347      -0.02105812      -0.00026059
O        3.21111136       1.82811968       6.81115130       24      -0.02736494       0.01422539       0.00026059
O        4.97935895      -1.64542868       3.36192910       25      -0.02253347       0.02105812       0.00026059
O        6.02738949       3.14435693       1.62684463       26      -0.02736494      -0.00733837       0.01218925
O        3.46947544       2.23999774       3.70520371       27       0.02253347       0.01030338       0.01836716
O        0.65319731       4.08021103       6.55516979       28       0.02253347       0.01075474      -0.01810657
O        2.16308082      -0.09739230       0.34327460       29      -0.02253347      -0.01075474       0.01810657
O       -3.21111136       0.83846181       5.27159976       30       0.02736494       0.00733837      -0.01218925
O        4.81970698       0.69067081       1.88282614       31      -0.00262851      -0.00326591       0.03055641
O        0.95539831       1.19994117       5.33204834       32       0.00220296       0.00356682       0.03055641
O        3.21111136      -0.98965788       5.35889286       33      -0.02736494      -0.00688702      -0.01244984
O        2.00342885       0.01549869       3.10594759       34      -0.00262851      -0.02482967      -0.01810657
O        0.95539831      -1.95650936       6.64246289       35       0.00220296       0.02467922      -0.01836716
O       -0.65319731       1.74282099       3.19324069       36      -0.02253347      -0.01030338      -0.01836716
O       -0.95539831      -0.75656819       5.07606683       37      -0.00220296       0.02824604       0.01218925
O       -0.39483323       4.97247661       1.53955154       38       0.02736494       0.00688702       0.01244984
O        3.62912741       4.68898823       4.98877373       39       0.00262851      -0.02809558       0.01244984
40
Lattice="8.448834396778187 6.621958890673012e-10 1.2337202432450875e-14 -2.8162781328837214 7.965637459891289 -1.1469633158390278e-09 -2.8162781319472456 -3.9828187292834465 6.898444398367437" Properties=species:S:1:pos:R:3:spacegroup_kinds:I:1:forces:R:3 spacegroup="P 1" unit_cell=conventional occupancy="_JSON {\"0\": {\"In\": 1}, \"1\": {\"In\": 1}, \"2\": {\"In\": 1}, \"3\": {\"In\": 1}, \"4\": {\"In\": 1}, \"5\": {\"In\": 1}, \"6\": {\"In\": 1}, \"7\": {\"In\": 1}, \"8\": {\"In\": 1}, \"9\": {\"In\": 1}, \"10\": {\"In\": 1}, \"11\": {\"In\": 1}, \"12\": {\"In\": 1}, \"13\": {\"In\": 1}, \"14\": {\"In\": 1}, \"15\": {\"In\": 1}, \"16\": {\"O\": 1}, \"17\": {\"O\": 1}, \"18\": {\"O\": 1}, \"19\": {\"O\": 1}, \"20\": {\"O\": 1}, \"21\": {\"O\": 1}, \"22\": {\"O\": 1}, \"23\": {\"O\": 1}, \"24\": {\"O\": 1}, \"25\": {\"O\": 1}, \"26\": {\"O\": 1}, \"27\": {\"O\": 1}, \"28\": {\"O\": 1}, \"29\": {\"O\": 1}, \"30\": {\"O\": 1}, \"31\": {\"O\": 1}, \"32\": {\"O\": 1}, \"33\": {\"O\": 1}, \"34\": {\"O\": 1}, \"35\": {\"O\": 1}, \"36\": {\"O\": 1}, \"37\": {\"O\": 1}, \"38\": {\"O\": 1}, \"39\": {\"O\": 1}}" n_minim_iter=4 energy=-45145.866199063574 stress="-0.18396113999543046 -3.950875142078876e-13 -3.34624818090251e-13 -3.950875142078876e-13 -0.18396113999313488 -1.1634023270608657e-13 -3.34624818090251e-13 -1.1634023270608657e-13 -0.18396113999319025" free_energy=-45145.866199063574 pbc="T T T"
In      -4.02973861       2.84945550       5.41226489        0       0.00241898      -0.00171048       0.00296264
In       6.84601674       1.13336323       1.48617950        1      -0.00241898       0.00171048      -0.00296264
In       1.21346048      -0.85804613       4.93540170        2      -0.00241898       0.00171048      -0.00296264
In      -1.40813907      -1.99140936       3.44922220        3      -0.00000000      -0.00000000      -0.00000000
In      -1.21346048       3.84516018       3.21079060        4       0.00241898      -0.00171048      -0.00296264
In       4.41909578      -2.71179695       5.17383330        5       0.00241898       0.00342096      -0.00000000
In      -1.21346048       1.27102178       5.17383330        6       0.00241898       0.00342096      -0.00000000
In      -1.60281765       6.69461568       1.72461110        7      -0.00241898      -0.00342096      -0.00000000
In       4.02973861       0.13765855       3.68765380        8      -0.00241898       0.00171048       0.00296264
In      -1.40813907       3.98281873      -0.00000000        9       0.00000000       0.00000000      -0.00000000
In       4.02973861       6.11188664       0.23843160       10      -0.00241898       0.00171048       0.00296264
In      -1.21346048      -2.12906791       6.66001280       11       0.00241898      -0.00171048      -0.00296264
In       4.02973861       2.71179695       1.72461110       12      -0.00241898      -0.00342096      -0.00000000
In       1.60281765       4.84086487       1.96304270       13       0.00241898      -0.00171048       0.00296264
In       4.22441720       0.00000000      -0.00000000       14      -0.00000000      -0.00000000      -0.00000000
In       1.40813906       1.99140937       3.44922220       15      -0.00000000       0.00000000      -0.00000000
O        0.81267535       3.96846788       3.79426696       16       0.01019000       0.00195259       0.00229343
O       -2.00360278       3.29310701       5.01373912       17       0.01019000       0.00100987      -0.00283771
O       -0.39290478       2.15417153       0.08798883       18       0.00618971       0.00383851      -0.00773705
O       -0.81267536      -0.70406258       1.90956169       19      -0.01019000       0.00296247      -0.00054428
O        3.77263865       4.73768169       1.82157285       20      -0.00244455      -0.00742946       0.00719277
O        1.85991761       2.78272184       1.56451692       21       0.00244455      -0.00994385      -0.00283771
O        1.85991761       5.93777857       0.25705593       22       0.00244455       0.00251440       0.01003048
O       -2.16194066       5.62660510       3.53721103       23      -0.00155575      -0.00711522      -0.00773705
O        3.20918291       1.82864720       6.81045556       24      -0.00618971      -0.00383851       0.00773705
O        4.97821879      -1.64378636       3.36123336       25       0.00155575       0.00711522       0.00773705
O        6.02546104       3.14469570       1.62764934       26      -0.00618971      -0.00478123      -0.00719277
O        3.47061561       2.24142143       3.70627813       27      -0.00155575      -0.00314288       0.01003048
O        0.65433747       4.08042966       6.55339963       28      -0.00155575       0.01025809      -0.00229343
O        2.16194066      -0.09761093       0.34504476       29       0.00155575      -0.01025809       0.00229343
O       -3.20918291       0.83812303       5.27079505       30       0.00618971       0.00478123       0.00719277
O        4.81988091       0.68971172       1.88470527       31      -0.01019000      -0.00100987       0.00283771
O        0.95636052       1.20009689       5.33392747       32      -0.00244455       0.00994385       0.00283771
O        3.20918291      -0.99052416       5.35878389       33      -0.00618971       0.00861974      -0.00054428
O        2.00360278       0.01435086       3.10417743       34      -0.01019000      -0.00195259      -0.00229343
O        0.95636052      -1.95495984       6.64138847       35      -0.00244455      -0.00251440      -0.01003048
O       -0.65433748       1.74139730       3.19216627       36       0.00155575       0.00314288      -0.01003048
O       -0.95636053      -0.75486295       5.07687154       37       0.00244455       0.00742946      -0.00719277
O       -0.39290478       4.97334290       1.53966051       38       0.00618971      -0.00861974       0.00054428
O        3.62895349       4.68688131       4.98888271       39       0.01019000      -0.00296247       0.00054428
40
Lattice="8.448834396778187 6.621958890673012e-10 1.2337202432450891e-14 -2.8162781328837214 7.965637459891289 -1.1469633158390278e-09 -2.8162781319472456 -3.9828187292834465 6.898444398367437" Properties=species:S:1:pos:R:3:spacegroup_kinds:I:1:forces:R:3 spacegroup="P 1" unit_cell=conventional occupancy="_JSON {\"0\": {\"In\": 1}, \"1\": {\"In\": 1}, \"2\": {\"In\": 1}, \"3\": {\"In\": 1}, \"4\": {\"In\": 1}, \"5\": {\"In\": 1}, \"6\": {\"In\": 1}, \"7\": {\"In\": 1}, \"8\": {\"In\": 1}, \"9\": {\"In\": 1}, \"10\": {\"In\": 1}, \"11\": {\"In\": 1}, \"12\": {\"In\": 1}, \"13\": {\"In\": 1}, \"14\": {\"In\": 1}, \"15\": {\"In\": 1}, \"16\": {\"O\": 1}, \"17\": {\"O\": 1}, \"18\": {\"O\": 1}, \"19\": {\"O\": 1}, \"20\": {\"O\": 1}, \"21\": {\"O\": 1}, \"22\": {\"O\": 1}, \"23\": {\"O\": 1}, \"24\": {\"O\": 1}, \"25\": {\"O\": 1}, \"26\": {\"O\": 1}, \"27\": {\"O\": 1}, \"28\": {\"O\": 1}, \"29\": {\"O\": 1}, \"30\": {\"O\": 1}, \"31\": {\"O\": 1}, \"32\": {\"O\": 1}, \"33\": {\"O\": 1}, \"34\": {\"O\": 1}, \"35\": {\"O\": 1}, \"36\": {\"O\": 1}, \"37\": {\"O\": 1}, \"38\": {\"O\": 1}, \"39\": {\"O\": 1}}" n_minim_iter=5 energy=-45145.86628511553 stress="-0.1838390680292201 1.303931942629962e-13 3.396026360082415e-13 1.303931942629962e-13 -0.18383906802888395 8.957829173401835e-13 3.396026360082415e-13 8.957829173401835e-13 -0.18383906802837402" free_energy=-45145.86628511553 pbc="T T T"
In      -4.02915046       2.84903961       5.41298524        0       0.00256488      -0.00181364       0.00314132
In       6.84542858       1.13377912       1.48545915        1      -0.00256488       0.00181364      -0.00314132
In       1.21287232      -0.85763024       4.93468135        2      -0.00256488       0.00181364      -0.00314132
In      -1.40813907      -1.99140936       3.44922220        3      -0.00000000      -0.00000000      -0.00000000
In      -1.21287232       3.84474429       3.21007025        4       0.00256488      -0.00181364      -0.00314132
In       4.41968394      -2.71096517       5.17383330        5       0.00256488       0.00362728      -0.00000000
In      -1.21287232       1.27185356       5.17383330        6       0.00256488       0.00362728      -0.00000000
In      -1.60340581       6.69378390       1.72461110        7      -0.00256488      -0.00362728       0.00000000
In       4.02915045       0.13807444       3.68837414        8      -0.00256488       0.00181364       0.00314132
In      -1.40813907       3.98281873      -0.00000000        9      -0.00000000       0.00000000       0.00000000
In       4.02915045       6.11230254       0.23915194       10      -0.00256488       0.00181364       0.00314132
In      -1.21287232      -2.12948380       6.65929245       11       0.00256488      -0.00181364      -0.00314132
In       4.02915045       2.71096517       1.72461110       12      -0.00256488      -0.00362728       0.00000000
In       1.60340581       4.84044898       1.96376304       13       0.00256488      -0.00181364       0.00314132
In       4.22441720       0.00000000      -0.00000000       14      -0.00000000      -0.00000000       0.00000000
In       1.40813906       1.99140937       3.44922220       15       0.00000000      -0.00000000       0.00000000
O        0.81294010       3.96874823       3.79504764       16       0.01018160      -0.00370283      -0.00501867
O       -2.00333804       3.29364292       5.01310599       17       0.01018160      -0.00249488       0.00571608
O       -0.39204696       2.15428807       0.08808208       18      -0.00244939       0.00643658      -0.00975366
O       -0.81294010      -0.70324632       1.90970923       19      -0.01018160      -0.00619771       0.00069741
O        3.77305567       4.73691926       1.82162715       20      -0.00574606       0.00056643       0.01045107
O        1.85950059       2.78229361       1.56388379       21       0.00574606      -0.00876768       0.00571608
O        1.85950059       5.93744439       0.25774336       22       0.00574606       0.00933411       0.00473499
O       -2.16176459       5.62575749       3.53730428       23      -0.00688493       0.00016378      -0.00975366
O        3.20832509       1.82853066       6.81036231       24       0.00244939      -0.00643658       0.00975366
O        4.97804272      -1.64293875       3.36114011       25       0.00688493      -0.00016378       0.00975366
O        6.02460322       3.14483472       1.62759504       26       0.00244939      -0.00522863      -0.01045107
O        3.47079167       2.24192599       3.70696556       27      -0.00688493      -0.00852881       0.00473499
O        0.65451354       4.08077272       6.55261895       28      -0.00688493       0.00836503       0.00501867
O        2.16176459      -0.09795398       0.34582544       29       0.00688493      -0.00836503      -0.00501867
O       -3.20832509       0.83798401       5.27084935       30      -0.00244939       0.00522863       0.01045107
O        4.81961617       0.68917581       1.88533840       31      -0.01018160       0.00249488      -0.00571608
O        0.95677753       1.20052513       5.33456060       32      -0.00574606       0.00876768      -0.00571608
O        3.20832509      -0.99054665       5.35893143       33       0.00244939       0.01166521       0.00069741
O        2.00333803       0.01407051       3.10339675       34      -0.01018160       0.00370283       0.00501867
O        0.95677753      -1.95462566       6.64070104       35      -0.00574606      -0.00933411      -0.00473499
O       -0.65451355       1.74089274       3.19147884       36       0.00688493       0.00852881      -0.00473499
O       -0.95677754      -0.75410053       5.07681724       37       0.00574606      -0.00056643      -0.01045107
O       -0.39204696       4.97336538       1.53951296       38      -0.00244939      -0.01166521      -0.00069741
O        3.62921823       4.68606505       4.98873516       39       0.01018160       0.00619771      -0.00069741
40