40
Lattice="8.76795591585527 6.872053691958017e-10 4.494766648557307e-15 -2.9226519725996587 8.26650811343222 -1.190279224307151e-09 -2.92265197162781 -4.133254056028902 7.159006027615993" Properties=species:S:1:pos:R:3:spacegroup_kinds:I:1:forces:R:3 spacegroup="P 1" unit_cell=conventional occupancy="_JSON {\"0\": {\"In\": 1}, \"1\": {\"In\": 1}, \"2\": {\"In\": 1}, \"3\": {\"In\": 1}, \"4\": {\"In\": 1}, \"5\": {\"In\": 1}, \"6\": {\"In\": 1}, \"7\": {\"In\": 1}, \"8\": {\"In\": 1}, \"9\": {\"In\": 1}, \"10\": {\"In\": 1}, \"11\": {\"In\": 1}, \"12\": {\"In\": 1}, \"13\": {\"In\": 1}, \"14\": {\"In\": 1}, \"15\": {\"In\": 1}, \"16\": {\"O\": 1}, \"17\": {\"O\": 1}, \"18\": {\"O\": 1}, \"19\": {\"O\": 1}, \"20\": {\"O\": 1}, \"21\": {\"O\": 1}, \"22\": {\"O\": 1}, \"23\": {\"O\": 1}, \"24\": {\"O\": 1}, \"25\": {\"O\": 1}, \"26\": {\"O\": 1}, \"27\": {\"O\": 1}, \"28\": {\"O\": 1}, \"29\": {\"O\": 1}, \"30\": {\"O\": 1}, \"31\": {\"O\": 1}, \"32\": {\"O\": 1}, \"33\": {\"O\": 1}, \"34\": {\"O\": 1}, \"35\": {\"O\": 1}, \"36\": {\"O\": 1}, \"37\": {\"O\": 1}, \"38\": {\"O\": 1}, \"39\": {\"O\": 1}}" n_minim_iter=1 energy=-45151.4165528738 stress="-0.038543938045091146 -4.471315656358443e-13 -2.3246992661071384e-14 -4.471315656358443e-13 -0.03854393804694008 -4.740559265699561e-13 -2.3246992661071384e-14 -4.740559265699561e-13 -0.0385439380457777" free_energy=-45151.4165528738 pbc="T T T"
In      -4.19000306       2.96277958       5.60682428        0      -0.01724160       0.01219165      -0.02111656
In       7.11265503       1.17047448       1.55218175        1       0.01724160      -0.01219165       0.02111656
In       1.26735109      -0.89615255       5.13168476        2       0.01724160      -0.01219165       0.02111656
In      -1.46132599      -2.06662703       3.57950301        3       0.00000000      -0.00000000      -0.00000000
In      -1.26735109       3.99609309       3.34193325        4      -0.01724160       0.01219165       0.02111656
In       4.57795285      -2.82561861       5.36925452        5      -0.01724160      -0.02438330       0.00000000
In      -1.26735109       1.30763544       5.36925452        6      -0.01724160      -0.02438330       0.00000000
In      -1.65530088       6.95887267       1.78975150        7       0.01724160       0.02438330       0.00000000
In       4.19000306       0.13716097       3.81707277        8       0.01724160      -0.01219165      -0.02111656
In      -1.46132599       4.13325406      -0.00000000        9       0.00000000       0.00000000      -0.00000000
In       4.19000306       6.33704205       0.23756976       10       0.01724160      -0.01219165      -0.02111656
In      -1.26735109      -2.20378799       6.92143627       11      -0.01724160       0.01219165       0.02111656
In       4.19000306       2.82561862       1.78975150       12       0.01724160       0.02438330      -0.00000000
In       1.65530088       5.02940661       2.02732126       13      -0.01724160       0.01219165      -0.02111656
In       4.38397796       0.00000000      -0.00000000       14       0.00000000       0.00000000       0.00000000
In       1.46132598       2.06662703       3.57950301       15       0.00000000      -0.00000000      -0.00000000
O        0.84933935       4.13093779       3.90245720       16      -0.01248310      -0.00468700       0.09896531
O       -2.07331262       3.38078521       5.20978338       17      -0.01248310       0.08804997      -0.04542359
O       -0.42850512       2.21773067       0.06524690       18       0.07443433       0.02659007       0.06102808
O       -0.84933936      -0.75478512       1.95323455       19       0.01248310       0.08336297       0.05354172
O        3.87853906       4.92570950       1.88798765       20       0.08717534      -0.04812839      -0.00748637
O        1.96676488       2.89443651       1.63028036       21      -0.08717534      -0.01758081      -0.04542359
O        1.96676488       6.16452704       0.25770728       22      -0.08717534      -0.03054758       0.03793723
O       -2.23373157       5.86463603       3.64474991       23      -0.00025791      -0.07904072       0.06102808
O        3.35115709       1.91552339       7.09375913       24      -0.07443433      -0.02659007      -0.06102808
O        5.15638354      -1.73138197       3.51425611       25       0.00025791       0.07904072      -0.06102808
O        6.27380906       3.23199784       1.69151536       26      -0.07443433       0.06614690       0.00748637
O        3.61157237       2.29075503       3.83721030       27      -0.00025791       0.09237223       0.03793723
O        0.68892040       4.24437112       6.83605184       28      -0.00025791      -0.01333151      -0.09896531
O        2.23373157      -0.11111705       0.32295418       29       0.00025791       0.01333151       0.09896531
O       -3.35115709       0.90125622       5.46749066       30       0.07443433      -0.06614690      -0.00748637
O        4.99596459       0.75246885       1.94922265       31       0.01248310      -0.08804997       0.04542359
O        0.95588709       1.23881755       5.52872566       32       0.08717534       0.01758081       0.04542359
O        3.35115709      -1.01426716       5.53273756       33      -0.07443433      -0.03955684       0.05354172
O        2.07331262       0.00231627       3.25654883       34       0.01248310       0.00468700      -0.09896531
O        0.95588709      -2.03127298       6.90129874       35       0.08717534       0.03054758      -0.03793723
O       -0.68892041       1.84249903       3.32179573       36       0.00025791      -0.09237223      -0.03793723
O       -0.95588710      -0.79245543       5.27101837       37      -0.08717534       0.04812839       0.00748637
O       -0.42850512       5.14752122       1.62626846       38       0.07443433       0.03955684      -0.05354172
O        3.77199132       4.88803918       5.20577147       39      -0.01248310      -0.08336297      -0.05354172
40
Lattice="8.767955915855268 6.872053691958017e-10 4.494766648557315e-15 -2.9226519725996587 8.266508113432218 -1.190279224307151e-09 -2.92265197162781 -4.1332540560289015 7.159006027615995" Properties=species:S:1:pos:R:3:spacegroup_kinds:I:1:forces:R:3 spacegroup="P 1" unit_cell=conventional occupancy="_JSON {\"0\": {\"In\": 1}, \"1\": {\"In\": 1}, \"2\": {\"In\": 1}, \"3\": {\"In\": 1}, \"4\": {\"In\": 1}, \"5\": {\"In\": 1}, \"6\": {\"In\": 1}, \"7\": {\"In\": 1}, \"8\": {\"In\": 1}, \"9\": {\"In\": 1}, \"10\": {\"In\": 1}, \"11\": {\"In\": 1}, \"12\": {\"In\": 1}, \"13\": {\"In\": 1}, \"14\": {\"In\": 1}, \"15\": {\"In\": 1}, \"16\": {\"O\": 1}, \"17\": {\"O\": 1}, \"18\": {\"O\": 1}, \"19\": {\"O\": 1}, \"20\": {\"O\": 1}, \"21\": {\"O\": 1}, \"22\": {\"O\": 1}, \"23\": {\"O\": 1}, \"24\": {\"O\": 1}, \"25\": {\"O\": 1}, \"26\": {\"O\": 1}, \"27\": {\"O\": 1}, \"28\": {\"O\": 1}, \"29\": {\"O\": 1}, \"30\": {\"O\": 1}, \"31\": {\"O\": 1}, \"32\": {\"O\": 1}, \"33\": {\"O\": 1}, \"34\": {\"O\": 1}, \"35\": {\"O\": 1}, \"36\": {\"O\": 1}, \"37\": {\"O\": 1}, \"38\": {\"O\": 1}, \"39\": {\"O\": 1}}" n_minim_iter=2 energy=-45151.42485559222 stress="-0.037398405174614686 5.073685568080867e-14 5.248997633490674e-13 5.073685568080867e-14 -0.03739840517385913 -5.605432977570063e-13 5.248997633490674e-13 -5.605432977570063e-13 -0.03739840517339855" free_energy=-45151.42485559222 pbc="T T T"
In      -4.19115211       2.96359208       5.60541699        0       0.03495165      -0.02471455       0.04280685
In       7.11380407       1.16966199       1.55358903        1      -0.03495165       0.02471455      -0.04280685
In       1.26850013      -0.89696504       5.13309204        2      -0.03495165       0.02471455      -0.04280685
In      -1.46132599      -2.06662703       3.57950301        3      -0.00000000      -0.00000000      -0.00000000
In      -1.26850013       3.99690559       3.34334053        4       0.03495165      -0.02471455      -0.04280685
In       4.57680381      -2.82724360       5.36925452        5       0.03495165       0.04942910      -0.00000000
In      -1.26850013       1.30601045       5.36925452        6       0.03495165       0.04942910      -0.00000000
In      -1.65415184       6.96049766       1.78975150        7      -0.03495165      -0.04942910      -0.00000000
In       4.19115210       0.13634847       3.81566549        8      -0.03495165       0.02471455       0.04280685
In      -1.46132599       4.13325406      -0.00000000        9       0.00000000      -0.00000000      -0.00000000
In       4.19115210       6.33622956       0.23616247       10      -0.03495165       0.02471455       0.04280685
In      -1.26850013      -2.20297550       6.92284355       11       0.03495165      -0.02471455      -0.04280685
In       4.19115210       2.82724361       1.78975150       12      -0.03495165      -0.04942910      -0.00000000
In       1.65415184       5.03021910       2.02591398       13       0.03495165      -0.02471455       0.04280685
In       4.38397796       0.00000000      -0.00000000       14       0.00000000      -0.00000000       0.00000000
In       1.46132598       2.06662703       3.57950301       15      -0.00000000      -0.00000000      -0.00000000
O        0.84850743       4.13062543       3.90905260       16      -0.03174127      -0.02600662       0.00326703
O       -2.07414454       3.38665317       5.20675619       17      -0.03174127       0.01583264       0.02088888
O       -0.42354455       2.21950273       0.06931403       18      -0.02017254       0.00765231       0.03505761
O       -0.84850744      -0.74922951       1.95680276       19       0.03174127      -0.01017398       0.02415590
O        3.88434874       4.92250205       1.88748873       20       0.02550758       0.03041450      -0.01090171
O        1.96095520       2.89326486       1.62725317       21      -0.02550758       0.02464841       0.02088888
O        1.96095520       6.16249124       0.26023555       22      -0.02550758       0.00576609      -0.03179059
O       -2.23374876       5.85936848       3.64881704       23      -0.01393885       0.01646809       0.03505761
O        3.34619652       1.91375133       7.08969200       24       0.02017254      -0.00765231      -0.03505761
O        5.15640073      -1.72611441       3.51018898       25       0.01393885      -0.01646809      -0.03505761
O        6.26884849       3.23640610       1.69201428       26       0.02017254       0.03418694       0.01090171
O        3.61155519       2.29691105       3.83973857       27      -0.01393885       0.02212674      -0.03179059
O        0.68890321       4.24348266       6.82945644       28      -0.01393885      -0.03859483      -0.00326703
O        2.23374876      -0.11022859       0.32954958       29       0.01393885       0.03859483       0.00326703
O       -3.34619652       0.89684796       5.46699174       30      -0.02017254      -0.03418694      -0.01090171
O        4.99679651       0.74660089       1.95224984       31       0.03174127      -0.01583264      -0.02088888
O        0.96169677       1.23998920       5.53175285       32       0.02550758      -0.02464841      -0.02088888
O        3.34619652      -1.01690337       5.53630577       33       0.02017254      -0.02653463       0.02415590
O        2.07414453       0.00262863       3.24995342       34       0.03174127       0.02600662      -0.00326703
O        0.96169677      -2.02923718       6.89877047       35       0.02550758      -0.00576609       0.03179059
O       -0.68890322       1.83634301       3.31926745       36       0.01393885      -0.02212674       0.03179059
O       -0.96169677      -0.78924799       5.27151729       37      -0.02550758      -0.03041450       0.01090171
O       -0.42354455       5.15015743       1.62270025       38      -0.02017254       0.02653463      -0.02415590
O        3.77115941       4.88248358       5.20220326       39      -0.03174127       0.01017398      -0.02415590
40
Lattice="8.767955915855264 6.872053691958015e-10 4.4947666485573194e-15 -2.922651972599658 8.266508113432215 -1.1902792243071505e-09 -2.922651971627809 -4.1332540560289 7.159006027615992" Properties=species:S:1:pos:R:3:spacegroup_kinds:I:1:forces:R:3 spacegroup="P 1" unit_cell=conventional occupancy="_JSON {\"0\": {\"In\": 1}, \"1\": {\"In\": 1}, \"2\": {\"In\": 1}, \"3\": {\"In\": 1}, \"4\": {\"In\": 1}, \"5\": {\"In\": 1}, \"6\": {\"In\": 1}, \"7\": {\"In\": 1}, \"8\": {\"In\": 1}, \"9\": {\"In\": 1}, \"10\": {\"In\": 1}, \"11\": {\"In\": 1}, \"12\": {\"In\": 1}, \"13\": {\"In\": 1}, \"14\": {\"In\": 1}, \"15\": {\"In\": 1}, \"16\": {\"O\": 1}, \"17\": {\"O\": 1}, \"18\": {\"O\": 1}, \"19\": {\"O\": 1}, \"20\": {\"O\": 1}, \"21\": {\"O\": 1}, \"22\": {\"O\": 1}, \"23\": {\"O\": 1}, \"24\": {\"O\": 1}, \"25\": {\"O\": 1}, \"26\": {\"O\": 1}, \"27\": {\"O\": 1}, \"28\": {\"O\": 1}, \"29\": {\"O\": 1}, \"30\": {\"O\": 1}, \"31\": {\"O\": 1}, \"32\": {\"O\": 1}, \"33\": {\"O\": 1}, \"34\": {\"O\": 1}, \"35\": {\"O\": 1}, \"36\": {\"O\": 1}, \"37\": {\"O\": 1}, \"38\": {\"O\": 1}, \"39\": {\"O\": 1}}" n_minim_iter=3 energy=-45151.42829188664 stress="-0.03700648594883283 -1.5947779305009565e-13 -1.9708657023384629e-13 -1.5947779305009565e-13 -0.03700648594879689 -2.504341926376223e-13 -1.9708657023384629e-13 -2.504341926376223e-13 -0.03700648594757834" free_energy=-45151.42829188664 pbc="T T T"
In      -4.18905547       2.96210953       5.60798484        0       0.00548101      -0.00387566       0.00671283
In       7.11170744       1.17114453       1.55102118        1      -0.00548101       0.00387566      -0.00671283
In       1.26640349      -0.89548250       5.13052420        2      -0.00548101       0.00387566      -0.00671283
In      -1.46132599      -2.06662703       3.57950301        3      -0.00000000       0.00000000      -0.00000000
In      -1.26640350       3.99542304       3.34077269        4       0.00548101      -0.00387566      -0.00671283
In       4.57890045      -2.82427851       5.36925452        5       0.00548101       0.00775131      -0.00000000
In      -1.26640350       1.30897555       5.36925452        6       0.00548101       0.00775131      -0.00000000
In      -1.65624848       6.95753257       1.78975150        7      -0.00548101      -0.00775131      -0.00000000
In       4.18905547       0.13783102       3.81823333        8      -0.00548101       0.00387566       0.00671283
In      -1.46132599       4.13325406      -0.00000000        9      -0.00000000       0.00000000      -0.00000000
In       4.18905547       6.33771210       0.23873032       10      -0.00548101       0.00387566       0.00671283
In      -1.26640350      -2.20445804       6.92027570       11       0.00548101      -0.00387566      -0.00671283
In       4.18905547       2.82427852       1.78975150       12      -0.00548101      -0.00775131      -0.00000000
In       1.65624847       5.02873656       2.02848182       13       0.00548101      -0.00387566       0.00671283
In       4.38397796       0.00000000      -0.00000000       14       0.00000000       0.00000000       0.00000000
In       1.46132598       2.06662703       3.57950301       15       0.00000000      -0.00000000       0.00000000
O        0.84597496       4.12867422       3.91149457       16      -0.01099090       0.00796824       0.00311910
O       -2.07667701       3.38974359       5.20722499       17      -0.01099090      -0.00128291      -0.00846025
O       -0.42331465       2.22063985       0.07316604       18       0.00263936      -0.01092096       0.00823335
O       -0.84597496      -0.74809031       1.95971354       19       0.01099090       0.00668534      -0.00534115
O        3.88810657       4.92358680       1.88654750       20       0.00245410      -0.00193181      -0.01357450
O        1.95719737       2.89462237       1.62772198       21      -0.00245410       0.01078996      -0.00846025
O        1.95719737       6.16221849       0.25882552       22      -0.00245410      -0.01272177      -0.00511425
O       -2.23474421       5.85877269       3.65266905       23       0.01117617       0.00115190       0.00823335
O        3.34596662       1.91261421       7.08583999       24      -0.00263936       0.01092096      -0.00823335
O        5.15739618      -1.72551862       3.50633697       25      -0.01117617      -0.00115190      -0.00823335
O        6.26861859       3.24031060       1.69295551       26      -0.00263936       0.00166981       0.01357450
O        3.61055973       2.30054488       3.83832853       27       0.01117617       0.00655434      -0.00511425
O        0.68790776       4.24044461       6.82701446       28       0.01117617      -0.00770624      -0.00311910
O        2.23474421      -0.10719055       0.33199156       29      -0.01117617       0.00770624       0.00311910
O       -3.34596663       0.89294346       5.46605051       30       0.00263936      -0.00166981      -0.01357450
O        4.99932898       0.74351047       1.95178103       31       0.01099090       0.00128291       0.00846025
O        0.96545460       1.23863170       5.53128404       32       0.00245410      -0.01078996       0.00846025
O        3.34596662      -1.01967075       5.53921655       33      -0.00263936      -0.01259077      -0.00534115
O        2.07667701       0.00457984       3.24751145       34       0.01099090      -0.00796824      -0.00311910
O        0.96545460      -2.02896443       6.90018050       35       0.00245410       0.01272177       0.00511425
O       -0.68790776       1.83270918       3.32067749       36      -0.01117617      -0.00655434       0.00511425
O       -0.96545460      -0.79033274       5.27245852       37      -0.00245410       0.00193181       0.01357450
O       -0.42331465       5.15292481       1.61978947       38       0.00263936       0.01259077       0.00534115
O        3.76862693       4.88134437       5.19929248       39      -0.01099090      -0.00668534       0.00534115
40
Lattice="8.767955915855266 6.872053691958016e-10 4.494766648557321e-15 -2.9226519725996583 8.266508113432216 -1.1902792243071507e-09 -2.9226519716278094 -4.133254056028901 7.159006027615993" Properties=species:S:1:pos:R:3:spacegroup_kinds:I:1:forces:R:3 spacegroup="P 1" unit_cell=conventional occupancy="_JSON {\"0\": {\"In\": 1}, \"1\": {\"In\": 1}, \"2\": {\"In\": 1}, \"3\": {\"In\": 1}, \"4\": {\"In\": 1}, \"5\": {\"In\": 1}, \"6\": {\"In\": 1}, \"7\": {\"In\": 1}, \"8\": {\"In\": 1}, \"9\": {\"In\": 1}, \"10\": {\"In\": 1}, \"11\": {\"In\": 1}, \"12\": {\"In\": 1}, \"13\": {\"In\": 1}, \"14\": {\"In\": 1}, \"15\": {\"In\": 1}, \"16\": {\"O\": 1}, \"17\": {\"O\": 1}, \"18\": {\"O\": 1}, \"19\": {\"O\": 1}, \"20\": {\"O\": 1}, \"21\": {\"O\": 1}, \"22\": {\"O\": 1}, \"23\": {\"O\": 1}, \"24\": {\"O\": 1}, \"25\": {\"O\": 1}, \"26\": {\"O\": 1}, \"27\": {\"O\": 1}, \"28\": {\"O\": 1}, \"29\": {\"O\": 1}, \"30\": {\"O\": 1}, \"31\": {\"O\": 1}, \"32\": {\"O\": 1}, \"33\": {\"O\": 1}, \"34\": {\"O\": 1}, \"35\": {\"O\": 1}, \"36\": {\"O\": 1}, \"37\": {\"O\": 1}, \"38\": {\"O\": 1}, \"39\": {\"O\": 1}}" n_minim_iter=4 energy=-45151.42845354801 stress="-0.03690033449226605 -2.9664574786024704e-14 -4.748077897288244e-13 -2.9664574786024704e-14 -0.03690033449072221 -1.5272364838988344e-13 -4.748077897288244e-13 -1.5272364838988344e-13 -0.0369003344913795" free_energy=-45151.42845354801 pbc="T T T"
In      -4.18866109       2.96183066       5.60846786        0       0.00111264      -0.00078676       0.00136270
In       7.11131306       1.17142340       1.55053817        1      -0.00111264       0.00078676      -0.00136270
In       1.26600911      -0.89520363       5.13004118        2      -0.00111264       0.00078676      -0.00136270
In      -1.46132599      -2.06662703       3.57950301        3      -0.00000000      -0.00000000       0.00000000
In      -1.26600912       3.99514417       3.34028967        4       0.00111264      -0.00078676      -0.00136270
In       4.57929483      -2.82372077       5.36925452        5       0.00111264       0.00157351       0.00000000
In      -1.26600911       1.30953329       5.36925452        6       0.00111264       0.00157351      -0.00000000
In      -1.65664286       6.95697483       1.78975150        7      -0.00111264      -0.00157351       0.00000000
In       4.18866108       0.13810989       3.81871635        8      -0.00111264       0.00078676       0.00136270
In      -1.46132599       4.13325406      -0.00000000        9      -0.00000000      -0.00000000       0.00000000
In       4.18866108       6.33799097       0.23921333       10      -0.00111264       0.00078676       0.00136270
In      -1.26600911      -2.20473691       6.91979269       11       0.00111264      -0.00078676      -0.00136270
In       4.18866108       2.82372077       1.78975150       12      -0.00111264      -0.00157351      -0.00000000
In       1.65664286       5.02845769       2.02896484       13       0.00111264      -0.00078676       0.00136270
In       4.38397796       0.00000000      -0.00000000       14       0.00000000      -0.00000000       0.00000000
In       1.46132598       2.06662703       3.57950301       15      -0.00000000       0.00000000      -0.00000000
O        0.84534920       4.12847931       3.91217076       16      -0.00680548       0.01067973      -0.00006482
O       -2.07730277       3.39042664       5.20705569       17      -0.00680548      -0.00539600      -0.00921651
O       -0.42306301       2.22070249       0.07407132       18       0.00271306      -0.01212662       0.00244127
O       -0.84534921      -0.74760216       1.96022043       19       0.00680548       0.00528373      -0.00928132
O        3.88895914       4.92362132       1.88614910       20      -0.00281890      -0.00387426      -0.01172260
O        1.95634480       2.89498465       1.62755268       21       0.00281890       0.00821493      -0.00921651
O        1.95634480       6.16189073       0.25859642       22       0.00281890      -0.01208920      -0.00250609
O       -2.23471939       5.85851456       3.65357434       23       0.01233744       0.00148431       0.00244127
O        3.34571498       1.91255157       7.08493470       24      -0.00271306       0.01212662      -0.00244127
O        5.15737136      -1.72526050       3.50543169       25      -0.01233744      -0.00148431      -0.00244127
O        6.26836695       3.24112593       1.69335390       26      -0.00271306      -0.00394911       0.01172260
O        3.61058455       2.30145795       3.83809943       27       0.01233744       0.00137205      -0.00250609
O        0.68793258       4.23978967       6.82633827       28       0.01233744      -0.00285636       0.00006482
O        2.23471939      -0.10653561       0.33266775       29      -0.01233744       0.00285636      -0.00006482
O       -3.34571499       0.89212814       5.46565212       30       0.00271306       0.00394911      -0.01172260
O        4.99995474       0.74282742       1.95195033       31       0.00680548       0.00539600       0.00921651
O        0.96630717       1.23826941       5.53145334       32      -0.00281890      -0.00821493       0.00921651
O        3.34571498      -1.02042343       5.53972345       33      -0.00271306      -0.00817751      -0.00928132
O        2.07730277       0.00477475       3.24683526       34       0.00680548      -0.01067973       0.00006482
O        0.96630717      -2.02863667       6.90040960       35      -0.00281890       0.01208920       0.00250609
O       -0.68793258       1.83179612       3.32090659       36      -0.01233744      -0.00137205       0.00250609
O       -0.96630718      -0.79036726       5.27285692       37       0.00281890       0.00387426       0.01172260
O       -0.42306301       5.15367749       1.61928258       38       0.00271306       0.00817751       0.00928132
O        3.76800117       4.88085622       5.19878559       39      -0.00680548      -0.00528373       0.00928132
40
Lattice="8.767955915855268 6.872053691958018e-10 4.49476664855733e-15 -2.922651972599659 8.266508113432218 -1.1902792243071512e-09 -2.9226519716278103 -4.1332540560289015 7.159006027615995" Properties=species:S:1:pos:R:3:spacegroup_kinds:I:1:forces:R:3 spacegroup="P 1" unit_cell=conventional occupancy="_JSON {\"0\": {\"In\": 1}, \"1\": {\"In\": 1}, \"2\": {\"In\": 1}, \"3\": {\"In\": 1}, \"4\": {\"In\": 1}, \"5\": {\"In\": 1}, \"6\": {\"In\": 1}, \"7\": {\"In\": 1}, \"8\": {\"In\": 1}, \"9\": {\"In\": 1}, \"10\": {\"In\": 1}, \"11\": {\"In\": 1}, \"12\": {\"In\": 1}, \"13\": {\"In\": 1}, \"14\": {\"In\": 1}, \"15\": {\"In\": 1}, \"16\": {\"O\": 1}, \"17\": {\"O\": 1}, \"18\": {\"O\": 1}, \"19\": {\"O\": 1}, \"20\": {\"O\": 1}, \"21\": {\"O\": 1}, \"22\": {\"O\": 1}, \"23\": {\"O\": 1}, \"24\": {\"O\": 1}, \"25\": {\"O\": 1}, \"26\": {\"O\": 1}, \"27\": {\"O\": 1}, \"28\": {\"O\": 1}, \"29\": {\"O\": 1}, \"30\": {\"O\": 1}, \"31\": {\"O\": 1}, \"32\": {\"O\": 1}, \"33\": {\"O\": 1}, \"34\": {\"O\": 1}, \"35\": {\"O\": 1}, \"36\": {\"O\": 1}, \"37\": {\"O\": 1}, \"38\": {\"O\": 1}, \"39\": {\"O\": 1}}" n_minim_iter=5 energy=-45151.4285597433 stress="-0.036824101712532045 2.351040152131112e-13 4.2000950363207046e-13 2.351040152131112e-13 -0.03682410171316125 3.3426030202330595e-13 4.2000950363207046e-13 3.3426030202330595e-13 -0.03682410171220898" free_energy=-45151.4285597433 pbc="T T T"
In      -4.18830088       2.96157596       5.60890901        0      -0.00316931       0.00224104      -0.00388160
In       7.11095285       1.17167810       1.55009701        1       0.00316931      -0.00224104       0.00388160
In       1.26564891      -0.89494892       5.12960002        2       0.00316931      -0.00224104       0.00388160
In      -1.46132599      -2.06662703       3.57950301        3       0.00000000      -0.00000000       0.00000000
In      -1.26564891       3.99488947       3.33984851        4      -0.00316931       0.00224104       0.00388160
In       4.57965503      -2.82321136       5.36925452        5      -0.00316931      -0.00448208      -0.00000000
In      -1.26564891       1.31004269       5.36925452        6      -0.00316931      -0.00448208       0.00000000
In      -1.65700307       6.95646542       1.78975150        7       0.00316931       0.00448208      -0.00000000
In       4.18830088       0.13836459       3.81915751        8       0.00316931      -0.00224104      -0.00388160
In      -1.46132599       4.13325406      -0.00000000        9       0.00000000      -0.00000000       0.00000000
In       4.18830088       6.33824568       0.23965449       10       0.00316931      -0.00224104      -0.00388160
In      -1.26564891      -2.20499161       6.91935153       11      -0.00316931       0.00224104       0.00388160
In       4.18830088       2.82321137       1.78975150       12       0.00316931       0.00448208      -0.00000000
In       1.65700306       5.02820298       2.02940600       13      -0.00316931       0.00224104      -0.00388160
In       4.38397796       0.00000000      -0.00000000       14      -0.00000000       0.00000000       0.00000000
In       1.46132598       2.06662703       3.57950301       15      -0.00000000       0.00000000      -0.00000000
O        0.84458239       4.12876622       3.91266144       16      -0.00156362       0.00575016      -0.00232775
O       -2.07806958       3.39070813       5.20656189       17      -0.00156362      -0.00489098      -0.00381591
O       -0.42278273       2.22024357       0.07485994       18       0.00028884      -0.00620087      -0.00154711
O       -0.84458240      -0.74703377       1.96021730       19       0.00156362       0.00085919      -0.00614366
O        3.88948013       4.92350824       1.88535736       20      -0.00409005      -0.00175241      -0.00459655
O        1.95582381       2.89561377       1.62705887       21       0.00409005       0.00310452      -0.00381591
O        1.95582381       6.16114852       0.25829849       22       0.00409005      -0.00485694      -0.00078064
O       -2.23419329       5.85840328       3.65436295       23       0.00594251       0.00179463      -0.00154711
O        3.34543470       1.91301049       7.08414609       24      -0.00028884       0.00620087       0.00154711
O        5.15684526      -1.72514922       3.50464307       25      -0.00594251      -0.00179463       0.00154711
O        6.26808667       3.24157942       1.69414565       26      -0.00028884      -0.00444027       0.00459655
O        3.61111065       2.30219654       3.83780150       27       0.00594251      -0.00223716      -0.00078064
O        0.68845868       4.23916236       6.82584760       28       0.00594251       0.00044252       0.00232775
O        2.23419329      -0.10590829       0.33315843       29      -0.00594251      -0.00044252      -0.00232775
O       -3.34543470       0.89167464       5.46486038       30       0.00028884       0.00444027      -0.00459655
O        5.00072155       0.74254593       1.95244414       31       0.00156362       0.00489098       0.00381591
O        0.96682816       1.23764029       5.53194715       32      -0.00409005      -0.00310452       0.00381591
O        3.34543470      -1.02133585       5.53972032       33      -0.00028884      -0.00176059      -0.00614366
O        2.07806957       0.00448784       3.24634458       34       0.00156362      -0.00575016       0.00232775
O        0.96682816      -2.02789446       6.90070754       35      -0.00409005       0.00485694       0.00078064
O       -0.68845868       1.83105752       3.32120452       36      -0.00594251       0.00223716       0.00078064
O       -0.96682817      -0.79025418       5.27364866       37       0.00409005       0.00175241       0.00459655
O       -0.42278273       5.15458991       1.61928571       38       0.00028884       0.00176059       0.00614366
O        3.76723437       4.88028783       5.19878872       39      -0.00156362      -0.00085919       0.00614366
