40
Lattice="9.411736895711615 7.376677902961157e-10 1.1724209347078558e-14 -3.1372456325993507 8.87347064202252 -1.2776830844993687e-09 -3.137245631556138 -4.436735320273592 7.684650996578693" Properties=species:S:1:pos:R:3:spacegroup_kinds:I:1:forces:R:3 spacegroup="P 1" unit_cell=conventional occupancy="_JSON {\"0\": {\"In\": 1}, \"1\": {\"In\": 1}, \"2\": {\"In\": 1}, \"3\": {\"In\": 1}, \"4\": {\"In\": 1}, \"5\": {\"In\": 1}, \"6\": {\"In\": 1}, \"7\": {\"In\": 1}, \"8\": {\"In\": 1}, \"9\": {\"In\": 1}, \"10\": {\"In\": 1}, \"11\": {\"In\": 1}, \"12\": {\"In\": 1}, \"13\": {\"In\": 1}, \"14\": {\"In\": 1}, \"15\": {\"In\": 1}, \"16\": {\"O\": 1}, \"17\": {\"O\": 1}, \"18\": {\"O\": 1}, \"19\": {\"O\": 1}, \"20\": {\"O\": 1}, \"21\": {\"O\": 1}, \"22\": {\"O\": 1}, \"23\": {\"O\": 1}, \"24\": {\"O\": 1}, \"25\": {\"O\": 1}, \"26\": {\"O\": 1}, \"27\": {\"O\": 1}, \"28\": {\"O\": 1}, \"29\": {\"O\": 1}, \"30\": {\"O\": 1}, \"31\": {\"O\": 1}, \"32\": {\"O\": 1}, \"33\": {\"O\": 1}, \"34\": {\"O\": 1}, \"35\": {\"O\": 1}, \"36\": {\"O\": 1}, \"37\": {\"O\": 1}, \"38\": {\"O\": 1}, \"39\": {\"O\": 1}}" n_minim_iter=8 energy=-45148.50408228993 stress="0.0826564958097953 4.695297888683888e-13 2.590410778203975e-13 4.695297888683888e-13 0.08265649581010757 3.676861740796605e-13 2.590410778203975e-13 3.676861740796605e-13 0.08265649580970502" free_energy=-45148.50408228993 pbc="T T T"
In      -4.44257403       3.14137423       6.08595673        0      -0.00325516       0.00230175      -0.00398675
In       7.57981966       1.29536110       1.59869426        1       0.00325516      -0.00230175       0.00398675
In       1.30532840      -0.92300656       5.44101976        2       0.00325516      -0.00230175       0.00398675
In      -1.56862282      -2.21836766       3.84232550        3       0.00000000       0.00000000      -0.00000000
In      -1.30532840       4.25055806       3.51985701        4      -0.00325516       0.00230175       0.00398675
In       4.96916286      -2.95519695       5.76348824        5      -0.00325516      -0.00460350      -0.00000000
In      -1.30532840       1.48153837       5.76348824        6      -0.00325516      -0.00460350      -0.00000000
In      -1.83191723       7.39193228       1.92116275        7       0.00325516       0.00460350      -0.00000000
In       4.44257403       0.18617727       4.16479398        8       0.00325516      -0.00230175      -0.00398675
In      -1.56862282       4.43673532      -0.00000000        9      -0.00000000      -0.00000000       0.00000000
In       4.44257403       6.84128025       0.32246848       10       0.00325516      -0.00230175      -0.00398675
In      -1.30532840      -2.40454492       7.36218251       11      -0.00325516       0.00230175       0.00398675
In       4.44257403       2.95519696       1.92116275       12       0.00325516       0.00460350       0.00000000
In       1.83191723       5.35974189       2.24363123       13      -0.00325516       0.00230175      -0.00398675
In       4.70586845       0.00000000      -0.00000000       14      -0.00000000      -0.00000000      -0.00000000
In       1.56862281       2.21836766       3.84232550       15       0.00000000      -0.00000000       0.00000000
O        1.01358610       4.44603480       4.14911704       16       0.00231400      -0.00289132      -0.00308908
O       -2.12365953       3.58859103       5.60203889       17       0.00231400      -0.00122956       0.00404850
O       -0.45300845       2.40726232      -0.03649076       18      -0.00311387       0.00260852      -0.00259926
O       -1.01358610      -0.83884482       2.06650494       19      -0.00231400      -0.00412088       0.00095942
O        4.09124257       5.25451220       2.10299570       20      -0.00193057       0.00262020       0.00355868
O        2.18324869       3.02437606       1.75971339       21       0.00193057      -0.00177180       0.00404850
O        2.18324869       6.66687146       0.34328230       22       0.00193057       0.00439200      -0.00048982
O       -2.42059150       6.27978267       3.80583473       23      -0.00349730       0.00206628      -0.00259926
O        3.59025408       2.02947301       7.72114175       24       0.00311387      -0.00260852       0.00259926
O        5.55783712      -1.84304735       3.87881626       25       0.00349730      -0.00206628       0.00259926
O        6.72749971       3.39039690       1.73932980       26       0.00311387      -0.00094676      -0.00355868
O        3.85389977       2.37442589       4.18560780       27      -0.00349730      -0.00328416      -0.00048982
O        0.71665414       4.65599740       7.37785945       28      -0.00349730       0.00121788       0.00308908
O        2.42059149      -0.21926208       0.30679154       29       0.00349730      -0.00121788      -0.00308908
O       -3.59025408       1.04633843       5.94532119       30      -0.00311387       0.00094676       0.00355868
O        5.26090516       0.84814430       2.08261210       31      -0.00231400       0.00122956      -0.00404850
O        0.95399694       1.41235927       5.92493760       32      -0.00193057       0.00177180      -0.00404850
O        3.59025408      -0.98313457       5.90883044       33       0.00311387       0.00355528       0.00095942
O        2.12365953      -0.00929947       3.53553395       34      -0.00231400       0.00289132       0.00308908
O        0.95399694      -2.23013613       7.34136869       35      -0.00193057      -0.00439200       0.00048982
O       -0.71665414       2.06230943       3.49904319       36       0.00349730       0.00328416       0.00048982
O       -0.95399694      -0.81777687       5.58165529       37       0.00193057      -0.00262020      -0.00355868
O       -0.45300845       5.41986990       1.77582056       38      -0.00311387      -0.00355528      -0.00095942
O        4.15083173       5.27558015       5.61814605       39       0.00231400       0.00412088      -0.00095942
