40
Lattice="9.276297389951292 7.270525028415703e-10 1.0004869654487223e-14 -3.0920991306692356 8.745777051407824 -1.2592962738145193e-09 -3.0920991296410367 -4.372888524976859 7.574065103193661" Properties=species:S:1:pos:R:3:spacegroup_kinds:I:1:forces:R:3 spacegroup="P 1" unit_cell=conventional occupancy="_JSON {\"0\": {\"In\": 1}, \"1\": {\"In\": 1}, \"2\": {\"In\": 1}, \"3\": {\"In\": 1}, \"4\": {\"In\": 1}, \"5\": {\"In\": 1}, \"6\": {\"In\": 1}, \"7\": {\"In\": 1}, \"8\": {\"In\": 1}, \"9\": {\"In\": 1}, \"10\": {\"In\": 1}, \"11\": {\"In\": 1}, \"12\": {\"In\": 1}, \"13\": {\"In\": 1}, \"14\": {\"In\": 1}, \"15\": {\"In\": 1}, \"16\": {\"O\": 1}, \"17\": {\"O\": 1}, \"18\": {\"O\": 1}, \"19\": {\"O\": 1}, \"20\": {\"O\": 1}, \"21\": {\"O\": 1}, \"22\": {\"O\": 1}, \"23\": {\"O\": 1}, \"24\": {\"O\": 1}, \"25\": {\"O\": 1}, \"26\": {\"O\": 1}, \"27\": {\"O\": 1}, \"28\": {\"O\": 1}, \"29\": {\"O\": 1}, \"30\": {\"O\": 1}, \"31\": {\"O\": 1}, \"32\": {\"O\": 1}, \"33\": {\"O\": 1}, \"34\": {\"O\": 1}, \"35\": {\"O\": 1}, \"36\": {\"O\": 1}, \"37\": {\"O\": 1}, \"38\": {\"O\": 1}, \"39\": {\"O\": 1}}" n_minim_iter=1 energy=-45149.519535154 stress="0.07107815622826365 -7.727179115295379e-14 4.840930263447029e-13 -7.727179115295379e-14 0.0710781562299351 -5.453788649594153e-13 4.840930263447029e-13 -5.453788649594153e-13 0.07107815622817078" free_energy=-45149.519535154 pbc="T T T"
In      -4.39680845       3.10901307       5.97612905        0       0.05423555      -0.03835032       0.06642471
In       7.48890758       1.26387546       1.59793605        1      -0.05423555       0.03835032      -0.06642471
In       1.30470932      -0.92256880       5.38496860        2      -0.05423555       0.03835032      -0.06642471
In      -1.54604957      -2.18644426       3.78703255        3      -0.00000000       0.00000000      -0.00000000
In      -1.30470932       4.20223520       3.49145232        4       0.05423555      -0.03835032      -0.06642471
In       4.87948894      -2.93835974       5.68054882        5       0.05423555       0.07670065      -0.00000000
In      -1.30470932       1.43452878       5.68054882        6       0.05423555       0.07670065       0.00000000
In      -1.78738981       7.31124827       1.89351627        7      -0.05423555      -0.07670065      -0.00000000
In       4.39680845       0.17065333       4.08261278        8      -0.05423555       0.03835032       0.06642471
In      -1.54604957       4.37288853      -0.00000000        9      -0.00000000       0.00000000      -0.00000000
In       4.39680845       6.72998611       0.29558022       10      -0.05423555       0.03835032       0.06642471
In      -1.30470932      -2.35709758       7.27848487       11       0.05423555      -0.03835032      -0.06642471
In       4.39680845       2.93835975       1.89351627       12      -0.05423555      -0.07670065      -0.00000000
In       1.78738981       5.29545734       2.18909650       13       0.05423555      -0.03835032       0.06642471
In       4.63814869       0.00000000      -0.00000000       14      -0.00000000      -0.00000000      -0.00000000
In       1.54604956       2.18644427       3.78703255       15      -0.00000000       0.00000000       0.00000000
O        0.97290277       4.38050597       4.09945536       16       0.02567088       0.00241348      -0.07347330
O       -2.11919636       3.54642377       5.51774052       17       0.02567088      -0.06483649       0.03464651
O       -0.44771573       2.36450848      -0.00918726       18      -0.05029601      -0.01111978      -0.05839355
O       -0.97290277      -0.81884732       2.04313078       19      -0.02567088      -0.06242300      -0.03882679
O        4.04999918       5.18643158       2.05231804       20      -0.06968538       0.02870947       0.01956676
O        2.13419908       3.00230050       1.73070797       21       0.06968538      -0.00259057       0.03464651
O        2.13419908       6.55701962       0.32161006       22       0.06968538       0.03130005      -0.01507975
O       -2.37851856       6.19327374       3.77784529       23      -0.00628150       0.05112613      -0.05839355
O        3.53981486       2.00838005       7.58325235       24       0.05029601       0.01111978       0.05839355
O        5.47061768      -1.82038521       3.79621980       25       0.00628150      -0.05112613       0.05839355
O        6.63191399       3.36074211       1.73471451       26       0.05029601      -0.05613019      -0.01956676
O        3.80567970       2.36151740       4.10864262       27      -0.00628150      -0.07613336      -0.01507975
O        0.71358057       4.56387445       7.26164229       28      -0.00628150       0.02500723       0.07347330
O        2.37851855      -0.19098592       0.31242281       29       0.00628150      -0.02500723      -0.07347330
O       -3.53981486       1.01214642       5.83935059       30      -0.05029601       0.05613019       0.01956676
O        5.21129549       0.82646476       2.05632457       31      -0.02567088       0.06483649      -0.03464651
O        0.95790005       1.37058803       5.84335713       32      -0.06968538       0.00259057      -0.03464651
O        3.53981486      -0.99623362       5.83016333       33       0.05029601       0.04501040      -0.03882679
O        2.11919636      -0.00761744       3.47460974       34      -0.02567088      -0.00241348       0.07347330
O        0.95790005      -2.18413109       7.25245503       35      -0.06968538      -0.03130005       0.01507975
O       -0.71358058       2.01137113       3.46542248       36       0.00628150       0.07613336       0.01507975
O       -0.95790005      -0.81354305       5.52174706       37       0.06968538      -0.02870947      -0.01956676
O       -0.44771573       5.36912215       1.74390176       38      -0.05029601      -0.04501040       0.03882679
O        4.06500190       5.19173585       5.53093431       39       0.02567088       0.06242300       0.03882679
40
Lattice="9.276297389951292 7.270525028415706e-10 1.0004869654487223e-14 -3.092099130669236 8.745777051407826 -1.2592962738145193e-09 -3.092099129641037 -4.37288852497686 7.574065103193662" Properties=species:S:1:pos:R:3:spacegroup_kinds:I:1:forces:R:3 spacegroup="P 1" unit_cell=conventional occupancy="_JSON {\"0\": {\"In\": 1}, \"1\": {\"In\": 1}, \"2\": {\"In\": 1}, \"3\": {\"In\": 1}, \"4\": {\"In\": 1}, \"5\": {\"In\": 1}, \"6\": {\"In\": 1}, \"7\": {\"In\": 1}, \"8\": {\"In\": 1}, \"9\": {\"In\": 1}, \"10\": {\"In\": 1}, \"11\": {\"In\": 1}, \"12\": {\"In\": 1}, \"13\": {\"In\": 1}, \"14\": {\"In\": 1}, \"15\": {\"In\": 1}, \"16\": {\"O\": 1}, \"17\": {\"O\": 1}, \"18\": {\"O\": 1}, \"19\": {\"O\": 1}, \"20\": {\"O\": 1}, \"21\": {\"O\": 1}, \"22\": {\"O\": 1}, \"23\": {\"O\": 1}, \"24\": {\"O\": 1}, \"25\": {\"O\": 1}, \"26\": {\"O\": 1}, \"27\": {\"O\": 1}, \"28\": {\"O\": 1}, \"29\": {\"O\": 1}, \"30\": {\"O\": 1}, \"31\": {\"O\": 1}, \"32\": {\"O\": 1}, \"33\": {\"O\": 1}, \"34\": {\"O\": 1}, \"35\": {\"O\": 1}, \"36\": {\"O\": 1}, \"37\": {\"O\": 1}, \"38\": {\"O\": 1}, \"39\": {\"O\": 1}}" n_minim_iter=2 energy=-45149.53161532694 stress="0.06976625458390083 5.890880514625876e-13 4.221099467425576e-14 5.890880514625876e-13 0.06976625458386321 2.76375558938662e-13 4.221099467425576e-14 2.76375558938662e-13 0.06976625458401081" free_energy=-45149.53161532694 pbc="T T T"
In      -4.39293448       3.10627376       5.98087367        0       0.02108375      -0.01490847       0.02582222
In       7.48503361       1.26661477       1.59319142        1      -0.02108375       0.01490847      -0.02582222
In       1.30083535      -0.91982950       5.38022397        2      -0.02108375       0.01490847      -0.02582222
In      -1.54604957      -2.18644426       3.78703255        3      -0.00000000      -0.00000000      -0.00000000
In      -1.30083535       4.19949589       3.48670770        4       0.02108375      -0.01490847      -0.02582222
In       4.88336291      -2.93288113       5.68054882        5       0.02108375       0.02981693      -0.00000000
In      -1.30083535       1.44000740       5.68054882        6       0.02108375       0.02981693      -0.00000000
In      -1.79126378       7.30576966       1.89351627        7      -0.02108375      -0.02981693       0.00000000
In       4.39293448       0.17339264       4.08735740        8      -0.02108375       0.01490847       0.02582222
In      -1.54604957       4.37288853      -0.00000000        9       0.00000000       0.00000000      -0.00000000
In       4.39293448       6.73272542       0.30032485       10      -0.02108375       0.01490847       0.02582222
In      -1.30083535      -2.35983689       7.27374025       11       0.02108375      -0.01490847      -0.02582222
In       4.39293448       2.93288113       1.89351627       12      -0.02108375      -0.02981693       0.00000000
In       1.79126378       5.29271803       2.19384112       13       0.02108375      -0.01490847       0.02582222
In       4.63814869       0.00000000      -0.00000000       14       0.00000000       0.00000000       0.00000000
In       1.54604956       2.18644427       3.78703255       15      -0.00000000       0.00000000      -0.00000000
O        0.97473640       4.38067836       4.09420727       16       0.02532571       0.00141150      -0.01679214
O       -2.11736272       3.54179259       5.52021527       17       0.02532571      -0.01524817       0.00717367
O       -0.45130831       2.36371421      -0.01335823       18      -0.00460343       0.00591493      -0.02948189
O       -0.97473641      -0.82330610       2.04035744       19      -0.02532571      -0.01383667      -0.00961847
O        4.04502165       5.18848226       2.05371566       20      -0.02281802      -0.00318471       0.01986342
O        2.13917661       3.00211545       1.73318272       21       0.02281802      -0.01879458       0.00717367
O        2.13917661       6.55925533       0.32053294       22       0.02281802       0.01560987       0.01268975
O       -2.37896723       6.19692560       3.77367433       23      -0.00711112       0.00236852      -0.02948189
O        3.54340743       2.00917432       7.58742332       24       0.00460343      -0.00591493       0.02948189
O        5.47106636      -1.82403707       3.80039077       25       0.00711112      -0.00236852       0.02948189
O        6.63550656       3.35673281       1.73331688       26       0.00460343      -0.02257460      -0.01986342
O        3.80523103       2.35607930       4.10756549       27      -0.00711112      -0.02671633       0.01268975
O        0.71313190       4.56566068       7.26689038       28      -0.00711112       0.02434781       0.01679214
O        2.37896723      -0.19277215       0.30717472       29       0.00711112      -0.02434781      -0.01679214
O       -3.54340744       1.01615572       5.84074821       30      -0.00460343       0.02257460       0.01986342
O        5.20946185       0.83109594       2.05384982       31      -0.02532571       0.01524817      -0.00717367
O        0.95292252       1.37077308       5.84088238       32      -0.02281802       0.01879458      -0.00717367
O        3.54340743      -0.99301859       5.82738999       33       0.00460343       0.02848953      -0.00961847
O        2.11736272      -0.00778983       3.47985783       34      -0.02532571      -0.00141150       0.01679214
O        0.95292252      -2.18636680       7.25353216       35      -0.02281802      -0.01560987      -0.01268975
O       -0.71313190       2.01680923       3.46649961       36       0.00711112       0.02671633      -0.01268975
O       -0.95292252      -0.81559373       5.52034943       37       0.02281802       0.00318471      -0.01986342
O       -0.45130831       5.36590712       1.74667510       38      -0.00460343      -0.02848953       0.00961847
O        4.06683553       5.19619463       5.53370766       39       0.02532571       0.01383667       0.00961847
40
Lattice="9.276297389951292 7.270525028415706e-10 1.0004869654487223e-14 -3.092099130669236 8.745777051407826 -1.2592962738145193e-09 -3.092099129641037 -4.37288852497686 7.574065103193662" Properties=species:S:1:pos:R:3:spacegroup_kinds:I:1:forces:R:3 spacegroup="P 1" unit_cell=conventional occupancy="_JSON {\"0\": {\"In\": 1}, \"1\": {\"In\": 1}, \"2\": {\"In\": 1}, \"3\": {\"In\": 1}, \"4\": {\"In\": 1}, \"5\": {\"In\": 1}, \"6\": {\"In\": 1}, \"7\": {\"In\": 1}, \"8\": {\"In\": 1}, \"9\": {\"In\": 1}, \"10\": {\"In\": 1}, \"11\": {\"In\": 1}, \"12\": {\"In\": 1}, \"13\": {\"In\": 1}, \"14\": {\"In\": 1}, \"15\": {\"In\": 1}, \"16\": {\"O\": 1}, \"17\": {\"O\": 1}, \"18\": {\"O\": 1}, \"19\": {\"O\": 1}, \"20\": {\"O\": 1}, \"21\": {\"O\": 1}, \"22\": {\"O\": 1}, \"23\": {\"O\": 1}, \"24\": {\"O\": 1}, \"25\": {\"O\": 1}, \"26\": {\"O\": 1}, \"27\": {\"O\": 1}, \"28\": {\"O\": 1}, \"29\": {\"O\": 1}, \"30\": {\"O\": 1}, \"31\": {\"O\": 1}, \"32\": {\"O\": 1}, \"33\": {\"O\": 1}, \"34\": {\"O\": 1}, \"35\": {\"O\": 1}, \"36\": {\"O\": 1}, \"37\": {\"O\": 1}, \"38\": {\"O\": 1}, \"39\": {\"O\": 1}}" n_minim_iter=3 energy=-45149.53348770609 stress="0.06901775267548733 2.482029758325685e-13 5.09639256770485e-13 2.482029758325685e-13 0.06901775267570823 3.509406855121304e-13 5.09639256770485e-13 3.509406855121304e-13 0.06901775267547845" free_energy=-45149.53348770609 pbc="T T T"
In      -4.39079022       3.10475754       5.98349985        0       0.00321459      -0.00227306       0.00393705
In       7.48288935       1.26813099       1.59056525        1      -0.00321459       0.00227306      -0.00393705
In       1.29869109      -0.91831327       5.37759780        2      -0.00321459       0.00227306      -0.00393705
In      -1.54604957      -2.18644426       3.78703255        3      -0.00000000       0.00000000      -0.00000000
In      -1.29869109       4.19797967       3.48408152        4       0.00321459      -0.00227306      -0.00393705
In       4.88550717      -2.92984868       5.68054882        5       0.00321459       0.00454612       0.00000000
In      -1.29869109       1.44303985       5.68054882        6       0.00321459       0.00454612       0.00000000
In      -1.79340804       7.30273721       1.89351627        7      -0.00321459      -0.00454612      -0.00000000
In       4.39079022       0.17490886       4.08998358        8      -0.00321459       0.00227306       0.00393705
In      -1.54604957       4.37288853      -0.00000000        9      -0.00000000      -0.00000000       0.00000000
In       4.39079022       6.73424165       0.30295102       10      -0.00321459       0.00227306       0.00393705
In      -1.29869109      -2.36135312       7.27111407       11       0.00321459      -0.00227306      -0.00393705
In       4.39079022       2.92984868       1.89351627       12      -0.00321459      -0.00454612       0.00000000
In       1.79340804       5.29120180       2.19646730       13       0.00321459      -0.00227306       0.00393705
In       4.63814869       0.00000000      -0.00000000       14      -0.00000000      -0.00000000      -0.00000000
In       1.54604956       2.18644427       3.78703255       15      -0.00000000      -0.00000000       0.00000000
O        0.97608548       4.38078408       4.09155870       16       0.02364642       0.00012734       0.01249940
O       -2.11601365       3.53944600       5.52144800       17       0.02364642       0.01076113      -0.00635998
O       -0.45297132       2.36349749      -0.01581455       18       0.01814789       0.01464918      -0.01309428
O       -0.97608548      -0.82554697       2.03894160       19      -0.02364642       0.01088847       0.00613942
O        4.04235957       5.18930497       2.05475614       20       0.00226355      -0.01844846       0.01923370
O        2.14183869       3.00162573       1.73441545       21      -0.00226355      -0.02588110      -0.00635998
O        2.14183869       6.56056777       0.32034069       22      -0.00226355       0.00743264       0.02559368
O       -2.37931725       6.19856575       3.77121801       23      -0.00776208      -0.02199305      -0.01309428
O        3.54507045       2.00939104       7.58987964       24      -0.01814789      -0.01464918       0.01309428
O        5.47141637      -1.82567722       3.80284709       25       0.00776208       0.02199305       0.01309428
O        6.63716958       3.35449722       1.73227641       26      -0.01814789      -0.00401539      -0.01923370
O        3.80488101       2.35313199       4.10737324       27      -0.00776208      -0.00034346       0.02559368
O        0.71278188       4.56696784       7.26953895       28      -0.00776208       0.02233651      -0.01249940
O        2.37931724      -0.19407931       0.30452615       29       0.00776208      -0.02233651       0.01249940
O       -3.54507045       1.01839131       5.84178869       30       0.01814789       0.00401539       0.01923370
O        5.20811278       0.83344253       2.05261710       31      -0.02364642      -0.01076113       0.00635998
O        0.95026044       1.37126280       5.83964965       32       0.00226355       0.02588110       0.00635998
O        3.54507045      -0.99099972       5.82597415       33      -0.01814789       0.01866457       0.00613942
O        2.11601365      -0.00789555       3.48250640       34      -0.02364642      -0.00012734      -0.01249940
O        0.95026044      -2.18767923       7.25372441       35       0.00226355      -0.00743264      -0.02559368
O       -0.71278189       2.01975654       3.46669185       36       0.00776208       0.00034346      -0.02559368
O       -0.95026044      -0.81641644       5.51930896       37      -0.00226355       0.01844846      -0.01923370
O       -0.45297132       5.36388825       1.74809095       38       0.01814789      -0.01866457      -0.00613942
O        4.06818461       5.19843550       5.53512350       39       0.02364642      -0.01088847      -0.00613942
40
Lattice="9.276297389951292 7.270525028415706e-10 1.0004869654487223e-14 -3.092099130669236 8.745777051407826 -1.2592962738145193e-09 -3.092099129641037 -4.37288852497686 7.574065103193662" Properties=species:S:1:pos:R:3:spacegroup_kinds:I:1:forces:R:3 spacegroup="P 1" unit_cell=conventional occupancy="_JSON {\"0\": {\"In\": 1}, \"1\": {\"In\": 1}, \"2\": {\"In\": 1}, \"3\": {\"In\": 1}, \"4\": {\"In\": 1}, \"5\": {\"In\": 1}, \"6\": {\"In\": 1}, \"7\": {\"In\": 1}, \"8\": {\"In\": 1}, \"9\": {\"In\": 1}, \"10\": {\"In\": 1}, \"11\": {\"In\": 1}, \"12\": {\"In\": 1}, \"13\": {\"In\": 1}, \"14\": {\"In\": 1}, \"15\": {\"In\": 1}, \"16\": {\"O\": 1}, \"17\": {\"O\": 1}, \"18\": {\"O\": 1}, \"19\": {\"O\": 1}, \"20\": {\"O\": 1}, \"21\": {\"O\": 1}, \"22\": {\"O\": 1}, \"23\": {\"O\": 1}, \"24\": {\"O\": 1}, \"25\": {\"O\": 1}, \"26\": {\"O\": 1}, \"27\": {\"O\": 1}, \"28\": {\"O\": 1}, \"29\": {\"O\": 1}, \"30\": {\"O\": 1}, \"31\": {\"O\": 1}, \"32\": {\"O\": 1}, \"33\": {\"O\": 1}, \"34\": {\"O\": 1}, \"35\": {\"O\": 1}, \"36\": {\"O\": 1}, \"37\": {\"O\": 1}, \"38\": {\"O\": 1}, \"39\": {\"O\": 1}}" n_minim_iter=4 energy=-45149.53496293373 stress="0.06825182749510567 2.331928715900314e-13 -1.4329594147935808e-13 2.331928715900314e-13 0.06825182749487863 -3.1441277402489326e-13 -1.4329594147935808e-13 -3.1441277402489326e-13 0.06825182749428796" free_energy=-45149.53496293373 pbc="T T T"
In      -4.38820421       3.10292896       5.98666705        0      -0.01257570       0.00889236      -0.01540203
In       7.48030334       1.26995957       1.58739805        1       0.01257570      -0.00889236       0.01540203
In       1.29610508      -0.91648469       5.37443060        2       0.01257570      -0.00889236       0.01540203
In      -1.54604957      -2.18644426       3.78703255        3      -0.00000000      -0.00000000      -0.00000000
In      -1.29610508       4.19615109       3.48091432        4      -0.01257570       0.00889236       0.01540203
In       4.88809318      -2.92619151       5.68054882        5      -0.01257570      -0.01778473      -0.00000000
In      -1.29610508       1.44669701       5.68054882        6      -0.01257570      -0.01778473       0.00000000
In      -1.79599405       7.29908004       1.89351627        7       0.01257570       0.01778473       0.00000000
In       4.38820421       0.17673744       4.09315077        8       0.01257570      -0.00889236      -0.01540203
In      -1.54604957       4.37288853      -0.00000000        9       0.00000000       0.00000000       0.00000000
In       4.38820421       6.73607023       0.30611822       10       0.01257570      -0.00889236      -0.01540203
In      -1.29610508      -2.36318170       7.26794688       11      -0.01257570       0.00889236       0.01540203
In       4.38820421       2.92619152       1.89351627       12       0.01257570       0.01778473      -0.00000000
In       1.79599405       5.28937322       2.19963450       13      -0.01257570       0.00889236      -0.01540203
In       4.63814869       0.00000000      -0.00000000       14       0.00000000      -0.00000000       0.00000000
In       1.54604956       2.18644427       3.78703255       15       0.00000000       0.00000000      -0.00000000
O        0.98109520       4.38090432       4.09094057       16       0.01264799       0.00048060       0.02523664
O       -2.11100393       3.53885057       5.52165293       17       0.01264799       0.02161527      -0.01303453
O       -0.45174943       2.36558047      -0.02024874       18       0.02504819       0.01284701       0.00215255
O       -0.98109521      -0.82602216       2.03852841       19      -0.01264799       0.02209588       0.01220211
O        4.04012829       5.18722008       2.05877714       20       0.01616308      -0.02085310       0.01004956
O        2.14406997       2.99710100       1.73462038       21      -0.01616308      -0.01912973      -0.01303453
O        2.14406997       6.56300761       0.32415676       22      -0.01616308      -0.00172337       0.02308410
O       -2.38087380       6.19671942       3.76678381       23      -0.00376288      -0.02789799       0.00215255
O        3.54384856       2.00730806       7.59431383       24      -0.02504819      -0.01284701      -0.00215255
O        5.47297292      -1.82383089       3.80728128       25       0.00376288       0.02789799      -0.00215255
O        6.63594769       3.35169858       1.72825540       26      -0.02504819       0.00828766      -0.01004956
O        3.80332446       2.35021503       4.11118931       27      -0.00376288       0.01581316       0.02308410
O        0.71122533       4.57173113       7.27015707       28      -0.00376288       0.01208484      -0.02523664
O        2.38087379      -0.19884260       0.30390802       29       0.00376288      -0.01208484       0.02523664
O       -3.54384856       1.02118995       5.84580969       30       0.02504819      -0.00828766       0.01004956
O        5.20310305       0.83403796       2.05241216       31      -0.01264799      -0.02161527       0.01303453
O        0.94802916       1.37578753       5.83944471       32       0.01616308       0.01912973       0.01303453
O        3.54384856      -0.98611811       5.82556096       33      -0.02504819       0.00455934       0.01220211
O        2.11100392      -0.00801579       3.48312452       34      -0.01264799      -0.00048060      -0.02523664
O        0.94802916      -2.19011908       7.24990834       35       0.01616308       0.00172337      -0.02308410
O       -0.71122534       2.02267350       3.46287579       36       0.00376288      -0.01581316      -0.02308410
O       -0.94802916      -0.81433155       5.51528795       37      -0.01616308       0.02085310      -0.01004956
O       -0.45174943       5.35900664       1.74850414       38       0.02504819      -0.00455934      -0.01220211
O        4.07319433       5.19891069       5.53553669       39       0.01264799      -0.02209588      -0.01220211
40
Lattice="9.276297389951292 7.270525028415709e-10 1.0004869654487223e-14 -3.0920991306692374 8.745777051407826 -1.2592962738145193e-09 -3.0920991296410385 -4.37288852497686 7.574065103193663" Properties=species:S:1:pos:R:3:spacegroup_kinds:I:1:forces:R:3 spacegroup="P 1" unit_cell=conventional occupancy="_JSON {\"0\": {\"In\": 1}, \"1\": {\"In\": 1}, \"2\": {\"In\": 1}, \"3\": {\"In\": 1}, \"4\": {\"In\": 1}, \"5\": {\"In\": 1}, \"6\": {\"In\": 1}, \"7\": {\"In\": 1}, \"8\": {\"In\": 1}, \"9\": {\"In\": 1}, \"10\": {\"In\": 1}, \"11\": {\"In\": 1}, \"12\": {\"In\": 1}, \"13\": {\"In\": 1}, \"14\": {\"In\": 1}, \"15\": {\"In\": 1}, \"16\": {\"O\": 1}, \"17\": {\"O\": 1}, \"18\": {\"O\": 1}, \"19\": {\"O\": 1}, \"20\": {\"O\": 1}, \"21\": {\"O\": 1}, \"22\": {\"O\": 1}, \"23\": {\"O\": 1}, \"24\": {\"O\": 1}, \"25\": {\"O\": 1}, \"26\": {\"O\": 1}, \"27\": {\"O\": 1}, \"28\": {\"O\": 1}, \"29\": {\"O\": 1}, \"30\": {\"O\": 1}, \"31\": {\"O\": 1}, \"32\": {\"O\": 1}, \"33\": {\"O\": 1}, \"34\": {\"O\": 1}, \"35\": {\"O\": 1}, \"36\": {\"O\": 1}, \"37\": {\"O\": 1}, \"38\": {\"O\": 1}, \"39\": {\"O\": 1}}" n_minim_iter=5 energy=-45149.536568837 stress="0.06850558344865665 -2.2217848759550473e-13 6.903404878751918e-13 -2.2217848759550473e-13 0.06850558344764125 -4.2820696594984266e-14 6.903404878751918e-13 -4.2820696594984266e-14 0.06850558344687155" free_energy=-45149.536568837 pbc="T T T"
In      -4.38841346       3.10307692       5.98641078        0      -0.00367578       0.00259917      -0.00450189
In       7.48051258       1.26981161       1.58765432        1       0.00367578      -0.00259917       0.00450189
In       1.29631432      -0.91663265       5.37468687        2       0.00367578      -0.00259917       0.00450189
In      -1.54604957      -2.18644426       3.78703255        3      -0.00000000      -0.00000000       0.00000000
In      -1.29631433       4.19629905       3.48117060        4      -0.00367578       0.00259917       0.00450189
In       4.88788393      -2.92648743       5.68054882        5      -0.00367578      -0.00519833       0.00000000
In      -1.29631433       1.44640110       5.68054882        6      -0.00367578      -0.00519833      -0.00000000
In      -1.79578481       7.29937596       1.89351627        7       0.00367578       0.00519833      -0.00000000
In       4.38841345       0.17658948       4.09289450        8       0.00367578      -0.00259917      -0.00450189
In      -1.54604957       4.37288853      -0.00000000        9       0.00000000      -0.00000000       0.00000000
In       4.38841345       6.73592227       0.30586195       10       0.00367578      -0.00259917      -0.00450189
In      -1.29631433      -2.36303374       7.26820315       11      -0.00367578       0.00259917       0.00450189
In       4.38841345       2.92648743       1.89351627       12       0.00367578       0.00519833       0.00000000
In       1.79578480       5.28952118       2.19937823       13      -0.00367578       0.00259917      -0.00450189
In       4.63814869       0.00000000      -0.00000000       14       0.00000000      -0.00000000      -0.00000000
In       1.54604956       2.18644427       3.78703255       15       0.00000000      -0.00000000      -0.00000000
O        0.98503595       4.38092852       4.09411777       16       0.00267222       0.00309746      -0.00383054
O       -2.10706318       3.54159000       5.52004338       17       0.00267222      -0.00486607      -0.00076721
O       -0.44783028       2.36833516      -0.02188473       18      -0.00077672      -0.00242730      -0.00499128
O       -0.98503595      -0.82325854       2.04009605       19      -0.00267222      -0.00176861      -0.00459774
O        4.04139747       5.18351191       2.06198077       20      -0.00547851      -0.00111311       0.00039354
O        2.14280079       2.99247248       1.73301083       21       0.00547851      -0.00089737      -0.00076721
O        2.14280079       6.56392796       0.32896994       22       0.00547851      -0.00021574       0.00116075
O       -2.38216457       6.19210617       3.76514782       23       0.00202957       0.00154140      -0.00499128
O        3.53992941       2.00455337       7.59594983       24       0.00077672       0.00242730       0.00499128
O        5.47426369      -1.81921764       3.80891728       25      -0.00202957      -0.00154140       0.00499128
O        6.63202854       3.35165912       1.72505177       26       0.00077672      -0.00553623      -0.00039354
O        3.80203370       2.35110484       4.11600249       27       0.00202957      -0.00509328       0.00116075
O        0.70993456       4.57545457       7.26697988       28       0.00202957       0.00355188       0.00383054
O        2.38216456      -0.20256604       0.30708521       29      -0.00202957      -0.00355188      -0.00383054
O       -3.53992941       1.02122941       5.84901333       30      -0.00077672       0.00553623       0.00039354
O        5.19916231       0.83129853       2.05402171       31      -0.00267222       0.00486607       0.00076721
O        0.94929834       1.38041605       5.84105427       32      -0.00547851       0.00089737       0.00076721
O        3.53992941      -0.98332395       5.82712860       33       0.00077672       0.00310893      -0.00459774
O        2.10706318      -0.00803999       3.47994733       34      -0.00267222      -0.00309746       0.00383054
O        0.94929834      -2.19103943       7.24509516       35      -0.00547851       0.00021574      -0.00116075
O       -0.70993457       2.02178369       3.45806260       36      -0.00202957       0.00509328      -0.00116075
O       -0.94929834      -0.81062338       5.51208432       37       0.00547851       0.00111311      -0.00039354
O       -0.44783028       5.35621248       1.74693650       38      -0.00077672      -0.00310893       0.00459774
O        4.07713508       5.19614707       5.53396905       39       0.00267222       0.00176861       0.00459774
