40
Lattice="8.279812170126156 6.48948264853944e-10 2.035839011957095e-14 -2.759937390653889 7.806281776379835 -1.1240186658024065e-09 -2.7599373897361548 -3.9031408875409714 6.760438328193789" Properties=species:S:1:pos:R:3:spacegroup_kinds:I:1:forces:R:3 spacegroup="P 1" unit_cell=conventional occupancy="_JSON {\"0\": {\"In\": 1}, \"1\": {\"In\": 1}, \"2\": {\"In\": 1}, \"3\": {\"In\": 1}, \"4\": {\"In\": 1}, \"5\": {\"In\": 1}, \"6\": {\"In\": 1}, \"7\": {\"In\": 1}, \"8\": {\"In\": 1}, \"9\": {\"In\": 1}, \"10\": {\"In\": 1}, \"11\": {\"In\": 1}, \"12\": {\"In\": 1}, \"13\": {\"In\": 1}, \"14\": {\"In\": 1}, \"15\": {\"In\": 1}, \"16\": {\"O\": 1}, \"17\": {\"O\": 1}, \"18\": {\"O\": 1}, \"19\": {\"O\": 1}, \"20\": {\"O\": 1}, \"21\": {\"O\": 1}, \"22\": {\"O\": 1}, \"23\": {\"O\": 1}, \"24\": {\"O\": 1}, \"25\": {\"O\": 1}, \"26\": {\"O\": 1}, \"27\": {\"O\": 1}, \"28\": {\"O\": 1}, \"29\": {\"O\": 1}, \"30\": {\"O\": 1}, \"31\": {\"O\": 1}, \"32\": {\"O\": 1}, \"33\": {\"O\": 1}, \"34\": {\"O\": 1}, \"35\": {\"O\": 1}, \"36\": {\"O\": 1}, \"37\": {\"O\": 1}, \"38\": {\"O\": 1}, \"39\": {\"O\": 1}}" n_minim_iter=7 energy=-45143.051976001065 stress="-0.23039653976092625 -3.1424184330012273e-13 -8.333970458555035e-13 -3.1424184330012273e-13 -0.23039653976008492 -6.602022466040491e-13 -8.333970458555035e-13 -6.602022466040491e-13 -0.23039653976123184" free_energy=-45143.051976001065 pbc="T T T"
In      -3.93557984       2.78287520       5.32057626        0       0.00547405      -0.00387074       0.00670432
In       6.69551723       1.12026570       1.43986206        1      -0.00547405       0.00387074      -0.00670432
In       1.17564245      -0.83130475       4.82008123        2      -0.00547405       0.00387074      -0.00670432
In      -1.37996870      -1.95157044       3.38021916        3      -0.00000000       0.00000000       0.00000000
In      -1.17564245       3.75866042       3.12997164        4       0.00547405      -0.00387074      -0.00670432
In       4.34423233      -2.63839472       5.07032874        5       0.00547405       0.00774148      -0.00000000
In      -1.17564245       1.26474617       5.07032874        6       0.00547405       0.00774148       0.00000000
In      -1.58429494       6.54153561       1.69010958        7      -0.00547405      -0.00774148      -0.00000000
In       3.93557984       0.14448047       3.63046668        8      -0.00547405       0.00387074       0.00670432
In      -1.37996870       3.90314089      -0.00000000        9       0.00000000      -0.00000000      -0.00000000
In       3.93557984       5.99919181       0.25024752       10      -0.00547405       0.00387074       0.00670432
In      -1.17564245      -2.09605091       6.51019081       11       0.00547405      -0.00387074      -0.00670432
In       3.93557984       2.63839472       1.69010958       12      -0.00547405      -0.00774148       0.00000000
In       1.58429494       4.73444564       1.94035710       13       0.00547405      -0.00387074       0.00670432
In       4.13990608       0.00000000      -0.00000000       14       0.00000000       0.00000000       0.00000000
In       1.37996869       1.95157045       3.38021916       15       0.00000000      -0.00000000      -0.00000000
O        0.80245179       3.88554191       3.73766744       16      -0.00039035      -0.00430365      -0.00686362
O       -1.95748560       3.24571445       4.90684577       17      -0.00039035      -0.00379225       0.00715889
O       -0.36893614       2.12244036       0.09197524       18      -0.00776300       0.00142101      -0.00187074
O       -0.80245179      -0.67502542       1.88407489       19       0.00039035      -0.00809590       0.00029526
O        3.71258412       4.63126825       1.79209964       20      -0.00344525       0.00701583       0.00216600
O        1.80729065       2.71520075       1.52662661       21       0.00344525       0.00163211       0.00715889
O        1.80729065       5.81920839       0.26547303       22       0.00344525       0.00538373      -0.00499289
O       -2.12403467       5.49506755       3.47219441       23      -0.00392741       0.00684536      -0.00187074
O        3.12887353       1.78070054       6.66846308       24       0.00776300      -0.00142101       0.00187074
O        4.88397206      -1.59192666       3.28824392       25       0.00392741      -0.00684536       0.00187074
O        5.88881092       3.09244352       1.58811952       26       0.00776300      -0.00090960      -0.00216600
O        3.39584011       2.21104524       3.64569220       27      -0.00392741      -0.00504279      -0.00499289
O        0.63590272       4.00330989       6.40299005       28      -0.00392741      -0.00180257       0.00686362
O        2.12403467      -0.10016899       0.35744828       29       0.00392741       0.00180257      -0.00686362
O       -3.12887353       0.81069737       5.17231880       30      -0.00776300       0.00090960       0.00216600
O        4.71742299       0.65742644       1.85359255       31       0.00039035       0.00379225      -0.00715889
O        0.95264673       1.18794014       5.23381172       32      -0.00344525      -0.00163211      -0.00715889
O        3.12887353      -0.97000316       5.26429405       33       0.00776300       0.00233061       0.00029526
O        1.95748560       0.01759899       3.02277088       34       0.00039035       0.00430365       0.00686362
O        0.95264674      -1.91606749       6.49496529       35      -0.00344525      -0.00538373       0.00499289
O       -0.63590272       1.69209565       3.11474613       36       0.00392741       0.00504279       0.00499289
O       -0.95264674      -0.72812735       4.96833868       37       0.00344525      -0.00701583      -0.00216600
O       -0.36893614       4.87314405       1.49614427       38      -0.00776300      -0.00233061      -0.00029526
O        3.56238918       4.57816632       4.87636344       39      -0.00039035       0.00809590      -0.00029526
