40
Lattice="8.611351676493856 6.749345261868992e-10 8.381521666005554e-15 -2.870450559467618 8.11886022061629 -1.1690230443712435e-09 -2.8704505585131277 -4.059430109633209 7.031139201607984" Properties=species:S:1:pos:R:3:spacegroup_kinds:I:1:forces:R:3 spacegroup="P 1" unit_cell=conventional occupancy="_JSON {\"0\": {\"In\": 1}, \"1\": {\"In\": 1}, \"2\": {\"In\": 1}, \"3\": {\"In\": 1}, \"4\": {\"In\": 1}, \"5\": {\"In\": 1}, \"6\": {\"In\": 1}, \"7\": {\"In\": 1}, \"8\": {\"In\": 1}, \"9\": {\"In\": 1}, \"10\": {\"In\": 1}, \"11\": {\"In\": 1}, \"12\": {\"In\": 1}, \"13\": {\"In\": 1}, \"14\": {\"In\": 1}, \"15\": {\"In\": 1}, \"16\": {\"O\": 1}, \"17\": {\"O\": 1}, \"18\": {\"O\": 1}, \"19\": {\"O\": 1}, \"20\": {\"O\": 1}, \"21\": {\"O\": 1}, \"22\": {\"O\": 1}, \"23\": {\"O\": 1}, \"24\": {\"O\": 1}, \"25\": {\"O\": 1}, \"26\": {\"O\": 1}, \"27\": {\"O\": 1}, \"28\": {\"O\": 1}, \"29\": {\"O\": 1}, \"30\": {\"O\": 1}, \"31\": {\"O\": 1}, \"32\": {\"O\": 1}, \"33\": {\"O\": 1}, \"34\": {\"O\": 1}, \"35\": {\"O\": 1}, \"36\": {\"O\": 1}, \"37\": {\"O\": 1}, \"38\": {\"O\": 1}, \"39\": {\"O\": 1}}" n_minim_iter=4 energy=-45149.676235161875 stress="-0.09707878694717537 -1.951750795165366e-13 1.6442754695918732e-13 -1.951750795165366e-13 -0.09707878694655503 -2.784632166192246e-13 1.6442754695918732e-13 -2.784632166192246e-13 -0.09707878694709893" free_energy=-45149.676235161875 pbc="T T T"
In      -4.11150060       2.90726996       5.51116952        0       0.00262887      -0.00185889       0.00321969
In       6.98195116       1.15216016       1.51996967        1      -0.00262887       0.00185889      -0.00321969
In       1.24105004      -0.87755490       5.03553928        2      -0.00262887       0.00185889      -0.00321969
In      -1.43522528      -2.02971505       3.51556960        3      -0.00000000       0.00000000       0.00000000
In      -1.24105005       3.92212749       3.27775447        4       0.00262887      -0.00185889      -0.00321969
In       4.49985107      -2.76996733       5.27335440        5       0.00262887       0.00371778      -0.00000000
In      -1.24105005       1.28946278       5.27335440        6       0.00262887       0.00371778      -0.00000000
In      -1.62940052       6.82939744       1.75778480        7      -0.00262887      -0.00371778       0.00000000
In       4.11150060       0.13730263       3.75338472        8      -0.00262887       0.00185889       0.00321969
In      -1.43522528       4.05943011      -0.00000000        9      -0.00000000      -0.00000000       0.00000000
In       4.11150060       6.22644779       0.23781512       10      -0.00262887       0.00185889       0.00321969
In      -1.24105005      -2.16701768       6.79332408       11       0.00262887      -0.00185889      -0.00321969
In       4.11150060       2.76996733       1.75778480       12      -0.00262887      -0.00371778      -0.00000000
In       1.62940051       4.93698501       1.99559992       13       0.00262887      -0.00185889       0.00321969
In       4.30567584       0.00000000      -0.00000000       14       0.00000000       0.00000000       0.00000000
In       1.43522528       2.02971506       3.51556960       15      -0.00000000       0.00000000      -0.00000000
O        0.82752315       4.05116748       3.85545864       16       0.00041840       0.00197793      -0.00082763
O       -2.04292741       3.34305644       5.11056552       17       0.00041840      -0.00170571      -0.00129912
O       -0.40735260       2.18653041       0.08258817       18       0.00039611      -0.00168995      -0.00132642
O       -0.82752316      -0.72463630       1.93488497       19      -0.00041840       0.00027221      -0.00212675
O        3.83283964       4.83174872       1.85229679       20      -0.00174763      -0.00103802      -0.00080033
O        1.90806147       2.84145334       1.59499592       21       0.00174763       0.00017410      -0.00129912
O        1.90806147       6.04972549       0.25730086       22       0.00174763      -0.00121212       0.00049878
O       -2.19726484       5.74435741       3.59815777       23       0.00172534       0.00018986      -0.00132642
O        3.27780316       1.87289970       6.94855102       24      -0.00039611       0.00168995       0.00132642
O        5.06771540      -1.68492730       3.43298142       25      -0.00172534      -0.00018986       0.00132642
O        6.14825372       3.19450372       1.66327281       26      -0.00039611      -0.00199369       0.00080033
O        3.54363628       2.27363239       3.77287046       27       0.00172534      -0.00124364       0.00049878
O        0.67318572       4.16030053       6.69125016       28       0.00172534       0.00105378       0.00082763
O        2.19726484      -0.10087042       0.33988904       29      -0.00172534      -0.00105378      -0.00082763
O       -3.27780316       0.86492639       5.36786639       30       0.00039611       0.00199369      -0.00080033
O        4.91337796       0.71637367       1.92057367       31      -0.00041840       0.00170571       0.00129912
O        0.96238908       1.21797678       5.43614327       32      -0.00174763      -0.00017410       0.00129912
O        3.27780316      -1.00797331       5.45045457       33      -0.00039611       0.00030373      -0.00212675
O        2.04292740       0.00826263       3.17568056       34      -0.00041840      -0.00197793       0.00082763
O        0.96238908      -1.99029538       6.77383833       35      -0.00174763       0.00121212      -0.00049878
O       -0.67318572       1.78579772       3.25826873       36      -0.00172534       0.00124364      -0.00049878
O       -0.96238908      -0.77231860       5.17884241       37       0.00174763       0.00103802       0.00080033
O       -0.40735260       5.06740342       1.58068463       38       0.00039611      -0.00030373       0.00212675
O        3.69797371       4.78406641       5.09625423       39       0.00041840      -0.00027221       0.00212675
