40
Lattice="9.34450790863433 7.323985547776703e-10 1.1640462135759332e-14 -3.114835970235288 8.810086545151409 -1.2685564652017329e-09 -3.114835969199527 -4.405043271843306 7.629758758486293" Properties=species:S:1:pos:R:3:spacegroup_kinds:I:1:forces:R:3 spacegroup="P 1" unit_cell=conventional occupancy="_JSON {\"0\": {\"In\": 1}, \"1\": {\"In\": 1}, \"2\": {\"In\": 1}, \"3\": {\"In\": 1}, \"4\": {\"In\": 1}, \"5\": {\"In\": 1}, \"6\": {\"In\": 1}, \"7\": {\"In\": 1}, \"8\": {\"In\": 1}, \"9\": {\"In\": 1}, \"10\": {\"In\": 1}, \"11\": {\"In\": 1}, \"12\": {\"In\": 1}, \"13\": {\"In\": 1}, \"14\": {\"In\": 1}, \"15\": {\"In\": 1}, \"16\": {\"O\": 1}, \"17\": {\"O\": 1}, \"18\": {\"O\": 1}, \"19\": {\"O\": 1}, \"20\": {\"O\": 1}, \"21\": {\"O\": 1}, \"22\": {\"O\": 1}, \"23\": {\"O\": 1}, \"24\": {\"O\": 1}, \"25\": {\"O\": 1}, \"26\": {\"O\": 1}, \"27\": {\"O\": 1}, \"28\": {\"O\": 1}, \"29\": {\"O\": 1}, \"30\": {\"O\": 1}, \"31\": {\"O\": 1}, \"32\": {\"O\": 1}, \"33\": {\"O\": 1}, \"34\": {\"O\": 1}, \"35\": {\"O\": 1}, \"36\": {\"O\": 1}, \"37\": {\"O\": 1}, \"38\": {\"O\": 1}, \"39\": {\"O\": 1}}" n_minim_iter=8 energy=-45148.50408228993 stress="0.0826564958097953 4.695297888683888e-13 2.590410778203975e-13 4.695297888683888e-13 0.08265649581010757 3.676861740796605e-13 2.590410778203975e-13 3.676861740796605e-13 0.08265649580970502" free_energy=-45148.50408228993 pbc="T T T"
In      -4.41084028       3.11893507       6.04248413        0      -0.00325516       0.00230175      -0.00398675
In       7.52567624       1.28610820       1.58727463        1       0.00325516      -0.00230175       0.00398675
In       1.29600431      -0.91641343       5.40215401        2       0.00325516      -0.00230175       0.00398675
In      -1.55741799      -2.20252163       3.81487938        3       0.00000000       0.00000000      -0.00000000
In      -1.29600431       4.22019589       3.49471432        4      -0.00325516       0.00230175       0.00398675
In       4.93366763      -2.93408768       5.72231907        5      -0.00325516      -0.00460350      -0.00000000
In      -1.29600431       1.47095559       5.72231907        6      -0.00325516      -0.00460350      -0.00000000
In      -1.81883166       7.33913096       1.90743969        7       0.00325516       0.00460350      -0.00000000
In       4.41084028       0.18484739       4.13504444        8       0.00325516      -0.00230175      -0.00398675
In      -1.55741799       4.40504327      -0.00000000        9      -0.00000000      -0.00000000       0.00000000
In       4.41084027       6.79241229       0.32016506       10       0.00325516      -0.00230175      -0.00398675
In      -1.29600431      -2.38736902       7.30959370       11      -0.00325516       0.00230175       0.00398675
In       4.41084028       2.93408769       1.90743969       12       0.00325516       0.00460350       0.00000000
In       1.81883166       5.32145671       2.22760475       13      -0.00325516       0.00230175      -0.00398675
In       4.67225395       0.00000000      -0.00000000       14      -0.00000000      -0.00000000      -0.00000000
In       1.55741798       2.20252164       3.81487938       15       0.00000000      -0.00000000       0.00000000
O        1.00634595       4.41427632       4.11947947       16       0.00231400      -0.00289132      -0.00308908
O       -2.10849002       3.56295736       5.56202296       17       0.00231400      -0.00122956       0.00404850
O       -0.44977257       2.39006700      -0.03623011       18      -0.00311387       0.00260852      -0.00259926
O       -1.00634596      -0.83285287       2.05174368       19      -0.00231400      -0.00412088       0.00095942
O        4.06201841       5.21697869       2.08797379       20      -0.00193057       0.00262020       0.00355868
O        2.16765352       3.00277264       1.74714358       21       0.00193057      -0.00177180       0.00404850
O        2.16765352       6.61924932       0.34083020       22       0.00193057       0.00439200      -0.00048982
O       -2.40330097       6.23492555       3.77864927       23      -0.00349730       0.00206628      -0.00259926
O        3.56460853       2.01497628       7.66598886       24       0.00311387      -0.00260852       0.00259926
O        5.51813693      -1.82988228       3.85110948       25       0.00349730      -0.00206628       0.00259926
O        6.67944450       3.36617895       1.72690559       26       0.00311387      -0.00094676      -0.00355868
O        3.82637097       2.35746513       4.15570958       27      -0.00349730      -0.00328416      -0.00048982
O        0.71153500       4.62273914       7.32515866       28      -0.00349730       0.00121788       0.00308908
O        2.40330096      -0.21769587       0.30460010       29       0.00349730      -0.00121788      -0.00308908
O       -3.56460854       1.03886433       5.90285317       30      -0.00311387       0.00094676       0.00355868
O        5.22332598       0.84208592       2.06773579       31      -0.00231400       0.00122956      -0.00404850
O        0.94718244       1.40227064       5.88261517       32      -0.00193057       0.00177180      -0.00404850
O        3.56460853      -0.97611195       5.86662306       33       0.00311387       0.00355528       0.00095942
O        2.10849001      -0.00923304       3.51027928       34      -0.00231400       0.00289132       0.00308908
O        0.94718244      -2.21420605       7.28892855       35      -0.00193057      -0.00439200       0.00048982
O       -0.71153501       2.04757815       3.47404917       36       0.00349730       0.00328416       0.00048982
O       -0.94718245      -0.81193541       5.54178497       37       0.00193057      -0.00262020      -0.00355868
O       -0.44977257       5.38115522       1.76313569       38      -0.00311387      -0.00355528      -0.00095942
O        4.12118192       5.23789615       5.57801507       39       0.00231400       0.00412088      -0.00095942
