40
Lattice="9.411736895711634 7.376679346824171e-10 7.962593111017019e-15 -3.1372456325993565 8.873470642022534 -1.2776797087735447e-09 -3.1372456315561434 -4.436735320273599 7.684650996578712" Properties=species:S:1:pos:R:3:spacegroup_kinds:I:1:forces:R:3 spacegroup="P 1" unit_cell=conventional occupancy="_JSON {\"0\": {\"In\": 1}, \"1\": {\"In\": 1}, \"2\": {\"In\": 1}, \"3\": {\"In\": 1}, \"4\": {\"In\": 1}, \"5\": {\"In\": 1}, \"6\": {\"In\": 1}, \"7\": {\"In\": 1}, \"8\": {\"In\": 1}, \"9\": {\"In\": 1}, \"10\": {\"In\": 1}, \"11\": {\"In\": 1}, \"12\": {\"In\": 1}, \"13\": {\"In\": 1}, \"14\": {\"In\": 1}, \"15\": {\"In\": 1}, \"16\": {\"O\": 1}, \"17\": {\"O\": 1}, \"18\": {\"O\": 1}, \"19\": {\"O\": 1}, \"20\": {\"O\": 1}, \"21\": {\"O\": 1}, \"22\": {\"O\": 1}, \"23\": {\"O\": 1}, \"24\": {\"O\": 1}, \"25\": {\"O\": 1}, \"26\": {\"O\": 1}, \"27\": {\"O\": 1}, \"28\": {\"O\": 1}, \"29\": {\"O\": 1}, \"30\": {\"O\": 1}, \"31\": {\"O\": 1}, \"32\": {\"O\": 1}, \"33\": {\"O\": 1}, \"34\": {\"O\": 1}, \"35\": {\"O\": 1}, \"36\": {\"O\": 1}, \"37\": {\"O\": 1}, \"38\": {\"O\": 1}, \"39\": {\"O\": 1}}" n_minim_iter=6 energy=-45147.28127746358 stress="0.09627513343293773 4.936848731150894e-13 1.735660792568671e-13 4.936848731150894e-13 0.09627513343368085 -1.9304613087510248e-13 1.735660792568671e-13 -1.9304613087510248e-13 0.0962751334332537" free_energy=-45147.28127746358 pbc="T T T"
In      -4.43077012       3.13302760       6.10041352        0      -0.00405516       0.00286743      -0.00496654
In       7.56801575       1.30370773       1.58423748        1       0.00405516      -0.00286743       0.00496654
In       1.29352448      -0.91465993       5.42656297        2       0.00405516      -0.00286743       0.00496654
In      -1.56862282      -2.21836766       3.84232550        3       0.00000000       0.00000000       0.00000000
In      -1.29352449       4.24221143       3.50540022        4      -0.00405516       0.00286743       0.00496654
In       4.98096678      -2.93850370       5.76348824        5      -0.00405516      -0.00573487       0.00000000
In      -1.29352449       1.49823162       5.76348824        6      -0.00405516      -0.00573487      -0.00000000
In      -1.84372115       7.37523902       1.92116275        7       0.00405516       0.00573487      -0.00000000
In       4.43077011       0.19452390       4.17925077        8       0.00405516      -0.00286743      -0.00496654
In      -1.56862282       4.43673532      -0.00000000        9       0.00000000      -0.00000000      -0.00000000
In       4.43077011       6.84962688       0.33692527       10       0.00405516      -0.00286743      -0.00496654
In      -1.29352449      -2.41289155       7.34772572       11      -0.00405516       0.00286743       0.00496654
In       4.43077011       2.93850370       1.92116275       12       0.00405516       0.00573487      -0.00000000
In       1.84372115       5.35139526       2.25808802       13      -0.00405516       0.00286743      -0.00496654
In       4.70586845       0.00000000      -0.00000000       14      -0.00000000       0.00000000      -0.00000000
In       1.56862281       2.21836766       3.84232550       15       0.00000000       0.00000000       0.00000000
O        1.02797819       4.44653059       4.14635801       16       0.00457413      -0.00341707      -0.00681274
O       -2.10926744       3.58595374       5.60298904       17       0.00457413      -0.00419147       0.00636563
O       -0.45023011       2.41283719      -0.04976449       18      -0.00564869       0.00303715      -0.00615470
O       -1.02797820      -0.84098631       2.06469605       19      -0.00457413      -0.00760854      -0.00044710
O        4.08395875       5.24899010       2.11446054       20      -0.00547646       0.00405512       0.00570760
O        2.19053251       3.01168616       1.76066354       21       0.00547646      -0.00291537       0.00636563
O        2.19053251       6.67403926       0.35379700       22       0.00547646       0.00697049      -0.00065803
O       -2.42492142       6.27530493       3.79256100       23      -0.00474635       0.00431325      -0.00615470
O        3.58747573       2.02389813       7.73441548       24       0.00564869      -0.00303715       0.00615470
O        5.56216705      -1.83856961       3.89208999       25       0.00474635      -0.00431325       0.00615470
O        6.72472137       3.38168894       1.72786495       26       0.00564869      -0.00381155      -0.00570760
O        3.84956984       2.36516937       4.19612250       27      -0.00474635      -0.00748675      -0.00065803
O        0.71232421       4.66973166       7.38061848       28      -0.00474635       0.00317350       0.00681274
O        2.42492142      -0.23299634       0.30403251       29       0.00474635      -0.00317350      -0.00681274
O       -3.58747574       1.05504638       5.95678604       30      -0.00564869       0.00381155       0.00570760
O        5.24651307       0.85078159       2.08166195       31      -0.00457413       0.00419147      -0.00636563
O        0.94671312       1.42504916       5.92398745       32      -0.00547646       0.00291537      -0.00636563
O        3.58747573      -0.96885175       5.90702155       33       0.00564869       0.00684871      -0.00044710
O        2.10926744      -0.00979527       3.53829298       34      -0.00457413       0.00341707       0.00681274
O        0.94671312      -2.23730393       7.33085399       35      -0.00547646      -0.00697049       0.00065803
O       -0.71232421       2.07156595       3.48852849       36       0.00474635       0.00748675       0.00065803
O       -0.94671312      -0.81225477       5.57019045       37       0.00547646      -0.00405512      -0.00570760
O       -0.45023011       5.40558707       1.77762944       38      -0.00564869      -0.00684871       0.00044710
O        4.16522382       5.27772164       5.61995494       39       0.00457413       0.00760854       0.00044710
