40
Lattice="5.464429001023656 1.1060313762061642e-41 0.0 -1.1666163615275855e-41 5.5744655915257795 0.0 0.0 0.0 15.687629625160554" Properties=species:S:1:pos:R:3:spacegroup_kinds:I:1:forces:R:3 spacegroup="P 1" unit_cell=conventional occupancy="_JSON {\"0\": {\"In\": 1}, \"1\": {\"In\": 1}, \"2\": {\"In\": 1}, \"3\": {\"In\": 1}, \"4\": {\"In\": 1}, \"5\": {\"In\": 1}, \"6\": {\"In\": 1}, \"7\": {\"In\": 1}, \"8\": {\"In\": 1}, \"9\": {\"In\": 1}, \"10\": {\"In\": 1}, \"11\": {\"In\": 1}, \"12\": {\"In\": 1}, \"13\": {\"In\": 1}, \"14\": {\"In\": 1}, \"15\": {\"In\": 1}, \"16\": {\"O\": 1}, \"17\": {\"O\": 1}, \"18\": {\"O\": 1}, \"19\": {\"O\": 1}, \"20\": {\"O\": 1}, \"21\": {\"O\": 1}, \"22\": {\"O\": 1}, \"23\": {\"O\": 1}, \"24\": {\"O\": 1}, \"25\": {\"O\": 1}, \"26\": {\"O\": 1}, \"27\": {\"O\": 1}, \"28\": {\"O\": 1}, \"29\": {\"O\": 1}, \"30\": {\"O\": 1}, \"31\": {\"O\": 1}, \"32\": {\"O\": 1}, \"33\": {\"O\": 1}, \"34\": {\"O\": 1}, \"35\": {\"O\": 1}, \"36\": {\"O\": 1}, \"37\": {\"O\": 1}, \"38\": {\"O\": 1}, \"39\": {\"O\": 1}}" n_minim_iter=14 energy=-45150.21282604886 stress="-0.003911577129861505 1.436528919389475e-13 -1.4306195047628592e-12 1.436528919389475e-13 -0.00372854881268953 -4.84096275907548e-13 -1.4306195047628592e-12 -4.84096275907548e-13 -0.0038380815379942448" free_energy=-45150.21282604886 pbc="T T T"
In       2.74052717       4.42739401       8.96351413        0      -0.00735764       0.00131413      -0.00153548
In       0.00831266       3.93430438       6.72411549        1      -0.00735764      -0.00131413       0.00153548
In       2.72390184       1.64016121      14.56793030        2       0.00735764       0.00131413       0.00153548
In       5.45611634       1.14707159       1.11969932        3       0.00735764      -0.00131413      -0.00153548
In       2.72390184       1.14707159       6.72411549        4       0.00735764      -0.00131413       0.00153548
In       5.45611634       1.64016121       8.96351413        5       0.00735764       0.00131413      -0.00153548
In       2.74052717       3.93430438       1.11969932        6      -0.00735764      -0.00131413      -0.00153548
In       0.00831266       4.42739401      14.56793030        7      -0.00735764       0.00131413       0.00153548
In       2.73979820       4.12584970      12.83662048        8       0.00030165      -0.00617112       0.00054245
In       5.47201270       4.23584869       2.85100914        9       0.00030165       0.00617112      -0.00054245
In       2.72463080       1.33861690      10.69482396       10      -0.00030165      -0.00617112      -0.00054245
In      -0.00758370       1.44861589       4.99280567       11      -0.00030165       0.00617112       0.00054245
In       2.72463080       1.44861589       2.85100914       12      -0.00030165       0.00617112      -0.00054245
In      -0.00758370       1.33861690      12.83662048       13      -0.00030165      -0.00617112       0.00054245
In       2.73979820       4.23584869       4.99280567       14       0.00030165       0.00617112       0.00054245
In       5.47201270       4.12584970      10.69482396       15       0.00030165      -0.00617112      -0.00054245
O        4.70555636       4.83184818      12.52436509       16      -0.00129564      -0.00021344       0.00208125
O        1.97334186       3.52985021       3.16326453       17      -0.00129564       0.00021344      -0.00208125
O        0.75887264       2.04461538      11.00707935       18       0.00129564      -0.00021344      -0.00208125
O        3.49108714       0.74261741       4.68055028       19       0.00129564       0.00021344       0.00208125
O        0.75887264       0.74261741       3.16326453       20       0.00129564       0.00021344      -0.00208125
O        3.49108714       2.04461538      12.52436509       21       0.00129564      -0.00021344       0.00208125
O        4.70555636       3.52985021       4.68055028       22      -0.00129564       0.00021344       0.00208125
O        1.97334186       4.83184818      11.00707935       23      -0.00129564      -0.00021344      -0.00208125
O        3.85559951       2.91142302       9.82703196       24      -0.00058586       0.00182053       0.00437225
O        1.12338501       5.45027536       5.86059766       25      -0.00058586      -0.00182053      -0.00437225
O        1.60882949       0.12419023      13.70441247       26       0.00058586       0.00182053      -0.00437225
O        4.34104399       2.66304257       1.98321715       27       0.00058586      -0.00182053       0.00437225
O        1.60882949       2.66304257       5.86059766       28       0.00058586      -0.00182053      -0.00437225
O        4.34104399       0.12419023       9.82703196       29       0.00058586       0.00182053       0.00437225
O        3.85559951       5.45027536       1.98321715       30      -0.00058586      -0.00182053       0.00437225
O        1.12338501       2.91142302      13.70441247       31      -0.00058586       0.00182053      -0.00437225
O        3.54228631       3.64351789      14.87258781       32      -0.00126003       0.00166338      -0.00240957
O        0.81007181       4.71818049       0.81504182       33      -0.00126003      -0.00166338       0.00240957
O        1.92214269       0.85628510       8.65885663       34       0.00126003       0.00166338       0.00240957
O        4.65435719       1.93094770       7.02877300       35       0.00126003      -0.00166338      -0.00240957
O        1.92214269       1.93094770       0.81504182       36       0.00126003      -0.00166338       0.00240957
O        4.65435719       0.85628510      14.87258781       37       0.00126003       0.00166338      -0.00240957
O        3.54228631       4.71818049       7.02877300       38      -0.00126003      -0.00166338      -0.00240957
O        0.81007181       3.64351789       8.65885663       39      -0.00126003       0.00166338       0.00240957
