40
Lattice="5.697793402446965 1.0219732141967589e-41 0.0 -1.0823422374968321e-41 6.034367999406118 0.0 0.0 0.0 16.600945325153546" Properties=species:S:1:pos:R:3:spacegroup_kinds:I:1:forces:R:3 spacegroup="P 1" unit_cell=conventional occupancy="_JSON {\"0\": {\"In\": 1}, \"1\": {\"In\": 1}, \"2\": {\"In\": 1}, \"3\": {\"In\": 1}, \"4\": {\"In\": 1}, \"5\": {\"In\": 1}, \"6\": {\"In\": 1}, \"7\": {\"In\": 1}, \"8\": {\"In\": 1}, \"9\": {\"In\": 1}, \"10\": {\"In\": 1}, \"11\": {\"In\": 1}, \"12\": {\"In\": 1}, \"13\": {\"In\": 1}, \"14\": {\"In\": 1}, \"15\": {\"In\": 1}, \"16\": {\"O\": 1}, \"17\": {\"O\": 1}, \"18\": {\"O\": 1}, \"19\": {\"O\": 1}, \"20\": {\"O\": 1}, \"21\": {\"O\": 1}, \"22\": {\"O\": 1}, \"23\": {\"O\": 1}, \"24\": {\"O\": 1}, \"25\": {\"O\": 1}, \"26\": {\"O\": 1}, \"27\": {\"O\": 1}, \"28\": {\"O\": 1}, \"29\": {\"O\": 1}, \"30\": {\"O\": 1}, \"31\": {\"O\": 1}, \"32\": {\"O\": 1}, \"33\": {\"O\": 1}, \"34\": {\"O\": 1}, \"35\": {\"O\": 1}, \"36\": {\"O\": 1}, \"37\": {\"O\": 1}, \"38\": {\"O\": 1}, \"39\": {\"O\": 1}}" n_minim_iter=1 energy=-45149.90570279559 stress="0.020070702794049048 4.605062325930469e-13 2.3695432832679277e-14 4.605062325930469e-13 0.02457689758772949 7.683602283676325e-13 2.3695432832679277e-14 7.683602283676325e-13 0.02483749111062392" free_energy=-45149.90570279559 pbc="T T T"
In       2.84417638       4.85360443       9.47117956        0       0.00179242       0.06108988       0.04140814
In      -0.00472032       4.19794757       7.12976576        1       0.00179242      -0.06108988      -0.04140814
In       2.85361702       1.83642043      15.43023843        2      -0.00179242       0.06108988      -0.04140814
In       5.70251372       1.18076357       1.17070690        3      -0.00179242      -0.06108988       0.04140814
In       2.85361702       1.18076357       7.12976576        4      -0.00179242      -0.06108988      -0.04140814
In       5.70251372       1.83642043       9.47117956        5      -0.00179242       0.06108988       0.04140814
In       2.84417638       4.19794757       1.17070690        6       0.00179242      -0.06108988       0.04140814
In      -0.00472032       4.85360443      15.43023843        7       0.00179242       0.06108988      -0.04140814
In       2.81542665       4.49299068      13.58236236        8      -0.11149005      -0.03266096      -0.00252157
In       5.66432335       4.55856132       3.01858296        9      -0.11149005       0.03266096       0.00252157
In       2.88236676       1.47580668      11.31905562       10       0.11149005      -0.03266096       0.00252157
In       0.03347006       1.54137732       5.28188970       11       0.11149005       0.03266096      -0.00252157
In       2.88236676       1.54137732       3.01858296       12       0.11149005       0.03266096       0.00252157
In       0.03347006       1.47580668      13.58236236       13       0.11149005      -0.03266096      -0.00252157
In       2.81542665       4.55856132       5.28188970       14      -0.11149005       0.03266096      -0.00252157
In       5.66432335       4.49299068      11.31905562       15      -0.11149005      -0.03266096       0.00252157
O        4.90404936       5.31942134      13.24681530       16       0.03249828      -0.07507021      -0.03815529
O        2.05515266       3.73213066       3.35413002       17       0.03249828       0.07507021       0.03815529
O        0.79374404       2.30223734      11.65460269       18      -0.03249828      -0.07507021       0.03815529
O        3.64264074       0.71494666       4.94634264       19      -0.03249828       0.07507021      -0.03815530
O        0.79374404       0.71494666       3.35413002       20      -0.03249828       0.07507021       0.03815529
O        3.64264074       2.30223734      13.24681530       21      -0.03249828      -0.07507021      -0.03815529
O        4.90404936       3.73213066       4.94634264       22       0.03249828       0.07507021      -0.03815529
O        2.05515266       5.31942134      11.65460269       23       0.03249828      -0.07507021       0.03815529
O        3.99751313       3.18227227      10.33310438       24      -0.05362376       0.00993103      -0.00402726
O        1.14861643       5.86927973       6.26784095       25      -0.05362376      -0.00993103       0.00402726
O        1.70028027       0.16508827      14.56831361       26       0.05362376       0.00993103       0.00402726
O        4.54917698       2.85209573       2.03263172       27       0.05362376      -0.00993103      -0.00402726
O        1.70028027       2.85209573       6.26784095       28       0.05362376      -0.00993103       0.00402726
O        4.54917698       0.16508827      10.33310438       29       0.05362376       0.00993103      -0.00402726
O        3.99751313       5.86927973       2.03263172       30      -0.05362376      -0.00993103      -0.00402726
O        1.14861643       3.18227227      14.56831361       31      -0.05362376       0.00993103       0.00402726
O        3.68577878       3.99229715      15.72355444       32      -0.02148915      -0.03778660       0.01470299
O        0.83688208       5.05925485       0.87739089       33      -0.02148915       0.03778660      -0.01470299
O        2.01201462       0.97511315       9.17786355       34       0.02148915      -0.03778660      -0.01470299
O        4.86091132       2.04207085       7.42308178       35       0.02148915       0.03778660       0.01470299
O        2.01201462       2.04207085       0.87739089       36       0.02148915       0.03778660      -0.01470299
O        4.86091132       0.97511315      15.72355444       37       0.02148915      -0.03778660       0.01470299
O        3.68577878       5.05925485       7.42308178       38      -0.02148915       0.03778660       0.01470299
O        0.83688208       3.99229715       9.17786355       39      -0.02148915      -0.03778660      -0.01470299
40
Lattice="5.721964475182572 1.0401898626078698e-41 0.0 -1.0667920604532037e-41 6.022683761183451 0.0 0.0 0.0 16.562889019415458" Properties=species:S:1:pos:R:3:spacegroup_kinds:I:1:forces:R:3 spacegroup="P 1" unit_cell=conventional occupancy="_JSON {\"0\": {\"In\": 1}, \"1\": {\"In\": 1}, \"2\": {\"In\": 1}, \"3\": {\"In\": 1}, \"4\": {\"In\": 1}, \"5\": {\"In\": 1}, \"6\": {\"In\": 1}, \"7\": {\"In\": 1}, \"8\": {\"In\": 1}, \"9\": {\"In\": 1}, \"10\": {\"In\": 1}, \"11\": {\"In\": 1}, \"12\": {\"In\": 1}, \"13\": {\"In\": 1}, \"14\": {\"In\": 1}, \"15\": {\"In\": 1}, \"16\": {\"O\": 1}, \"17\": {\"O\": 1}, \"18\": {\"O\": 1}, \"19\": {\"O\": 1}, \"20\": {\"O\": 1}, \"21\": {\"O\": 1}, \"22\": {\"O\": 1}, \"23\": {\"O\": 1}, \"24\": {\"O\": 1}, \"25\": {\"O\": 1}, \"26\": {\"O\": 1}, \"27\": {\"O\": 1}, \"28\": {\"O\": 1}, \"29\": {\"O\": 1}, \"30\": {\"O\": 1}, \"31\": {\"O\": 1}, \"32\": {\"O\": 1}, \"33\": {\"O\": 1}, \"34\": {\"O\": 1}, \"35\": {\"O\": 1}, \"36\": {\"O\": 1}, \"37\": {\"O\": 1}, \"38\": {\"O\": 1}, \"39\": {\"O\": 1}}" n_minim_iter=2 energy=-45149.91284854907 stress="0.021685988043546153 9.813329043823967e-13 1.123407177255597e-12 9.813329043823967e-13 0.022221359349970438 8.615743415424674e-13 1.123407177255597e-12 8.615743415424674e-13 0.02183870213378165" free_energy=-45149.91284854907 pbc="T T T"
In       2.85624621       4.84435278       9.44956678        0      -0.03586973       0.05547877       0.03209979
In      -0.00473603       4.18967287       7.11332224        1      -0.03586973      -0.05547877      -0.03209979
In       2.86571827       1.83301090      15.39476674        2       0.03586973       0.05547877      -0.03209979
In       5.72670050       1.17833098       1.16812227        3       0.03586973      -0.05547877       0.03209979
In       2.86571827       1.17833098       7.11332224        4       0.03586973      -0.05547877      -0.03209979
In       5.72670050       1.83301090       9.44956678        5       0.03586973       0.05547877       0.03209979
In       2.85624621       4.18967287       1.16812227        6      -0.03586973      -0.05547877       0.03209979
In      -0.00473603       4.84435278      15.39476674        7      -0.03586973       0.05547877      -0.03209979
In       2.82710155       4.48421277      13.55121988        8      -0.10625253      -0.03954240       0.00293174
In       5.68808379       4.54981288       3.01166914        9      -0.10625253       0.03954240      -0.00293174
In       2.89486292       1.47287089      11.29311365       10       0.10625253      -0.03954240      -0.00293174
In       0.03388068       1.53847100       5.26977537       11       0.10625253       0.03954240       0.00293174
In       2.89486292       1.53847100       3.01166914       12       0.10625253       0.03954240      -0.00293174
In       0.03388068       1.47287089      13.55121988       13       0.10625253      -0.03954240       0.00293174
In       2.82710155       4.54981288       5.26977537       14      -0.10625253       0.03954240       0.00293174
In       5.68808379       4.48421277      11.29311365       15      -0.10625253      -0.03954240      -0.00293174
O        4.92493153       5.30894167      13.21635672       16       0.02682250      -0.07314155      -0.00454767
O        2.06394930       3.72508398       3.34653230       17       0.02682250       0.07314155       0.00454767
O        0.79703294       2.29759979      11.62797681       18      -0.02682250      -0.07314155       0.00454767
O        3.65801518       0.71374209       4.93491221       19      -0.02682250       0.07314155      -0.00454767
O        0.79703294       0.71374209       3.34653230       20      -0.02682250       0.07314155       0.00454767
O        3.65801518       2.29759979      13.21635672       21      -0.02682250      -0.07314155      -0.00454767
O        4.92493153       3.72508398       4.93491221       22       0.02682250       0.07314155      -0.00454767
O        2.06394930       5.30894167      11.62797681       23       0.02682250      -0.07314155       0.00454767
O        4.01434209       3.17613428      10.30940694       24      -0.07621712       0.02263670      -0.01387049
O        1.15335986       5.85789136       6.25348208       25      -0.07621712      -0.02263670       0.01387049
O        1.70762238       0.16479240      14.53492658       26       0.07621712       0.02263670       0.01387049
O        4.56860462       2.84654948       2.02796243       27       0.07621712      -0.02263670      -0.01387049
O        1.70762238       2.84654948       6.25348208       28       0.07621712      -0.02263670       0.01387049
O        4.56860462       0.16479240      10.30940694       29       0.07621712       0.02263670      -0.01387049
O        4.01434209       5.85789136       2.02796243       30      -0.07621712      -0.02263670      -0.01387049
O        1.15335986       3.17613428      14.53492658       31      -0.07621712       0.02263670       0.01387049
O        3.70136274       3.98447645      15.68754468       32      -0.00294410      -0.01800311       0.00454110
O        0.84038050       5.04954919       0.87534434       33      -0.00294410       0.01800311      -0.00454110
O        2.02060173       0.97313457       9.15678885       34       0.00294410      -0.01800311      -0.00454110
O        4.88158397       2.03820731       7.40610017       35       0.00294410       0.01800311       0.00454110
O        2.02060173       2.03820731       0.87534434       36       0.00294410       0.01800311      -0.00454110
O        4.88158397       0.97313457      15.68754468       37       0.00294410      -0.01800311       0.00454110
O        3.70136274       5.04954919       7.40610017       38      -0.00294410       0.01800311       0.00454110
O        0.84038050       3.98447645       9.15678885       39      -0.00294410      -0.01800311      -0.00454110
40
Lattice="5.727267064543742 1.0393270536213511e-41 0.0 -1.064638407228064e-41 6.008994924590929 0.0 0.0 0.0 16.58525055294485" Properties=species:S:1:pos:R:3:spacegroup_kinds:I:1:forces:R:3 spacegroup="P 1" unit_cell=conventional occupancy="_JSON {\"0\": {\"In\": 1}, \"1\": {\"In\": 1}, \"2\": {\"In\": 1}, \"3\": {\"In\": 1}, \"4\": {\"In\": 1}, \"5\": {\"In\": 1}, \"6\": {\"In\": 1}, \"7\": {\"In\": 1}, \"8\": {\"In\": 1}, \"9\": {\"In\": 1}, \"10\": {\"In\": 1}, \"11\": {\"In\": 1}, \"12\": {\"In\": 1}, \"13\": {\"In\": 1}, \"14\": {\"In\": 1}, \"15\": {\"In\": 1}, \"16\": {\"O\": 1}, \"17\": {\"O\": 1}, \"18\": {\"O\": 1}, \"19\": {\"O\": 1}, \"20\": {\"O\": 1}, \"21\": {\"O\": 1}, \"22\": {\"O\": 1}, \"23\": {\"O\": 1}, \"24\": {\"O\": 1}, \"25\": {\"O\": 1}, \"26\": {\"O\": 1}, \"27\": {\"O\": 1}, \"28\": {\"O\": 1}, \"29\": {\"O\": 1}, \"30\": {\"O\": 1}, \"31\": {\"O\": 1}, \"32\": {\"O\": 1}, \"33\": {\"O\": 1}, \"34\": {\"O\": 1}, \"35\": {\"O\": 1}, \"36\": {\"O\": 1}, \"37\": {\"O\": 1}, \"38\": {\"O\": 1}, \"39\": {\"O\": 1}}" n_minim_iter=3 energy=-45149.9143735542 stress="0.022158828855257287 1.0552592236877596e-12 -2.1965538540964576e-13 1.0552592236877596e-12 0.019260481195847428 2.2444579308364088e-13 -2.1965538540964576e-13 2.2444579308364088e-13 0.02330607639784763" free_energy=-45149.9143735542 pbc="T T T"
In       2.85830760       4.83419103       9.46281314        0      -0.03982970       0.04523090       0.02153276
In      -0.00532593       4.17930136       7.12243741        1      -0.03982970      -0.04523090      -0.02153276
In       2.86895947       1.82969357      15.41506269        2       0.03982970       0.04523090      -0.02153276
In       5.73259300       1.17480389       1.17018787        3       0.03982970      -0.04523090       0.02153276
In       2.86895947       1.17480389       7.12243741        4       0.03982970      -0.04523090      -0.02153276
In       5.73259300       1.82969357       9.46281314        5       0.03982970       0.04523090       0.02153276
In       2.85830760       4.17930136       1.17018787        6      -0.03982970      -0.04523090       0.02153276
In      -0.00532593       4.83419103      15.41506269        7      -0.03982970       0.04523090      -0.02153276
In       2.82806599       4.47340836      13.56956421        8      -0.08570644      -0.02610356      -0.00307847
In       5.69169952       4.54008403       3.01568634        9      -0.08570644       0.02610356       0.00307847
In       2.89920108       1.46891090      11.30831162       10       0.08570644      -0.02610356       0.00307847
In       0.03556754       1.53558656       5.27693893       11       0.08570644       0.02610356      -0.00307847
In       2.89920108       1.53558656       3.01568634       12       0.08570644       0.02610356       0.00307847
In       0.03556754       1.46891090      13.56956421       13       0.08570644      -0.02610356      -0.00307847
In       2.82806599       4.54008403       5.27693893       14      -0.08570644       0.02610356      -0.00307847
In       5.69169952       4.47340836      11.30831162       15      -0.08570644      -0.02610356       0.00307847
O        4.92991047       5.29575227      13.23415259       16       0.02077862      -0.07555043      -0.00643125
O        2.06627694       3.71774011       3.35109796       17       0.02077862       0.07555043       0.00643125
O        0.79735660       2.29125481      11.64372324       18      -0.02077862      -0.07555043       0.00643125
O        3.66099013       0.71324265       4.94152731       19      -0.02077862       0.07555043      -0.00643125
O        0.79735660       0.71324265       3.35109796       20      -0.02077862       0.07555043       0.00643125
O        3.66099013       2.29125481      13.23415259       21      -0.02077862      -0.07555043      -0.00643125
O        4.92991047       3.71774011       4.94152731       22       0.02077862       0.07555043      -0.00643125
O        2.06627694       5.29575227      11.64372324       23       0.02077862      -0.07555043       0.00643125
O        4.01685691       3.16927171      10.32310526       24      -0.06369609       0.01090400      -0.00397665
O        1.15322338       5.84422067       6.26214530       25      -0.06369609      -0.01090400       0.00397665
O        1.71041015       0.16477425      14.55477057       26       0.06369609       0.01090400       0.00397665
O        4.57404369       2.83972321       2.03047998       27       0.06369609      -0.01090400      -0.00397665
O        1.71041015       2.83972321       6.26214530       28       0.06369609      -0.01090400       0.00397665
O        4.57404369       0.16477425      10.32310526       29       0.06369609       0.01090400      -0.00397665
O        4.01685691       5.84422067       2.03047998       30      -0.06369609      -0.01090400      -0.00397665
O        1.15322338       3.16927171      14.55477057       31      -0.06369609       0.01090400       0.00397665
O        3.70475939       3.97515677      15.70878758       32      -0.00415196      -0.00061843       0.00210107
O        0.84112586       5.03833561       0.87646298       33      -0.00415196       0.00061843      -0.00210107
O        2.02250767       0.97065931       9.16908825       34       0.00415196      -0.00061843      -0.00210107
O        4.88614121       2.03383815       7.41616230       35       0.00415196       0.00061843       0.00210107
O        2.02250767       2.03383815       0.87646298       36       0.00415196       0.00061843      -0.00210107
O        4.88614121       0.97065931      15.70878758       37       0.00415196      -0.00061843       0.00210107
O        3.70475939       5.03833561       7.41616230       38      -0.00415196       0.00061843       0.00210107
O        0.84112586       3.97515677       9.16908825       39      -0.00415196      -0.00061843      -0.00210107
40
Lattice="5.7434705000497255 1.0424712713823601e-41 0.0 -1.0659021824261114e-41 6.0175491024759316 0.0 0.0 0.0 16.51495031102193" Properties=species:S:1:pos:R:3:spacegroup_kinds:I:1:forces:R:3 spacegroup="P 1" unit_cell=conventional occupancy="_JSON {\"0\": {\"In\": 1}, \"1\": {\"In\": 1}, \"2\": {\"In\": 1}, \"3\": {\"In\": 1}, \"4\": {\"In\": 1}, \"5\": {\"In\": 1}, \"6\": {\"In\": 1}, \"7\": {\"In\": 1}, \"8\": {\"In\": 1}, \"9\": {\"In\": 1}, \"10\": {\"In\": 1}, \"11\": {\"In\": 1}, \"12\": {\"In\": 1}, \"13\": {\"In\": 1}, \"14\": {\"In\": 1}, \"15\": {\"In\": 1}, \"16\": {\"O\": 1}, \"17\": {\"O\": 1}, \"18\": {\"O\": 1}, \"19\": {\"O\": 1}, \"20\": {\"O\": 1}, \"21\": {\"O\": 1}, \"22\": {\"O\": 1}, \"23\": {\"O\": 1}, \"24\": {\"O\": 1}, \"25\": {\"O\": 1}, \"26\": {\"O\": 1}, \"27\": {\"O\": 1}, \"28\": {\"O\": 1}, \"29\": {\"O\": 1}, \"30\": {\"O\": 1}, \"31\": {\"O\": 1}, \"32\": {\"O\": 1}, \"33\": {\"O\": 1}, \"34\": {\"O\": 1}, \"35\": {\"O\": 1}, \"36\": {\"O\": 1}, \"37\": {\"O\": 1}, \"38\": {\"O\": 1}, \"39\": {\"O\": 1}}" n_minim_iter=4 energy=-45149.9223063981 stress="0.023636934598424066 9.974002914647257e-13 -3.1131398859209807e-13 9.974002914647257e-13 0.01923657935726763 2.4014636116453054e-13 -3.1131398859209807e-13 2.4014636116453054e-13 0.016784011829733336" free_energy=-45149.9223063981 pbc="T T T"
In       2.86278958       4.84619687       9.42559349        0      -0.08529720       0.00061915      -0.00938456
In      -0.00894567       4.18012678       7.08935682        1      -0.08529720      -0.00061915       0.00938456
In       2.88068092       1.83742232      15.34683198        2       0.08529720       0.00061915       0.00938456
In       5.75241617       1.17135223       1.16811833        3       0.08529720      -0.00061915      -0.00938456
In       2.88068092       1.17135223       7.08935682        4       0.08529720      -0.00061915       0.00938456
In       5.75241617       1.83742232       9.42559349        5       0.08529720       0.00061915      -0.00938456
In       2.86278958       4.18012678       1.16811833        6      -0.08529720      -0.00061915      -0.00938456
In      -0.00894567       4.84619687      15.34683198        7      -0.08529720       0.00061915       0.00938456
In       2.82607521       4.47616014      13.51227371        8       0.01807593      -0.02872504       0.00579934
In       5.69781046       4.55016351       3.00267660        9       0.01807593       0.02872504      -0.00579934
In       2.91739529       1.46738559      11.26015176       10      -0.01807593      -0.02872504      -0.00579934
In       0.04566004       1.54138896       5.25479855       11      -0.01807593       0.02872504       0.00579934
In       2.91739529       1.54138896       3.00267660       12      -0.01807593       0.02872504      -0.00579934
In       0.04566004       1.46738559      13.51227371       13      -0.01807593      -0.02872504       0.00579934
In       2.82607521       4.55016351       5.25479855       14       0.01807593       0.02872504       0.00579934
In       5.69781046       4.47616014      11.26015176       15       0.01807593      -0.02872504      -0.00579934
O        4.94635865       5.29634854      13.17770080       16      -0.02109599      -0.04311157       0.04369874
O        2.07462340       3.72997511       3.33724951       17      -0.02109599       0.04311157      -0.04369874
O        0.79711185       2.28757399      11.59472467       18       0.02109599      -0.04311157      -0.04369874
O        3.66884710       0.72120056       4.92022564       19       0.02109599       0.04311157       0.04369874
O        0.79711185       0.72120056       3.33724951       20       0.02109599       0.04311157      -0.04369874
O        3.66884710       2.28757399      13.17770080       21       0.02109599      -0.04311157       0.04369874
O        4.94635865       3.72997511       4.92022564       22      -0.02109599       0.04311157       0.04369874
O        2.07462340       5.29634854      11.59472467       23      -0.02109599      -0.04311157      -0.04369874
O        4.02095499       3.17583456      10.27811833       24      -0.01260471       0.01139220      -0.01528980
O        1.14921974       5.85048910       6.23683198       25      -0.01260471      -0.01139220       0.01528980
O        1.72251551       0.16706000      14.49430714       26       0.01260471       0.01139220       0.01528980
O        4.59425076       2.84171455       2.02064318       27       0.01260471      -0.01139220      -0.01528980
O        1.72251551       2.84171455       6.23683198       28       0.01260471      -0.01139220       0.01528980
O        4.59425076       0.16706000      10.27811833       29       0.01260471       0.01139220      -0.01528980
O        4.02095499       5.85048910       2.02064318       30      -0.01260471      -0.01139220      -0.01528980
O        1.14921974       3.17583456      14.49430714       31      -0.01260471       0.01139220       0.01528980
O        3.71499640       3.97935489      15.64257644       32      -0.00859065       0.00916858       0.00206742
O        0.84326115       5.04696877       0.87237387       33      -0.00859065      -0.00916858      -0.00206742
O        2.02847410       0.97058033       9.12984903       34       0.00859065       0.00916858      -0.00206742
O        4.90020935       2.03819422       7.38510129       35       0.00859065      -0.00916858       0.00206742
O        2.02847410       2.03819422       0.87237387       36       0.00859065      -0.00916858      -0.00206742
O        4.90020935       0.97058033      15.64257644       37       0.00859065       0.00916858       0.00206742
O        3.71499640       5.04696877       7.38510129       38      -0.00859065      -0.00916858       0.00206742
O        0.84326115       3.97935489       9.12984903       39      -0.00859065       0.00916858      -0.00206742
40
Lattice="5.72313315128374 1.0433114461132535e-41 0.0 -1.0688809675581699e-41 6.025200936892725 0.0 0.0 0.0 16.552588701055665" Properties=species:S:1:pos:R:3:spacegroup_kinds:I:1:forces:R:3 spacegroup="P 1" unit_cell=conventional occupancy="_JSON {\"0\": {\"In\": 1}, \"1\": {\"In\": 1}, \"2\": {\"In\": 1}, \"3\": {\"In\": 1}, \"4\": {\"In\": 1}, \"5\": {\"In\": 1}, \"6\": {\"In\": 1}, \"7\": {\"In\": 1}, \"8\": {\"In\": 1}, \"9\": {\"In\": 1}, \"10\": {\"In\": 1}, \"11\": {\"In\": 1}, \"12\": {\"In\": 1}, \"13\": {\"In\": 1}, \"14\": {\"In\": 1}, \"15\": {\"In\": 1}, \"16\": {\"O\": 1}, \"17\": {\"O\": 1}, \"18\": {\"O\": 1}, \"19\": {\"O\": 1}, \"20\": {\"O\": 1}, \"21\": {\"O\": 1}, \"22\": {\"O\": 1}, \"23\": {\"O\": 1}, \"24\": {\"O\": 1}, \"25\": {\"O\": 1}, \"26\": {\"O\": 1}, \"27\": {\"O\": 1}, \"28\": {\"O\": 1}, \"29\": {\"O\": 1}, \"30\": {\"O\": 1}, \"31\": {\"O\": 1}, \"32\": {\"O\": 1}, \"33\": {\"O\": 1}, \"34\": {\"O\": 1}, \"35\": {\"O\": 1}, \"36\": {\"O\": 1}, \"37\": {\"O\": 1}, \"38\": {\"O\": 1}, \"39\": {\"O\": 1}}" n_minim_iter=5 energy=-45149.930983204074 stress="0.02101495983884026 1.5672767932003514e-13 1.2391149758789967e-12 1.5672767932003514e-13 0.020187310334698297 -3.3755536946598533e-13 1.2391149758789967e-12 -3.3755536946598533e-13 0.0195401340126458" free_energy=-45149.930983204074 pbc="T T T"
In       2.85140536       4.85352211       9.44768933        0      -0.05790479      -0.01212546      -0.00869082
In      -0.01016121       4.18427929       7.10489937        1      -0.05790479       0.01212546       0.00869082
In       2.87172779       1.84092164      15.38119372        2       0.05790479      -0.01212546       0.00869082
In       5.73329436       1.17167882       1.17139498        3       0.05790479       0.01212546      -0.00869082
In       2.87172779       1.17167882       7.10489937        4       0.05790479       0.01212546       0.00869082
In       5.73329436       1.84092164       9.44768933        5       0.05790479      -0.01212546      -0.00869082
In       2.85140536       4.18427929       1.17139498        6      -0.05790479       0.01212546      -0.00869082
In      -0.01016121       4.85352211      15.38119372        7      -0.05790479      -0.01212546       0.00869082
In       2.81409771       4.48088488      13.54309367        8       0.00926521      -0.02373066      -0.00785585
In       5.67566428       4.55691653       3.00949503        9       0.00926521       0.02373066       0.00785585
In       2.90903545       1.46828441      11.28578938       10      -0.00926521      -0.02373066       0.00785585
In       0.04746887       1.54431606       5.26679932       11      -0.00926521       0.02373066      -0.00785585
In       2.90903545       1.54431606       3.00949503       12      -0.00926521       0.02373066       0.00785585
In       0.04746887       1.46828441      13.54309367       13      -0.00926521      -0.02373066      -0.00785585
In       2.81409771       4.55691653       5.26679932       14       0.00926521       0.02373066      -0.00785585
In       5.67566428       4.48088488      11.28578938       15       0.00926521      -0.02373066       0.00785585
O        4.92920969       5.30107828      13.20769813       16      -0.02616054      -0.03844609       0.02147371
O        2.06764311       3.73672313       3.34489057       17      -0.02616054       0.03844609      -0.02147371
O        0.79392346       2.28847781      11.62118493       18       0.02616054      -0.03844609      -0.02147371
O        3.65549004       0.72412266       4.93140378       19       0.02616054       0.03844609       0.02147371
O        0.79392346       0.72412266       3.34489057       20       0.02616054       0.03844609      -0.02147371
O        3.65549004       2.28847781      13.20769813       21       0.02616054      -0.03844609       0.02147371
O        4.92920969       3.73672313       4.93140378       22      -0.02616054       0.03844609       0.02147371
O        2.06764311       5.30107828      11.62118493       23      -0.02616054      -0.03844609      -0.02147371
O        4.00532499       3.18024850      10.30126437       24       0.00129901       0.00586473      -0.01083229
O        1.14375841       5.85755291       6.25132433       25       0.00129901      -0.00586473       0.01083229
O        1.71780817       0.16764803      14.52761868       26      -0.00129901       0.00586473       0.01083229
O        4.57937474       2.84495244       2.02497002       27      -0.00129901      -0.00586473      -0.01083229
O        1.71780817       2.84495244       6.25132433       28      -0.00129901      -0.00586473       0.01083229
O        4.57937474       0.16764803      10.30126437       29      -0.00129901       0.00586473      -0.01083229
O        4.00532499       5.85755291       2.02497002       30       0.00129901      -0.00586473      -0.01083229
O        1.14375841       3.18024850      14.52761868       31       0.00129901       0.00586473       0.01083229
O        3.70146363       3.98400536      15.67844705       32      -0.02428078      -0.00057436       0.00888733
O        0.83989705       5.05379604       0.87414166       33      -0.02428078       0.00057436      -0.00888733
O        2.02166952       0.97140489       9.15043601       34       0.02428078      -0.00057436      -0.00888733
O        4.88323610       2.04119557       7.40215269       35       0.02428078       0.00057436       0.00888733
O        2.02166952       2.04119557       0.87414166       36       0.02428078       0.00057436      -0.00888733
O        4.88323610       0.97140489      15.67844705       37       0.02428078      -0.00057436       0.00888733
O        3.70146363       5.05379604       7.40215269       38      -0.02428078       0.00057436       0.00888733
O        0.83989705       3.98400536       9.15043601       39      -0.02428078      -0.00057436      -0.00888733
40