40
Lattice="5.355224388204878 1.2527539001788132e-41 0.0 -1.2662838969904126e-41 5.41306190033513 0.0 0.0 0.0 15.569013816798607" Properties=species:S:1:pos:R:3:spacegroup_kinds:I:1:forces:R:3 spacegroup="P 1" unit_cell=conventional occupancy="_JSON {\"0\": {\"In\": 1}, \"1\": {\"In\": 1}, \"2\": {\"In\": 1}, \"3\": {\"In\": 1}, \"4\": {\"In\": 1}, \"5\": {\"In\": 1}, \"6\": {\"In\": 1}, \"7\": {\"In\": 1}, \"8\": {\"In\": 1}, \"9\": {\"In\": 1}, \"10\": {\"In\": 1}, \"11\": {\"In\": 1}, \"12\": {\"In\": 1}, \"13\": {\"In\": 1}, \"14\": {\"In\": 1}, \"15\": {\"In\": 1}, \"16\": {\"O\": 1}, \"17\": {\"O\": 1}, \"18\": {\"O\": 1}, \"19\": {\"O\": 1}, \"20\": {\"O\": 1}, \"21\": {\"O\": 1}, \"22\": {\"O\": 1}, \"23\": {\"O\": 1}, \"24\": {\"O\": 1}, \"25\": {\"O\": 1}, \"26\": {\"O\": 1}, \"27\": {\"O\": 1}, \"28\": {\"O\": 1}, \"29\": {\"O\": 1}, \"30\": {\"O\": 1}, \"31\": {\"O\": 1}, \"32\": {\"O\": 1}, \"33\": {\"O\": 1}, \"34\": {\"O\": 1}, \"35\": {\"O\": 1}, \"36\": {\"O\": 1}, \"37\": {\"O\": 1}, \"38\": {\"O\": 1}, \"39\": {\"O\": 1}}" n_minim_iter=1 energy=-45150.78374493658 stress="0.004998186644975785 -2.5194316894616706e-12 7.429516777573734e-13 -2.5194316894616706e-12 0.0024158551839137845 -2.531295103870282e-13 7.429516777573734e-13 -2.531295103870282e-13 0.02069141900392627" free_energy=-45150.78374493658 pbc="T T T"
In       2.62571801       4.23419100       8.96198021        0      -0.02141588       0.00724183      -0.06128301
In      -0.05189419       3.88540185       6.60703361        1      -0.02141588      -0.00724183       0.06128301
In       2.72950638       1.52766005      14.39154052        2       0.02141588       0.00724183       0.06128301
In       5.40711857       1.17887090       1.17747330        3       0.02141588      -0.00724183      -0.06128301
In       2.72950638       1.17887090       6.60703361        4       0.02141588      -0.00724183       0.06128301
In       5.40711857       1.52766005       8.96198021        5       0.02141588       0.00724183      -0.06128301
In       2.62571801       3.88540185       1.17747330        6      -0.02141588      -0.00724183      -0.06128301
In      -0.05189419       4.23419100      14.39154052        7      -0.02141588       0.00724183       0.06128301
In       2.64273880       4.16805858      12.85683288        8       0.18025499      -0.15388207       0.26776614
In       5.32035099       3.95153427       2.71218093        9       0.18025499       0.15388207      -0.26776614
In       2.71248559       1.46152763      10.49668784       10      -0.18025499      -0.15388207      -0.26776614
In       0.03487339       1.24500332       5.07232598       11      -0.18025499       0.15388207       0.26776614
In       2.71248559       1.24500332       2.71218093       12      -0.18025499       0.15388207      -0.26776614
In       0.03487339       1.46152763      12.85683288       13      -0.18025499      -0.15388207       0.26776614
In       2.64273880       3.95153427       5.07232598       14       0.18025499       0.15388207       0.26776614
In       5.32035099       4.16805858      10.49668784       15       0.18025499      -0.15388207      -0.26776614
O        4.55390755       4.54897127      12.39301788       16      -0.02558684       0.12549990       0.13658092
O        1.87629535       3.57062158       3.17599593       17      -0.02558684      -0.12549990      -0.13658091
O        0.80131684       1.84244032      10.96050284       18       0.02558684       0.12549990      -0.13658091
O        3.47892903       0.86409063       4.60851098       19       0.02558684      -0.12549990       0.13658091
O        0.80131684       0.86409063       3.17599593       20       0.02558684      -0.12549990      -0.13658091
O        3.47892903       1.84244032      12.39301788       21       0.02558684       0.12549990       0.13658091
O        4.55390755       3.57062158       4.60851098       22      -0.02558684      -0.12549990       0.13658091
O        1.87629535       4.54897127      10.96050284       23      -0.02558684       0.12549990      -0.13658092
O        3.89965681       2.88878077       9.75138687       24       0.27174025       0.01624513      -0.12292618
O        1.22204461       5.23081208       5.81762694       25       0.27174025      -0.01624513       0.12292618
O        1.45556758       0.18224982      13.60213385       26      -0.27174025       0.01624513       0.12292618
O        4.13317977       2.52428113       1.96687996       27      -0.27174025      -0.01624513      -0.12292618
O        1.45556758       2.52428113       5.81762694       28      -0.27174025      -0.01624513       0.12292618
O        4.13317977       0.18224982       9.75138687       29      -0.27174025       0.01624513      -0.12292618
O        3.89965681       5.23081208       1.96687996       30       0.27174025      -0.01624513      -0.12292618
O        1.22204461       2.88878077      13.60213385       31       0.27174025       0.01624513       0.12292618
O        3.43995387       3.52624170      14.81810655       32      -0.26382748       0.05847465       0.20376089
O        0.76234168       4.59335115       0.75090727       33      -0.26382748      -0.05847465      -0.20376089
O        1.91527051       0.81971075       8.53541418       34       0.26382748       0.05847465      -0.20376089
O        4.59288271       1.88682020       7.03359964       35       0.26382748      -0.05847465       0.20376089
O        1.91527051       1.88682020       0.75090727       36       0.26382748      -0.05847465      -0.20376089
O        4.59288271       0.81971075      14.81810655       37       0.26382748       0.05847465       0.20376089
O        3.43995387       4.59335115       7.03359964       38      -0.26382748      -0.05847465       0.20376089
O        0.76234168       3.52624170       8.53541418       39      -0.26382748       0.05847465      -0.20376089
40
Lattice="5.376768570907665 1.258905793293257e-41 0.0 -1.2732656534208268e-41 5.447747474697427 0.0 0.0 0.0 15.407900260434687" Properties=species:S:1:pos:R:3:spacegroup_kinds:I:1:forces:R:3 spacegroup="P 1" unit_cell=conventional occupancy="_JSON {\"0\": {\"In\": 1}, \"1\": {\"In\": 1}, \"2\": {\"In\": 1}, \"3\": {\"In\": 1}, \"4\": {\"In\": 1}, \"5\": {\"In\": 1}, \"6\": {\"In\": 1}, \"7\": {\"In\": 1}, \"8\": {\"In\": 1}, \"9\": {\"In\": 1}, \"10\": {\"In\": 1}, \"11\": {\"In\": 1}, \"12\": {\"In\": 1}, \"13\": {\"In\": 1}, \"14\": {\"In\": 1}, \"15\": {\"In\": 1}, \"16\": {\"O\": 1}, \"17\": {\"O\": 1}, \"18\": {\"O\": 1}, \"19\": {\"O\": 1}, \"20\": {\"O\": 1}, \"21\": {\"O\": 1}, \"22\": {\"O\": 1}, \"23\": {\"O\": 1}, \"24\": {\"O\": 1}, \"25\": {\"O\": 1}, \"26\": {\"O\": 1}, \"27\": {\"O\": 1}, \"28\": {\"O\": 1}, \"29\": {\"O\": 1}, \"30\": {\"O\": 1}, \"31\": {\"O\": 1}, \"32\": {\"O\": 1}, \"33\": {\"O\": 1}, \"34\": {\"O\": 1}, \"35\": {\"O\": 1}, \"36\": {\"O\": 1}, \"37\": {\"O\": 1}, \"38\": {\"O\": 1}, \"39\": {\"O\": 1}}" n_minim_iter=2 energy=-45150.82335115122 stress="0.016491400693617354 1.9665847948007565e-12 7.015709291658805e-13 1.9665847948007565e-12 0.019468841480047697 1.7245168740957422e-12 7.015709291658805e-13 1.7245168740957422e-12 0.016086903605737925" free_energy=-45150.82335115122 pbc="T T T"
In       2.63623756       4.26133750       8.86911507        0      -0.05255963      -0.06385299       0.13122291
In      -0.05214673       3.91028371       6.53878519        1      -0.05255963       0.06385299      -0.13122291
In       2.74053101       1.53746376      14.24273532        2       0.05255963      -0.06385299      -0.13122291
In       5.42891530       1.18640998       1.16516494        3       0.05255963       0.06385299       0.13122291
In       2.74053101       1.18640998       6.53878519        4       0.05255963       0.06385299      -0.13122291
In       5.42891530       1.53746376       8.86911507        5       0.05255963      -0.06385299       0.13122291
In       2.63623756       3.91028371       1.16516494        6      -0.05255963       0.06385299       0.13122291
In      -0.05214673       4.26133750      14.24273532        7      -0.05255963      -0.06385299      -0.13122291
In       2.65373899       4.19445123      12.72432534        8       0.14129475      -0.05270163       0.54091027
In       5.34212328       3.97716998       2.68357493        9       0.14129475       0.05270163      -0.54091027
In       2.72302958       1.47057749      10.38752506       10      -0.14129475      -0.05270163      -0.54091027
In       0.03464529       1.25329624       5.02037521       11      -0.14129475       0.05270163       0.54091027
In       2.72302958       1.25329624       2.68357493       12      -0.14129475       0.05270163      -0.54091027
In       0.03464529       1.47057749      12.72432534       13      -0.14129475      -0.05270163       0.54091027
In       2.65373899       3.97716998       5.02037521       14       0.14129475       0.05270163       0.54091027
In       5.34212328       4.19445123      10.38752506       15       0.14129475      -0.05270163      -0.54091027
O        4.57217572       4.57837707      12.26504578       16      -0.13774611       0.08215167       0.23030453
O        1.88379144       3.59324415       3.14285448       17      -0.13774611      -0.08215167      -0.23030453
O        0.80459285       1.85450333      10.84680461       18       0.13774611       0.08215167      -0.23030453
O        3.49297713       0.86937041       4.56109565       19       0.13774611      -0.08215167       0.23030453
O        0.80459285       0.86937041       3.14285448       20       0.13774611      -0.08215167      -0.23030453
O        3.49297713       1.85450333      12.26504578       21       0.13774611       0.08215167       0.23030453
O        4.57217572       3.59324415       4.56109565       22      -0.13774611      -0.08215167       0.23030453
O        1.88379144       4.57837707      10.84680461       23      -0.13774611       0.08215167      -0.23030453
O        3.91590058       2.90732465       9.65022850       24       0.15981745       0.01247145      -0.10205304
O        1.22751630       5.26429656       5.75767176       25       0.15981745      -0.01247145       0.10205304
O        1.46086799       0.18345092      13.46162189       26      -0.15981745       0.01247145       0.10205304
O        4.14925227       2.54042282       1.94627837       27      -0.15981745      -0.01247145      -0.10205304
O        1.46086799       2.54042282       5.75767176       28      -0.15981745      -0.01247145       0.10205304
O        4.14925227       0.18345092       9.65022850       29      -0.15981745       0.01247145      -0.10205304
O        3.91590058       5.26429656       1.94627837       30       0.15981745      -0.01247145      -0.10205304
O        1.22751630       2.90732465      13.46162189       31       0.15981745       0.01247145       0.10205304
O        3.45325368       3.54895678      14.66517412       32      -0.15434509       0.08253352       0.11410928
O        0.76486940       4.62266443       0.74272614       33      -0.15434509      -0.08253352      -0.11410928
O        1.92351489       0.82508304       8.44667627       34       0.15434509       0.08253352      -0.11410928
O        4.61189917       1.89879069       6.96122399       35       0.15434509      -0.08253352       0.11410928
O        1.92351489       1.89879069       0.74272614       36       0.15434509      -0.08253352      -0.11410928
O        4.61189917       0.82508304      14.66517412       37       0.15434509       0.08253352       0.11410928
O        3.45325368       4.62266443       6.96122399       38      -0.15434509      -0.08253352       0.11410928
O        0.76486940       3.54895678       8.44667627       39      -0.15434509       0.08253352      -0.11410928
40
Lattice="5.396210840681528 1.2634468996691328e-41 0.0 -1.27038168807269e-41 5.435423566474086 0.0 0.0 0.0 15.387195341770301" Properties=species:S:1:pos:R:3:spacegroup_kinds:I:1:forces:R:3 spacegroup="P 1" unit_cell=conventional occupancy="_JSON {\"0\": {\"In\": 1}, \"1\": {\"In\": 1}, \"2\": {\"In\": 1}, \"3\": {\"In\": 1}, \"4\": {\"In\": 1}, \"5\": {\"In\": 1}, \"6\": {\"In\": 1}, \"7\": {\"In\": 1}, \"8\": {\"In\": 1}, \"9\": {\"In\": 1}, \"10\": {\"In\": 1}, \"11\": {\"In\": 1}, \"12\": {\"In\": 1}, \"13\": {\"In\": 1}, \"14\": {\"In\": 1}, \"15\": {\"In\": 1}, \"16\": {\"O\": 1}, \"17\": {\"O\": 1}, \"18\": {\"O\": 1}, \"19\": {\"O\": 1}, \"20\": {\"O\": 1}, \"21\": {\"O\": 1}, \"22\": {\"O\": 1}, \"23\": {\"O\": 1}, \"24\": {\"O\": 1}, \"25\": {\"O\": 1}, \"26\": {\"O\": 1}, \"27\": {\"O\": 1}, \"28\": {\"O\": 1}, \"29\": {\"O\": 1}, \"30\": {\"O\": 1}, \"31\": {\"O\": 1}, \"32\": {\"O\": 1}, \"33\": {\"O\": 1}, \"34\": {\"O\": 1}, \"35\": {\"O\": 1}, \"36\": {\"O\": 1}, \"37\": {\"O\": 1}, \"38\": {\"O\": 1}, \"39\": {\"O\": 1}}" n_minim_iter=3 energy=-45150.836655044805 stress="0.026815817721480124 -2.114364695757422e-12 -4.01045594859156e-12 -2.114364695757422e-12 0.014200201819579945 7.160321868097197e-13 -4.01045594859156e-12 7.160321868097197e-13 0.017725526250754763" free_energy=-45150.836655044805 pbc="T T T"
In       2.64548144       4.25137496       8.85780011        0      -0.06868578      -0.10918758       0.12910799
In      -0.05262398       3.90176039       6.52939524        1      -0.06868578       0.10918758      -0.12910799
In       2.75072940       1.53366318      14.22299291        2       0.06868578      -0.10918758      -0.12910799
In       5.44883482       1.18404861       1.16420243        3       0.06868578       0.10918758       0.12910799
In       2.75072940       1.18404861       6.52939524        4       0.06868578       0.10918758      -0.12910799
In       5.44883482       1.53366318       8.85780011        5       0.06868578      -0.10918758       0.12910799
In       2.64548144       3.90176039       1.16420243        6      -0.06868578       0.10918758       0.12910799
In      -0.05262398       4.25137496      14.22299291        7      -0.06868578      -0.10918758      -0.12910799
In       2.66421363       4.18456298      12.71014035        8       0.11378184       0.01150054       0.47124274
In       5.36231905       3.96857237       2.67705499        9       0.11378184      -0.01150055      -0.47124274
In       2.73199721       1.46685120      10.37065266       10      -0.11378184       0.01150054      -0.47124274
In       0.03389179       1.25086058       5.01654268       11      -0.11378184      -0.01150054       0.47124274
In       2.73199721       1.25086058       2.67705499       12      -0.11378184      -0.01150054      -0.47124274
In       0.03389179       1.46685120      12.71014035       13      -0.11378184       0.01150054       0.47124274
In       2.66421363       3.96857237       5.01654268       14       0.11378184      -0.01150054       0.47124274
In       5.36231905       4.18456298      10.37065266       15       0.11378184       0.01150054      -0.47124274
O        4.58797758       4.56854727      12.24982333       16      -0.10825130       0.05886972       0.19602188
O        1.88987216       3.58458808       3.13737202       17      -0.10825130      -0.05886972      -0.19602188
O        0.80823326       1.85083548      10.83096969       18       0.10825130       0.05886972      -0.19602188
O        3.50633868       0.86687630       4.55622566       19       0.10825130      -0.05886972       0.19602188
O        0.80823326       0.86687630       3.13737202       20       0.10825130      -0.05886972      -0.19602188
O        3.50633868       1.85083548      12.24982333       21       0.10825130       0.05886972       0.19602188
O        4.58797758       3.58458808       4.55622566       22      -0.10825130      -0.05886972       0.19602188
O        1.88987216       4.56854727      10.83096969       23      -0.10825130       0.05886972      -0.19602188
O        3.93111117       2.90082542       9.63665147       24       0.09689380       0.02079647      -0.11294390
O        1.23300575       5.25230993       5.75054387       25       0.09689380      -0.02079647       0.11294390
O        1.46509967       0.18311364      13.44414154       26      -0.09689380       0.02079647       0.11294390
O        4.16320509       2.53459814       1.94305380       27      -0.09689380      -0.02079647      -0.11294390
O        1.46509967       2.53459814       5.75054387       28      -0.09689380      -0.02079647       0.11294390
O        4.16320509       0.18311364       9.63665147       29      -0.09689380       0.02079647      -0.11294390
O        3.93111117       5.25230993       1.94305380       30       0.09689380      -0.02079647      -0.11294390
O        1.23300575       2.90082542      13.44414154       31       0.09689380       0.02079647       0.11294390
O        3.46472460       3.54140180      14.64620287       32      -0.13488699       0.09435586       0.09622806
O        0.76661918       4.61173355       0.74099248       33      -0.13488699      -0.09435586      -0.09622806
O        1.93148624       0.82369001       8.43459015       34       0.13488699       0.09435586      -0.09622806
O        4.62959166       1.89402177       6.95260519       35       0.13488699      -0.09435586       0.09622806
O        1.93148624       1.89402177       0.74099248       36       0.13488699      -0.09435586      -0.09622806
O        4.62959166       0.82369001      14.64620287       37       0.13488699       0.09435586       0.09622806
O        3.46472460       4.61173355       6.95260519       38      -0.13488699      -0.09435586       0.09622806
O        0.76661918       3.54140180       8.43459015       39      -0.13488699       0.09435586      -0.09622806
40
Lattice="5.387127227586255 1.2618388104063896e-41 0.0 -1.2753018467960047e-41 5.45867241776556 0.0 0.0 0.0 15.347495172690437" Properties=species:S:1:pos:R:3:spacegroup_kinds:I:1:forces:R:3 spacegroup="P 1" unit_cell=conventional occupancy="_JSON {\"0\": {\"In\": 1}, \"1\": {\"In\": 1}, \"2\": {\"In\": 1}, \"3\": {\"In\": 1}, \"4\": {\"In\": 1}, \"5\": {\"In\": 1}, \"6\": {\"In\": 1}, \"7\": {\"In\": 1}, \"8\": {\"In\": 1}, \"9\": {\"In\": 1}, \"10\": {\"In\": 1}, \"11\": {\"In\": 1}, \"12\": {\"In\": 1}, \"13\": {\"In\": 1}, \"14\": {\"In\": 1}, \"15\": {\"In\": 1}, \"16\": {\"O\": 1}, \"17\": {\"O\": 1}, \"18\": {\"O\": 1}, \"19\": {\"O\": 1}, \"20\": {\"O\": 1}, \"21\": {\"O\": 1}, \"22\": {\"O\": 1}, \"23\": {\"O\": 1}, \"24\": {\"O\": 1}, \"25\": {\"O\": 1}, \"26\": {\"O\": 1}, \"27\": {\"O\": 1}, \"28\": {\"O\": 1}, \"29\": {\"O\": 1}, \"30\": {\"O\": 1}, \"31\": {\"O\": 1}, \"32\": {\"O\": 1}, \"33\": {\"O\": 1}, \"34\": {\"O\": 1}, \"35\": {\"O\": 1}, \"36\": {\"O\": 1}, \"37\": {\"O\": 1}, \"38\": {\"O\": 1}, \"39\": {\"O\": 1}}" n_minim_iter=4 energy=-45150.906900140915 stress="0.02733704761264115 -3.951609713341471e-13 -3.775865083436442e-13 -3.951609713341471e-13 0.027665010520586335 6.001193760685923e-13 -3.775865083436442e-13 6.001193760685923e-13 0.030343908683298382" free_energy=-45150.906900140915 pbc="T T T"
In       2.63897464       4.26704009       8.83908637        0      -0.02332823      -0.14783381       0.05906048
In      -0.05458898       3.92096854       6.50840880        1      -0.02332823       0.14783381      -0.05906048
In       2.74815259       1.53770388      14.18215639        2       0.02332823      -0.14783381      -0.05906048
In       5.44171620       1.19163233       1.16533879        3       0.02332823       0.14783381       0.05906048
In       2.74815259       1.19163233       6.50840880        4       0.02332823       0.14783381      -0.05906048
In       5.44171620       1.53770388       8.83908637        5       0.02332823      -0.14783381       0.05906048
In       2.63897464       3.92096854       1.16533879        6      -0.02332823       0.14783381       0.05906048
In      -0.05458898       4.26704009      14.18215639        7      -0.02332823      -0.14783381      -0.05906048
In       2.66535188       4.20030917      12.69643808        8      -0.33273710       0.18016537       0.15108303
In       5.35891549       3.98769946       2.65105710        9      -0.33273710      -0.18016537      -0.15108303
In       2.72177535       1.47097296      10.32480468       10       0.33273710       0.18016537      -0.15108303
In       0.02821173       1.25836325       5.02269049       11       0.33273710      -0.18016537       0.15108303
In       2.72177535       1.25836325       2.65105710       12       0.33273710      -0.18016537      -0.15108303
In       0.02821173       1.47097296      12.69643808       13       0.33273710       0.18016537       0.15108303
In       2.66535188       3.98769946       5.02269049       14      -0.33273710      -0.18016537       0.15108303
In       5.35891549       4.20030917      10.32480468       15      -0.33273710       0.18016537      -0.15108303
O        4.57550400       4.59141878      12.22642116       16       0.07854749      -0.00106331      -0.24825249
O        1.88194038       3.59658985       3.12107401       17       0.07854749       0.00106331       0.24825249
O        0.81162323       1.86208257      10.79482160       18      -0.07854749      -0.00106331       0.24825249
O        3.50518684       0.86725364       4.55267358       19      -0.07854749       0.00106331      -0.24825249
O        0.81162323       0.86725364       3.12107401       20      -0.07854749       0.00106331       0.24825249
O        3.50518684       1.86208257      12.22642116       21      -0.07854749      -0.00106331      -0.24825249
O        4.57550400       3.59658985       4.55267358       22       0.07854749       0.00106331      -0.24825249
O        1.88194038       4.59141878      10.79482160       23       0.07854749      -0.00106331       0.24825249
O        3.93096069       2.91380562       9.60769268       24       0.02495854      -0.04727023       0.05305631
O        1.23739707       5.27420301       5.73980249       25       0.02495854       0.04727023      -0.05305631
O        1.45616654       0.18446941      13.41355008       26      -0.02495854      -0.04727023      -0.05305631
O        4.14973015       2.54486680       1.93394509       27      -0.02495854       0.04727023       0.05305631
O        1.45616654       2.54486680       5.73980249       28      -0.02495854       0.04727023      -0.05305631
O        4.14973015       0.18446941       9.60769268       29      -0.02495854      -0.04727023       0.05305631
O        3.93096069       5.27420301       1.93394509       30       0.02495854       0.04727023       0.05305631
O        1.23739707       2.91380562      13.41355008       31       0.02495854      -0.04727023      -0.05305631
O        3.45236025       3.55981189      14.61310666       32       0.02045442       0.12275606       0.16629264
O        0.75879663       4.62819674       0.73438851       33       0.02045442      -0.12275606      -0.16629264
O        1.93476698       0.83047568       8.40813610       34      -0.02045442       0.12275606      -0.16629264
O        4.62833059       1.89886053       6.93935907       35      -0.02045442      -0.12275606       0.16629264
O        1.93476698       1.89886053       0.73438851       36      -0.02045442      -0.12275606      -0.16629264
O        4.62833059       0.83047568      14.61310666       37      -0.02045442       0.12275606       0.16629264
O        3.45236025       4.62819674       6.93935907       38       0.02045442      -0.12275606       0.16629264
O        0.75879663       3.55981189       8.40813610       39       0.02045442       0.12275606      -0.16629264
40
Lattice="5.4220535406381885 1.3104399982780554e-41 0.0 -1.2783916100281399e-41 5.517607180948112 0.0 0.0 0.0 15.085759866438227" Properties=species:S:1:pos:R:3:spacegroup_kinds:I:1:forces:R:3 spacegroup="P 1" unit_cell=conventional occupancy="_JSON {\"0\": {\"In\": 1}, \"1\": {\"In\": 1}, \"2\": {\"In\": 1}, \"3\": {\"In\": 1}, \"4\": {\"In\": 1}, \"5\": {\"In\": 1}, \"6\": {\"In\": 1}, \"7\": {\"In\": 1}, \"8\": {\"In\": 1}, \"9\": {\"In\": 1}, \"10\": {\"In\": 1}, \"11\": {\"In\": 1}, \"12\": {\"In\": 1}, \"13\": {\"In\": 1}, \"14\": {\"In\": 1}, \"15\": {\"In\": 1}, \"16\": {\"O\": 1}, \"17\": {\"O\": 1}, \"18\": {\"O\": 1}, \"19\": {\"O\": 1}, \"20\": {\"O\": 1}, \"21\": {\"O\": 1}, \"22\": {\"O\": 1}, \"23\": {\"O\": 1}, \"24\": {\"O\": 1}, \"25\": {\"O\": 1}, \"26\": {\"O\": 1}, \"27\": {\"O\": 1}, \"28\": {\"O\": 1}, \"29\": {\"O\": 1}, \"30\": {\"O\": 1}, \"31\": {\"O\": 1}, \"32\": {\"O\": 1}, \"33\": {\"O\": 1}, \"34\": {\"O\": 1}, \"35\": {\"O\": 1}, \"36\": {\"O\": 1}, \"37\": {\"O\": 1}, \"38\": {\"O\": 1}, \"39\": {\"O\": 1}}" n_minim_iter=5 energy=-45151.01157802077 stress="0.05434734980082357 2.4189374307112095e-12 -1.915459520367145e-13 2.4189374307112095e-12 0.0469966071374566 -4.0725264564881775e-12 -1.915459520367145e-13 -4.0725264564881775e-12 0.043636587193873" free_energy=-45151.01157802077 pbc="T T T"
In       2.65077354       4.29732034       8.70039430        0      -0.09211354      -0.20762789       0.30268635
In      -0.06025323       3.97909043       6.38536557        1      -0.09211354       0.20762789      -0.30268635
In       2.77128000       1.53851675      13.92824550        2       0.09211354      -0.20762789      -0.30268635
In       5.48230677       1.22028684       1.15751436        3       0.09211354       0.20762789       0.30268635
In       2.77128000       1.22028684       6.38536557        4       0.09211354       0.20762789      -0.30268635
In       5.48230677       1.53851675       8.70039430        5       0.09211354      -0.20762789       0.30268635
In       2.65077354       3.97909043       1.15751436        6      -0.09211354       0.20762789       0.30268635
In      -0.06025323       4.29732034      13.92824550        7      -0.09211354      -0.20762789      -0.30268635
In       2.66664871       4.25671705      12.52189574        8       0.07384351       0.29177099      -0.18967089
In       5.37767548       4.01969372       2.56386413        9       0.07384351      -0.29177099       0.18967089
In       2.75540483       1.49791346      10.10674406       10      -0.07384351       0.29177099       0.18967089
In       0.04437806       1.26089013       4.97901580       11      -0.07384351      -0.29177099      -0.18967089
In       2.75540483       1.26089013       2.56386413       12      -0.07384351      -0.29177099       0.18967089
In       0.04437806       1.49791346      12.52189574       13      -0.07384351       0.29177099      -0.18967089
In       2.66664871       4.01969372       4.97901580       14       0.07384351      -0.29177099      -0.18967089
In       5.37767548       4.25671705      10.10674406       15       0.07384351       0.29177099       0.18967089
O        4.60255332       4.64577001      12.01412771       16      -0.37829415      -0.18640676      -0.33796849
O        1.89152655       3.63064076       3.07163216       17      -0.37829415       0.18640676       0.33796849
O        0.81950022       1.88696642      10.61451209       18       0.37829415      -0.18640676       0.33796849
O        3.53052699       0.87183717       4.47124778       19       0.37829415       0.18640676      -0.33796849
O        0.81950022       0.87183717       3.07163216       20       0.37829415       0.18640676       0.33796849
O        3.53052699       1.88696642      12.01412771       21       0.37829415      -0.18640676      -0.33796849
O        4.60255332       3.63064076       4.47124778       22      -0.37829415       0.18640676      -0.33796849
O        1.89152655       4.64577001      10.61451209       23      -0.37829415      -0.18640676       0.33796849
O        3.96737492       2.94266782       9.44128825       24      -0.07505505       0.06700830       0.09419893
O        1.25634815       5.33374295       5.64447162       25      -0.07505505      -0.06700830      -0.09419893
O        1.45467862       0.18386423      13.18735155       26       0.07505505       0.06700830      -0.09419893
O        4.16570539       2.57493936       1.89840831       27       0.07505505      -0.06700830       0.09419893
O        1.45467862       2.57493936       5.64447162       28       0.07505505      -0.06700830      -0.09419893
O        4.16570539       0.18386423       9.44128825       29       0.07505505       0.06700830       0.09419893
O        3.96737492       5.33374295       1.89840831       30      -0.07505505      -0.06700830       0.09419893
O        1.25634815       2.94266782      13.18735155       31      -0.07505505       0.06700830      -0.09419893
O        3.46686475       3.61282679      14.38185273       32       0.30875067       0.17474705       0.12892447
O        0.75583798       4.66358398       0.70390713       33       0.30875067      -0.17474705      -0.12892447
O        1.95518879       0.85402320       8.24678707       34      -0.30875067       0.17474705      -0.12892447
O        4.66621556       1.90478039       6.83897280       35      -0.30875067      -0.17474705       0.12892447
O        1.95518879       1.90478039       0.70390713       36      -0.30875067      -0.17474705      -0.12892447
O        4.66621556       0.85402320      14.38185273       37      -0.30875067       0.17474705       0.12892447
O        3.46686475       4.66358398       6.83897280       38       0.30875067      -0.17474705       0.12892447
O        0.75583798       3.61282679       8.24678707       39       0.30875067       0.17474705      -0.12892447
40