40
Lattice="5.341052290994979 1.5262814188901493e-41 0.0 -1.6062743091181958e-41 5.620978524996108 0.0 0.0 0.0 13.70647540605087" Properties=species:S:1:pos:R:3:spacegroup_kinds:I:1:forces:R:3 spacegroup="P 1" unit_cell=conventional occupancy="_JSON {\"0\": {\"In\": 1}, \"1\": {\"In\": 1}, \"2\": {\"In\": 1}, \"3\": {\"In\": 1}, \"4\": {\"In\": 1}, \"5\": {\"In\": 1}, \"6\": {\"In\": 1}, \"7\": {\"In\": 1}, \"8\": {\"In\": 1}, \"9\": {\"In\": 1}, \"10\": {\"In\": 1}, \"11\": {\"In\": 1}, \"12\": {\"In\": 1}, \"13\": {\"In\": 1}, \"14\": {\"In\": 1}, \"15\": {\"In\": 1}, \"16\": {\"O\": 1}, \"17\": {\"O\": 1}, \"18\": {\"O\": 1}, \"19\": {\"O\": 1}, \"20\": {\"O\": 1}, \"21\": {\"O\": 1}, \"22\": {\"O\": 1}, \"23\": {\"O\": 1}, \"24\": {\"O\": 1}, \"25\": {\"O\": 1}, \"26\": {\"O\": 1}, \"27\": {\"O\": 1}, \"28\": {\"O\": 1}, \"29\": {\"O\": 1}, \"30\": {\"O\": 1}, \"31\": {\"O\": 1}, \"32\": {\"O\": 1}, \"33\": {\"O\": 1}, \"34\": {\"O\": 1}, \"35\": {\"O\": 1}, \"36\": {\"O\": 1}, \"37\": {\"O\": 1}, \"38\": {\"O\": 1}, \"39\": {\"O\": 1}}" n_minim_iter=1 energy=-45153.9692263152 stress="-0.012479910104361386 1.0254894864801507e-12 1.86278268023153e-12 1.0254894864801507e-12 -0.038457075846714546 -3.838100448487093e-12 1.86278268023153e-12 -3.838100448487093e-12 0.02078846324754595" free_energy=-45153.9692263152 pbc="T T T"
In       2.71419859       4.27134012       7.92126415        0       0.35993718       0.49651653      -0.09678342
In       0.04367245       4.16012766       5.78521125        1       0.35993718      -0.49651653       0.09678342
In       2.62685370       1.46085086      12.63844896        2      -0.35993718       0.49651653       0.09678342
In       5.29737984       1.34963840       1.06802645        3      -0.35993718      -0.49651653      -0.09678342
In       2.62685370       1.34963840       5.78521125        4      -0.35993718      -0.49651653       0.09678342
In       5.29737984       1.46085086       7.92126415        5      -0.35993718       0.49651653      -0.09678342
In       2.71419859       4.16012766       1.06802645        6       0.35993718      -0.49651653      -0.09678342
In       0.04367245       4.27134012      12.63844896        7       0.35993718       0.49651653       0.09678342
In       2.60260469       4.29251154      11.40632692        8      -0.24378460      -0.35163889      -0.29147410
In       5.27313083       4.13895625       2.30014849        9      -0.24378460       0.35163889       0.29147410
In       2.73844761       1.48202227       9.15338619       10       0.24378460      -0.35163889       0.29147410
In       0.06792146       1.32846699       4.55308921       11       0.24378460       0.35163889      -0.29147410
In       2.73844761       1.32846699       2.30014849       12       0.24378460       0.35163889       0.29147410
In       0.06792146       1.48202227      11.40632692       13       0.24378460      -0.35163889      -0.29147410
In       2.60260469       4.13895625       4.55308921       14      -0.24378460       0.35163889      -0.29147410
In       5.27313083       4.29251154       9.15338619       15      -0.24378460      -0.35163889       0.29147410
O        4.44407747       4.61134693      10.96520760       16       0.26523855       0.27857392       0.33007256
O        1.77355132       3.82012086       2.74126780       17       0.26523855      -0.27857392      -0.33007256
O        0.89697483       1.80085767       9.59450551       18      -0.26523855       0.27857392      -0.33007256
O        3.56750097       1.00963159       4.11196990       19      -0.26523855      -0.27857392       0.33007256
O        0.89697483       1.00963159       2.74126780       20      -0.26523855      -0.27857392      -0.33007256
O        3.56750097       1.80085767      10.96520760       21      -0.26523855       0.27857392       0.33007256
O        4.44407747       3.82012086       4.11196990       22       0.26523855      -0.27857392       0.33007256
O        1.77355132       4.61134693       9.59450551       23       0.26523855       0.27857392      -0.33007256
O        4.01049002       2.89149339       8.56024980       24       0.71699646      -0.31481022      -0.11606364
O        1.33996388       5.53997440       5.14622561       25       0.71699646       0.31481022       0.11606364
O        1.33056227       0.08100413      11.99946331       26      -0.71699646      -0.31481022       0.11606364
O        4.00108842       2.72948514       1.70701210       27      -0.71699646       0.31481022      -0.11606364
O        1.33056227       2.72948514       5.14622561       28      -0.71699646       0.31481022       0.11606364
O        4.00108842       0.08100413       8.56024980       29      -0.71699646      -0.31481022      -0.11606364
O        4.01049002       5.53997440       1.70701210       30       0.71699646       0.31481022      -0.11606364
O        1.33996388       2.89149339      11.99946331       31       0.71699646      -0.31481022       0.11606364
O        3.55000887       3.83763790      13.01919413       32      -0.31188411      -0.31670665      -0.27603077
O        0.87948272       4.59382989       0.68728127       33      -0.31188411       0.31670665       0.27603077
O        1.79104342       1.02714864       7.54051897       34       0.31188411      -0.31670665       0.27603077
O        4.46156957       1.78334062       6.16595643       35       0.31188411       0.31670665      -0.27603077
O        1.79104342       1.78334062       0.68728127       36       0.31188411       0.31670665       0.27603077
O        4.46156957       1.02714864      13.01919413       37       0.31188411      -0.31670665      -0.27603077
O        3.55000887       4.59382989       6.16595643       38      -0.31188411       0.31670665      -0.27603077
O        0.87948272       3.83763790       7.54051897       39      -0.31188411      -0.31670665       0.27603077
40
Lattice="5.345467421890473 1.5361543487411948e-41 0.0 -1.611304599007551e-41 5.6755296878887505 0.0 0.0 0.0 13.56352150509544" Properties=species:S:1:pos:R:3:spacegroup_kinds:I:1:forces:R:3 spacegroup="P 1" unit_cell=conventional occupancy="_JSON {\"0\": {\"In\": 1}, \"1\": {\"In\": 1}, \"2\": {\"In\": 1}, \"3\": {\"In\": 1}, \"4\": {\"In\": 1}, \"5\": {\"In\": 1}, \"6\": {\"In\": 1}, \"7\": {\"In\": 1}, \"8\": {\"In\": 1}, \"9\": {\"In\": 1}, \"10\": {\"In\": 1}, \"11\": {\"In\": 1}, \"12\": {\"In\": 1}, \"13\": {\"In\": 1}, \"14\": {\"In\": 1}, \"15\": {\"In\": 1}, \"16\": {\"O\": 1}, \"17\": {\"O\": 1}, \"18\": {\"O\": 1}, \"19\": {\"O\": 1}, \"20\": {\"O\": 1}, \"21\": {\"O\": 1}, \"22\": {\"O\": 1}, \"23\": {\"O\": 1}, \"24\": {\"O\": 1}, \"25\": {\"O\": 1}, \"26\": {\"O\": 1}, \"27\": {\"O\": 1}, \"28\": {\"O\": 1}, \"29\": {\"O\": 1}, \"30\": {\"O\": 1}, \"31\": {\"O\": 1}, \"32\": {\"O\": 1}, \"33\": {\"O\": 1}, \"34\": {\"O\": 1}, \"35\": {\"O\": 1}, \"36\": {\"O\": 1}, \"37\": {\"O\": 1}, \"38\": {\"O\": 1}, \"39\": {\"O\": 1}}" n_minim_iter=2 energy=-45154.11633656655 stress="0.005742260699957054 2.320580561824758e-13 -6.360827162286545e-13 2.320580561824758e-13 0.00514579601795452 -2.6585549154730687e-12 -6.360827162286545e-13 -2.6585549154730687e-12 0.008238085638912152" free_energy=-45154.11633656655 pbc="T T T"
In       2.71673989       4.31320736       7.83856892        0       0.43540488       0.24823795       0.02609886
In       0.04400618       4.20008717       5.72495259        1       0.43540488      -0.24823795      -0.02609886
In       2.62872753       1.47544252      12.50671334        2      -0.43540488       0.24823795      -0.02609886
In       5.30146124       1.36232233       1.05680817        3      -0.43540488      -0.24823795       0.02609886
In       2.62872753       1.36232233       5.72495259        4      -0.43540488      -0.24823795      -0.02609886
In       5.30146124       1.47544252       7.83856892        5      -0.43540488       0.24823795       0.02609886
In       2.71673989       4.20008717       1.05680817        6       0.43540488      -0.24823795       0.02609886
In       0.04400618       4.31320736      12.50671334        7       0.43540488       0.24823795      -0.02609886
In       2.60455452       4.33387668      11.28712448        8      -0.48205896      -0.28185334      -0.24261760
In       5.27728823       4.17941785       2.27639703        9      -0.48205896       0.28185334       0.24261760
In       2.74091290       1.49611183       9.05815778       10       0.48205896      -0.28185334       0.24261760
In       0.06817919       1.34165301       4.50536372       11       0.48205896       0.28185334      -0.24261760
In       2.74091290       1.34165301       2.27639703       12       0.48205896       0.28185334       0.24261760
In       0.06817919       1.49611183      11.28712448       13       0.48205896      -0.28185334      -0.24261760
In       2.60455452       4.17941785       4.50536372       14      -0.48205896       0.28185334      -0.24261760
In       5.27728823       4.33387668       9.05815778       15      -0.48205896      -0.28185334       0.24261760
O        4.44797045       4.65633209      10.85111407       16       0.17938860       0.43023799       0.45234692
O        1.77523674       3.85696244       2.71240744       17       0.17938860      -0.43023799      -0.45234692
O        0.89749698       1.81856725       9.49416819       18      -0.17938860       0.43023799      -0.45234692
O        3.57023069       1.01919759       4.06935331       19      -0.17938860      -0.43023799       0.45234692
O        0.89749698       1.01919759       2.71240744       20      -0.17938860      -0.43023799      -0.45234692
O        3.57023069       1.81856725      10.85111407       21      -0.17938860       0.43023799       0.45234692
O        4.44797045       3.85696244       4.06935331       22       0.17938860      -0.43023799       0.45234692
O        1.77523674       4.65633209       9.49416819       23       0.17938860       0.43023799      -0.45234692
O        4.01439814       2.91929248       8.47087440       24       0.51723504      -0.29552249      -0.14412638
O        1.34166443       5.59400205       5.09264711       25       0.51723504       0.29552249       0.14412638
O        1.33106928       0.08152764      11.87440786       26      -0.51723504      -0.29552249       0.14412638
O        4.00380299       2.75623721       1.68911364       27      -0.51723504       0.29552249      -0.14412638
O        1.33106928       2.75623721       5.09264711       28      -0.51723504       0.29552249       0.14412638
O        4.00380299       0.08152764       8.47087440       29      -0.51723504      -0.29552249      -0.14412638
O        4.01439814       5.59400205       1.68911364       30       0.51723504       0.29552249      -0.14412638
O        1.34166443       2.91929248      11.87440786       31       0.51723504      -0.29552249       0.14412638
O        3.55268555       3.87461767      12.88318266       32      -0.27529600      -0.46762917      -0.35010148
O        0.87995184       4.63867686       0.68033884       33      -0.27529600       0.46762917       0.35010148
O        1.79278187       1.03685283       7.46209960       34       0.27529600      -0.46762917       0.35010148
O        4.46551558       1.80091202       6.10142191       35       0.27529600       0.46762917      -0.35010148
O        1.79278187       1.80091202       0.68033884       36       0.27529600       0.46762917       0.35010148
O        4.46551558       1.03685283      12.88318266       37       0.27529600      -0.46762917      -0.35010148
O        3.55268555       4.63867686       6.10142191       38      -0.27529600       0.46762917      -0.35010148
O        0.87995184       3.87461767       7.46209960       39      -0.27529600      -0.46762917       0.35010148
40
Lattice="5.3638130089088785 1.5424576583118728e-41 0.0 -1.610152684261076e-41 5.675554610602739 0.0 0.0 0.0 13.517071499625292" Properties=species:S:1:pos:R:3:spacegroup_kinds:I:1:forces:R:3 spacegroup="P 1" unit_cell=conventional occupancy="_JSON {\"0\": {\"In\": 1}, \"1\": {\"In\": 1}, \"2\": {\"In\": 1}, \"3\": {\"In\": 1}, \"4\": {\"In\": 1}, \"5\": {\"In\": 1}, \"6\": {\"In\": 1}, \"7\": {\"In\": 1}, \"8\": {\"In\": 1}, \"9\": {\"In\": 1}, \"10\": {\"In\": 1}, \"11\": {\"In\": 1}, \"12\": {\"In\": 1}, \"13\": {\"In\": 1}, \"14\": {\"In\": 1}, \"15\": {\"In\": 1}, \"16\": {\"O\": 1}, \"17\": {\"O\": 1}, \"18\": {\"O\": 1}, \"19\": {\"O\": 1}, \"20\": {\"O\": 1}, \"21\": {\"O\": 1}, \"22\": {\"O\": 1}, \"23\": {\"O\": 1}, \"24\": {\"O\": 1}, \"25\": {\"O\": 1}, \"26\": {\"O\": 1}, \"27\": {\"O\": 1}, \"28\": {\"O\": 1}, \"29\": {\"O\": 1}, \"30\": {\"O\": 1}, \"31\": {\"O\": 1}, \"32\": {\"O\": 1}, \"33\": {\"O\": 1}, \"34\": {\"O\": 1}, \"35\": {\"O\": 1}, \"36\": {\"O\": 1}, \"37\": {\"O\": 1}, \"38\": {\"O\": 1}, \"39\": {\"O\": 1}}" n_minim_iter=3 energy=-45154.244918688084 stress="0.04453793730264169 -1.5325710789858118e-12 -1.3174361036354096e-12 -1.5325710789858118e-12 0.013273130163565051 1.2827021574314068e-12 -1.3174361036354096e-12 1.2827021574314068e-12 0.013184890368810629" free_energy=-45154.244918688084 pbc="T T T"
In       2.73271821       4.31687526       7.81219150        0      -0.13719819       0.01344732      -0.02696231
In       0.05081171       4.19645666       5.70488000        1      -0.13719819      -0.01344732       0.02696231
In       2.63109479       1.47909796      12.46341575        2       0.13719819       0.01344732       0.02696231
In       5.31300130       1.35867935       1.05365575        3       0.13719819      -0.01344732      -0.02696231
In       2.63109479       1.35867935       5.70488000        4       0.13719819      -0.01344732       0.02696231
In       5.31300130       1.47909796       7.81219150        5       0.13719819       0.01344732      -0.02696231
In       2.73271821       4.19645666       1.05365575        6      -0.13719819      -0.01344732      -0.02696231
In       0.05081171       4.31687526      12.46341575        7      -0.13719819       0.01344732       0.02696231
In       2.60601979       4.32960652      11.24493263        8       0.06326630      -0.06205554      -0.23690848
In       5.28792629       4.18372540       2.27213887        9       0.06326629       0.06205554       0.23690848
In       2.75779322       1.49182921       9.03067462       10      -0.06326630      -0.06205554       0.23690848
In       0.07588672       1.34594809       4.48639688       11      -0.06326630       0.06205554      -0.23690848
In       2.75779322       1.34594809       2.27213887       12      -0.06326630       0.06205554       0.23690848
In       0.07588672       1.49182921      11.24493263       13      -0.06326630      -0.06205554      -0.23690848
In       2.60601979       4.18372540       4.48639688       14       0.06326630       0.06205554      -0.23690848
In       5.28792629       4.32960652       9.03067462       15       0.06326630      -0.06205554       0.23690848
O        4.46589740       4.66307767      10.82069234       16      -0.01727614       0.22223703       0.35518030
O        1.78399089       3.85025425       2.69637916       17      -0.01727614      -0.22223703      -0.35518030
O        0.89791561       1.82530036       9.45491491       18       0.01727614       0.22223703      -0.35518030
O        3.57982212       1.01247694       4.06215659       19       0.01727614      -0.22223703       0.35518030
O        0.89791561       1.01247694       2.69637916       20       0.01727614      -0.22223703      -0.35518030
O        3.57982212       1.82530036      10.82069234       21       0.01727614       0.22223703       0.35518030
O        4.46589740       3.85025425       4.06215659       22      -0.01727614      -0.22223703       0.35518030
O        1.78399089       4.66307767       9.45491491       23      -0.01727614       0.22223703      -0.35518030
O        4.03588238       2.91477098       8.43972487       24       0.19567933      -0.20044243      -0.14002284
O        1.35397588       5.59856093       5.07734663       25       0.19567933       0.20044243       0.14002284
O        1.32793062       0.07699368      11.83588238       26      -0.19567933      -0.20044243       0.14002284
O        4.00983713       2.76078363       1.68118912       27      -0.19567933       0.20044243      -0.14002284
O        1.32793062       2.76078363       5.07734663       28      -0.19567933       0.20044243       0.14002284
O        4.00983713       0.07699368       8.43972487       29      -0.19567933      -0.20044243      -0.14002284
O        4.03588238       5.59856093       1.68118912       30       0.19567933       0.20044243      -0.14002284
O        1.35397588       2.91477098      11.83588238       31       0.19567933      -0.20044243       0.14002284
O        3.56072861       3.86733468      12.83386041       32      -0.03963460      -0.24311267      -0.24320880
O        0.87882210       4.64599723       0.68321109       33      -0.03963460       0.24311267       0.24320880
O        1.80308440       1.02955738       7.44174684       34       0.03963460      -0.24311267       0.24320880
O        4.48499091       1.80821993       6.07532466       35       0.03963460       0.24311267      -0.24320880
O        1.80308440       1.80821993       0.68321109       36       0.03963460       0.24311267       0.24320880
O        4.48499091       1.02955738      12.83386041       37       0.03963459      -0.24311267      -0.24320880
O        3.56072861       4.64599723       6.07532466       38      -0.03963460       0.24311267      -0.24320880
O        0.87882210       3.86733468       7.44174684       39      -0.03963460      -0.24311267       0.24320880
40
Lattice="5.339188885561045 1.5609710923639669e-41 0.0 -1.5892907085432453e-41 5.694236364764411 0.0 0.0 0.0 13.53486010638934" Properties=species:S:1:pos:R:3:spacegroup_kinds:I:1:forces:R:3 spacegroup="P 1" unit_cell=conventional occupancy="_JSON {\"0\": {\"In\": 1}, \"1\": {\"In\": 1}, \"2\": {\"In\": 1}, \"3\": {\"In\": 1}, \"4\": {\"In\": 1}, \"5\": {\"In\": 1}, \"6\": {\"In\": 1}, \"7\": {\"In\": 1}, \"8\": {\"In\": 1}, \"9\": {\"In\": 1}, \"10\": {\"In\": 1}, \"11\": {\"In\": 1}, \"12\": {\"In\": 1}, \"13\": {\"In\": 1}, \"14\": {\"In\": 1}, \"15\": {\"In\": 1}, \"16\": {\"O\": 1}, \"17\": {\"O\": 1}, \"18\": {\"O\": 1}, \"19\": {\"O\": 1}, \"20\": {\"O\": 1}, \"21\": {\"O\": 1}, \"22\": {\"O\": 1}, \"23\": {\"O\": 1}, \"24\": {\"O\": 1}, \"25\": {\"O\": 1}, \"26\": {\"O\": 1}, \"27\": {\"O\": 1}, \"28\": {\"O\": 1}, \"29\": {\"O\": 1}, \"30\": {\"O\": 1}, \"31\": {\"O\": 1}, \"32\": {\"O\": 1}, \"33\": {\"O\": 1}, \"34\": {\"O\": 1}, \"35\": {\"O\": 1}, \"36\": {\"O\": 1}, \"37\": {\"O\": 1}, \"38\": {\"O\": 1}, \"39\": {\"O\": 1}}" n_minim_iter=4 energy=-45154.29194552779 stress="0.03174197547525821 -1.076801571247814e-12 1.5879280401617807e-12 -1.076801571247814e-12 0.039279889711640294 3.3918886879985656e-13 1.5879280401617807e-12 3.3918886879985656e-13 0.034373653449210805" free_energy=-45154.29194552779 pbc="T T T"
In       2.72279054       4.33260196       7.82264257        0      -0.34625685      -0.09086172      -0.16367274
In       0.05319609       4.20875259       5.71221753        1      -0.34625685       0.09086172       0.16367274
In       2.61639835       1.48548377      12.47964759        2       0.34625685      -0.09086172       0.16367274
In       5.28599279       1.36163441       1.05521252        3       0.34625685       0.09086172      -0.16367274
In       2.61639835       1.36163441       5.71221753        4       0.34625685       0.09086172       0.16367274
In       5.28599279       1.48548377       7.82264257        5       0.34625685      -0.09086172      -0.16367274
In       2.72279054       4.20875259       1.05521252        6      -0.34625685       0.09086172      -0.16367274
In       0.05319609       4.33260196      12.47964759        7      -0.34625685      -0.09086172       0.16367274
In       2.59105623       4.34204707      11.25811540        8       0.31504092       0.04606346      -0.24691129
In       5.26065067       4.19930748       2.27674471        9       0.31504092      -0.04606346       0.24691129
In       2.74813266       1.49492889       9.04417476       10      -0.31504092       0.04606346       0.24691129
In       0.07853822       1.35218930       4.49068534       11      -0.31504092      -0.04606346      -0.24691129
In       2.74813266       1.35218930       2.27674471       12      -0.31504092      -0.04606346       0.24691129
In       0.07853822       1.49492889      11.25811540       13      -0.31504092       0.04606346      -0.24691129
In       2.59105623       4.19930748       4.49068534       14       0.31504092      -0.04606346      -0.24691129
In       5.26065067       4.34204707       9.04417476       15       0.31504092       0.04606346       0.24691129
O        4.44647181       4.68134894      10.83793930       16      -0.12223901       0.15553420       0.32043180
O        1.77687737       3.86000561       2.69692081       17      -0.12223901      -0.15553420      -0.32043180
O        0.89271708       1.83423076       9.46435086       18       0.12223901       0.15553420      -0.32043180
O        3.56231152       1.01288742       4.07050925       19       0.12223901      -0.15553420       0.32043180
O        0.89271708       1.01288742       2.69692081       20       0.12223901      -0.15553420      -0.32043180
O        3.56231152       1.83423076      10.83793930       21       0.12223901       0.15553420       0.32043180
O        4.44647181       3.86000561       4.07050925       22      -0.12223901      -0.15553420       0.32043180
O        1.77687737       4.68134894       9.46435086       23      -0.12223901       0.15553420      -0.32043180
O        4.02064313       2.92235559       8.44985800       24       0.18361703      -0.11623019      -0.14884782
O        1.35104869       5.61899895       5.08500211       25       0.18361703       0.11623019       0.14884782
O        1.31854575       0.07523741      11.85243216       26      -0.18361703      -0.11623019       0.14884782
O        3.98814020       2.77188077       1.68242794       27      -0.18361703       0.11623019      -0.14884782
O        1.31854575       2.77188077       5.08500211       28      -0.18361703       0.11623019       0.14884782
O        3.98814020       0.07523741       8.44985800       29      -0.18361703      -0.11623019      -0.14884782
O        4.02064313       5.61899895       1.68242794       30       0.18361703       0.11623019      -0.14884782
O        1.35104869       2.92235559      11.85243216       31       0.18361703      -0.11623019       0.14884782
O        3.54265941       3.87689077      12.84844954       32       0.07036167      -0.16775307      -0.22883485
O        0.87306497       4.66446378       0.68641057       33       0.07036167       0.16775307       0.22883485
O        1.79652947       1.02977258       7.45384062       34      -0.07036167      -0.16775307       0.22883485
O        4.46612392       1.81734560       6.08101948       35      -0.07036167       0.16775307      -0.22883485
O        1.79652947       1.81734560       0.68641057       36      -0.07036167       0.16775307       0.22883485
O        4.46612392       1.02977258      12.84844954       37      -0.07036167      -0.16775307      -0.22883485
O        3.54265941       4.66446378       6.08101948       38       0.07036167       0.16775307      -0.22883485
O        0.87306497       3.87689077       7.45384062       39       0.07036167      -0.16775307       0.22883485
40
Lattice="5.339231053747881 1.556416750937251e-41 0.0 -1.5667369459294776e-41 5.692551532799184 0.0 0.0 0.0 13.538759109462966" Properties=species:S:1:pos:R:3:spacegroup_kinds:I:1:forces:R:3 spacegroup="P 1" unit_cell=conventional occupancy="_JSON {\"0\": {\"In\": 1}, \"1\": {\"In\": 1}, \"2\": {\"In\": 1}, \"3\": {\"In\": 1}, \"4\": {\"In\": 1}, \"5\": {\"In\": 1}, \"6\": {\"In\": 1}, \"7\": {\"In\": 1}, \"8\": {\"In\": 1}, \"9\": {\"In\": 1}, \"10\": {\"In\": 1}, \"11\": {\"In\": 1}, \"12\": {\"In\": 1}, \"13\": {\"In\": 1}, \"14\": {\"In\": 1}, \"15\": {\"In\": 1}, \"16\": {\"O\": 1}, \"17\": {\"O\": 1}, \"18\": {\"O\": 1}, \"19\": {\"O\": 1}, \"20\": {\"O\": 1}, \"21\": {\"O\": 1}, \"22\": {\"O\": 1}, \"23\": {\"O\": 1}, \"24\": {\"O\": 1}, \"25\": {\"O\": 1}, \"26\": {\"O\": 1}, \"27\": {\"O\": 1}, \"28\": {\"O\": 1}, \"29\": {\"O\": 1}, \"30\": {\"O\": 1}, \"31\": {\"O\": 1}, \"32\": {\"O\": 1}, \"33\": {\"O\": 1}, \"34\": {\"O\": 1}, \"35\": {\"O\": 1}, \"36\": {\"O\": 1}, \"37\": {\"O\": 1}, \"38\": {\"O\": 1}, \"39\": {\"O\": 1}}" n_minim_iter=5 energy=-45154.342325036116 stress="0.04258303935273437 1.1089781961447127e-12 2.924943158684983e-13 1.1089781961447127e-12 0.043291239545688254 -7.542823039987073e-14 2.924943158684983e-13 -7.542823039987073e-14 0.03983107470954061" free_energy=-45154.342325036116 pbc="T T T"
In       2.71989165       4.33168646       7.82257048        0      -0.02827043      -0.12786808      -0.19962633
In       0.05027612       4.20714084       5.71618863        1      -0.02827043       0.12786808       0.19962633
In       2.61933941       1.48541069      12.48556818        2       0.02827043      -0.12786808       0.19962633
In       5.28895494       1.36086507       1.05319093        3       0.02827043       0.12786808      -0.19962633
In       2.61933941       1.36086507       5.71618863        4       0.02827043       0.12786808       0.19962633
In       5.28895494       1.48541069       7.82257048        5       0.02827043      -0.12786808      -0.19962633
In       2.71989165       4.20714084       1.05319093        6      -0.02827043       0.12786808      -0.19962633
In       0.05027612       4.33168646      12.48556818        7      -0.02827043      -0.12786808       0.19962633
In       2.59324298       4.33957978      11.25591521        8       0.01036726       0.08646435      -0.23243031
In       5.26285851       4.19924752       2.28284390        9       0.01036726      -0.08646435       0.23243031
In       2.74598807       1.49330401       9.05222346       10      -0.01036726       0.08646435       0.23243031
In       0.07637255       1.35297176       4.48653565       11      -0.01036726      -0.08646435      -0.23243031
In       2.74598807       1.35297176       2.28284390       12      -0.01036726      -0.08646435       0.23243031
In       0.07637255       1.49330401      11.25591521       13      -0.01036726       0.08646435      -0.23243031
In       2.59324298       4.19924752       4.48653565       14       0.01036726      -0.08646435      -0.23243031
In       5.26285851       4.33957978       9.05222346       15       0.01036726       0.08646435       0.23243031
O        4.44580584       4.68518988      10.84884017       16      -0.01918381       0.00424584      -0.03682708
O        1.77619031       3.85363741       2.68991894       17      -0.01918381      -0.00424584       0.03682708
O        0.89342521       1.83891412       9.45929850       18       0.01918381       0.00424584       0.03682708
O        3.56304074       1.00736165       4.07946061       19       0.01918381      -0.00424584      -0.03682708
O        0.89342521       1.00736165       2.68991894       20       0.01918381      -0.00424584       0.03682708
O        3.56304074       1.83891412      10.84884017       21       0.01918381       0.00424584      -0.03682708
O        4.44580584       3.85363741       4.07946061       22      -0.01918381      -0.00424584      -0.03682708
O        1.77619031       4.68518988       9.45929850       23      -0.01918381       0.00424584       0.03682708
O        4.02693314       2.91752167       8.44908186       24       0.02925214       0.03339489      -0.09679899
O        1.35731761       5.62130563       5.08967725       25       0.02925214      -0.03339489       0.09679899
O        1.31229792       0.07124591      11.85905680       26      -0.02925214       0.03339489       0.09679899
O        3.98191344       2.77502986       1.67970231       27      -0.02925214      -0.03339489      -0.09679899
O        1.31229792       2.77502986       5.08967725       28      -0.02925214      -0.03339489       0.09679899
O        3.98191344       0.07124591       8.44908186       29      -0.02925214       0.03339489      -0.09679899
O        4.02693314       5.62130563       1.67970231       30       0.02925214      -0.03339489      -0.09679899
O        1.35731761       2.91752167      11.85905680       31       0.02925214       0.03339489       0.09679899
O        3.54199831       3.87006541      12.84645959       32      -0.03138051       0.01847361       0.05996758
O        0.87238278       4.66876189       0.69229952       33      -0.03138051      -0.01847361      -0.05996758
O        1.79723275       1.02378964       7.46167908       34       0.03138051       0.01847361      -0.05996758
O        4.46684827       1.82248613       6.07708003       35       0.03138051      -0.01847361       0.05996758
O        1.79723275       1.82248613       0.69229952       36       0.03138051      -0.01847361      -0.05996758
O        4.46684827       1.02378964      12.84645959       37       0.03138051       0.01847361       0.05996758
O        3.54199831       4.66876189       6.07708003       38      -0.03138051      -0.01847361       0.05996758
O        0.87238278       3.87006541       7.46167908       39      -0.03138051       0.01847361      -0.05996758
40