40
Lattice="5.332753424972494 1.6639934394162425e-41 0.0 -1.6952106591989711e-41 5.692842299925581 0.0 0.0 0.0 13.554512126072495" Properties=species:S:1:pos:R:3:spacegroup_kinds:I:1:forces:R:3 spacegroup="P 1" unit_cell=conventional occupancy="_JSON {\"0\": {\"In\": 1}, \"1\": {\"In\": 1}, \"2\": {\"In\": 1}, \"3\": {\"In\": 1}, \"4\": {\"In\": 1}, \"5\": {\"In\": 1}, \"6\": {\"In\": 1}, \"7\": {\"In\": 1}, \"8\": {\"In\": 1}, \"9\": {\"In\": 1}, \"10\": {\"In\": 1}, \"11\": {\"In\": 1}, \"12\": {\"In\": 1}, \"13\": {\"In\": 1}, \"14\": {\"In\": 1}, \"15\": {\"In\": 1}, \"16\": {\"O\": 1}, \"17\": {\"O\": 1}, \"18\": {\"O\": 1}, \"19\": {\"O\": 1}, \"20\": {\"O\": 1}, \"21\": {\"O\": 1}, \"22\": {\"O\": 1}, \"23\": {\"O\": 1}, \"24\": {\"O\": 1}, \"25\": {\"O\": 1}, \"26\": {\"O\": 1}, \"27\": {\"O\": 1}, \"28\": {\"O\": 1}, \"29\": {\"O\": 1}, \"30\": {\"O\": 1}, \"31\": {\"O\": 1}, \"32\": {\"O\": 1}, \"33\": {\"O\": 1}, \"34\": {\"O\": 1}, \"35\": {\"O\": 1}, \"36\": {\"O\": 1}, \"37\": {\"O\": 1}, \"38\": {\"O\": 1}, \"39\": {\"O\": 1}}" n_minim_iter=13 energy=-45154.367431417755 stress="0.04379188472491282 1.654730015828158e-12 7.995791460020214e-13 1.654730015828158e-12 0.04382213429527505 3.169106030935806e-12 7.995791460020214e-13 3.169106030935806e-12 0.0438346285851362" free_energy=-45154.367431417755 pbc="T T T"
In       2.71389307       4.32531881       7.82598054        0      -0.00290537       0.00202254       0.00220381
In       0.04751636       4.21394464       5.72853159        1      -0.00290537      -0.00202254      -0.00220381
In       2.61886035       1.47889766      12.50578765        2       0.00290537       0.00202254      -0.00220381
In       5.28523707       1.36752349       1.04872447        3       0.00290537      -0.00202254       0.00220381
In       2.61886035       1.36752349       5.72853159        4       0.00290537      -0.00202254      -0.00220381
In       5.28523707       1.47889766       7.82598054        5       0.00290537       0.00202254       0.00220381
In       2.71389307       4.21394464       1.04872447        6      -0.00290537      -0.00202254       0.00220381
In       0.04751636       4.32531881      12.50578765        7      -0.00290537       0.00202254      -0.00220381
In       2.58755459       4.34547680      11.26177970        8      -0.00742164       0.00104283       0.00100651
In       5.25393130       4.19378665       2.29273243        9      -0.00742164      -0.00104283      -0.00100651
In       2.74519884       1.49905565       9.06998849       10       0.00742164       0.00104283      -0.00100651
In       0.07882213       1.34736550       4.48452364       11       0.00742164      -0.00104283       0.00100651
In       2.74519884       1.34736550       2.29273243       12       0.00742164      -0.00104283      -0.00100651
In       0.07882213       1.49905565      11.26177970       13       0.00742164       0.00104283       0.00100651
In       2.58755459       4.19378665       4.48452364       14      -0.00742164      -0.00104283       0.00100651
In       5.25393130       4.34547680       9.06998849       15      -0.00742164       0.00104283      -0.00100651
O        4.43881946       4.68541485      10.86353916       16       0.00717988      -0.00064708      -0.00037043
O        1.77244275       3.85384860       2.69097296       17       0.00717988       0.00064708       0.00037043
O        0.89393396       1.83899370       9.46822903       18      -0.00717988      -0.00064708       0.00037043
O        3.56031067       1.00742745       4.08628310       19      -0.00717988       0.00064708      -0.00037043
O        0.89393396       1.00742745       2.69097296       20      -0.00717988       0.00064708       0.00037043
O        3.56031067       1.83899370      10.86353916       21      -0.00717988      -0.00064708      -0.00037043
O        4.43881946       3.85384860       4.08628310       22       0.00717988       0.00064708      -0.00037043
O        1.77244275       4.68541485       9.46822903       23       0.00717988      -0.00064708       0.00037043
O        4.03464337       2.92538856       8.44504538       24      -0.00199107       0.00583586      -0.00132286
O        1.36826665       5.61387489       5.10946675       25      -0.00199107      -0.00583586       0.00132286
O        1.29811006       0.07896741      11.88672281       26       0.00199107       0.00583586       0.00132286
O        3.96448677       2.76745374       1.66778931       27       0.00199107      -0.00583586      -0.00132286
O        1.29811006       2.76745374       5.10946675       28       0.00199107      -0.00583586       0.00132286
O        3.96448677       0.07896741       8.44504538       29       0.00199107       0.00583586      -0.00132286
O        4.03464337       5.61387489       1.66778931       30      -0.00199107      -0.00583586      -0.00132286
O        1.36826665       2.92538856      11.88672281       31      -0.00199107       0.00583586       0.00132286
O        3.53161698       3.87544231      12.85734225       32       0.00223090      -0.00382435      -0.00160452
O        0.86524027       4.66382114       0.69716987       33       0.00223090       0.00382435       0.00160452
O        1.80113645       1.02902116       7.47442594       34      -0.00223090      -0.00382435       0.00160452
O        4.46751316       1.81739999       6.08008619       35      -0.00223090       0.00382435      -0.00160452
O        1.80113645       1.81739999       0.69716987       36      -0.00223090       0.00382435       0.00160452
O        4.46751316       1.02902116      12.85734225       37      -0.00223090      -0.00382435      -0.00160452
O        3.53161698       4.66382114       6.08008619       38       0.00223090       0.00382435      -0.00160452
O        0.86524027       3.87544231       7.47442594       39       0.00223090      -0.00382435       0.00160452
