40
Lattice="5.76917244676962 1.895909606800487e-41 0.0 -1.7393731848567648e-41 6.105093258143954 0.0 0.0 0.0 17.33623805412765" Properties=species:S:1:pos:R:3:spacegroup_kinds:I:1:forces:R:3 spacegroup="P 1" unit_cell=conventional occupancy="_JSON {\"0\": {\"In\": 1}, \"1\": {\"In\": 1}, \"2\": {\"In\": 1}, \"3\": {\"In\": 1}, \"4\": {\"In\": 1}, \"5\": {\"In\": 1}, \"6\": {\"In\": 1}, \"7\": {\"In\": 1}, \"8\": {\"In\": 1}, \"9\": {\"In\": 1}, \"10\": {\"In\": 1}, \"11\": {\"In\": 1}, \"12\": {\"In\": 1}, \"13\": {\"In\": 1}, \"14\": {\"In\": 1}, \"15\": {\"In\": 1}, \"16\": {\"O\": 1}, \"17\": {\"O\": 1}, \"18\": {\"O\": 1}, \"19\": {\"O\": 1}, \"20\": {\"O\": 1}, \"21\": {\"O\": 1}, \"22\": {\"O\": 1}, \"23\": {\"O\": 1}, \"24\": {\"O\": 1}, \"25\": {\"O\": 1}, \"26\": {\"O\": 1}, \"27\": {\"O\": 1}, \"28\": {\"O\": 1}, \"29\": {\"O\": 1}, \"30\": {\"O\": 1}, \"31\": {\"O\": 1}, \"32\": {\"O\": 1}, \"33\": {\"O\": 1}, \"34\": {\"O\": 1}, \"35\": {\"O\": 1}, \"36\": {\"O\": 1}, \"37\": {\"O\": 1}, \"38\": {\"O\": 1}, \"39\": {\"O\": 1}}" n_minim_iter=11 energy=-45149.60121172399 stress="0.016853794719040194 -2.3036403144533832e-12 3.7387689582174457e-13 -2.3036403144533832e-12 0.01664750806269101 -1.178318704832331e-12 3.7387689582174457e-13 -1.178318704832331e-12 0.016626599276821225" free_energy=-45149.60121172399 pbc="T T T"
In       2.82751130       5.04960966      10.04623792        0      -0.00349805       0.00541365       0.00254598
In      -0.05707492       4.10803022       7.29000014        1      -0.00349804      -0.00541365      -0.00254598
In       2.94166115       1.99706304      15.95811916        2       0.00349804       0.00541365      -0.00254598
In       5.82624737       1.05548359       1.37811889        3       0.00349805      -0.00541365       0.00254598
In       2.94166115       1.05548359       7.29000014        4       0.00349804      -0.00541365      -0.00254598
In       5.82624737       1.99706304      10.04623792        5       0.00349805       0.00541365       0.00254598
In       2.82751130       4.10803022       1.37811889        6      -0.00349804      -0.00541365       0.00254598
In      -0.05707492       5.04960966      15.95811916        7      -0.00349804       0.00541365      -0.00254598
In       2.79425866       4.68422386      14.09238362        8       0.00071849       0.00241247       0.00181754
In       5.67884488       4.47341602       3.24385444        9       0.00071849      -0.00241247      -0.00181754
In       2.97491379       1.63167723      11.91197347       10      -0.00071849       0.00241247      -0.00181754
In       0.09032756       1.42086939       5.42426459       11      -0.00071849      -0.00241247       0.00181754
In       2.97491379       1.42086939       3.24385444       12      -0.00071849      -0.00241247      -0.00181754
In       0.09032756       1.63167723      14.09238362       13      -0.00071849       0.00241247       0.00181754
In       2.79425866       4.47341602       5.42426459       14       0.00071849      -0.00241247       0.00181754
In       5.67884488       4.68422386      11.91197347       15       0.00071849       0.00241247      -0.00181754
O        4.90863477       5.48115565      13.82315862       16       0.00542364      -0.00143676       0.00258548
O        2.02404854       3.67648424       3.51307943       17       0.00542364       0.00143676      -0.00258548
O        0.86053768       2.42860902      12.18119846       18      -0.00542364      -0.00143676      -0.00258548
O        3.74512390       0.62393761       5.15503959       19      -0.00542364       0.00143676       0.00258548
O        0.86053768       0.62393761       3.51307943       20      -0.00542364       0.00143676      -0.00258548
O        3.74512390       2.42860902      13.82315862       21      -0.00542364      -0.00143676       0.00258548
O        4.90863477       3.67648424       5.15503959       22       0.00542364       0.00143676       0.00258548
O        2.02404854       5.48115565      12.18119846       23       0.00542364      -0.00143676      -0.00258548
O        4.03790660       3.43153249      11.00242061       24      -0.00642687       0.00490570      -0.00505625
O        1.15332038       5.72610739       6.33381744       25      -0.00642687      -0.00490570       0.00505625
O        1.73126585       0.37898587      15.00193647       26       0.00642687       0.00490570       0.00505625
O        4.61585207       2.67356076       2.33430159       27       0.00642687      -0.00490570      -0.00505625
O        1.73126585       2.67356076       6.33381744       28       0.00642687      -0.00490570       0.00505625
O        4.61585207       0.37898587      11.00242061       29       0.00642687       0.00490570      -0.00505625
O        4.03790660       5.72610739       2.33430159       30      -0.00642687      -0.00490570      -0.00505625
O        1.15332038       3.43153249      15.00193647       31      -0.00642687       0.00490570       0.00505625
O        3.67272618       4.19573315      16.29154347       32      -0.00380799       0.00127029       0.00346928
O        0.78813996       4.96190674       1.04469458       33      -0.00380799      -0.00127029      -0.00346928
O        2.09644626       1.14318652       9.71281361       34       0.00380799       0.00127029      -0.00346928
O        4.98103249       1.90936011       7.62342445       35       0.00380799      -0.00127029       0.00346928
O        2.09644626       1.90936011       1.04469458       36       0.00380799      -0.00127029      -0.00346928
O        4.98103249       1.14318652      16.29154347       37       0.00380799       0.00127029       0.00346928
O        3.67272618       4.96190674       7.62342445       38      -0.00380799      -0.00127029       0.00346928
O        0.78813996       4.19573315       9.71281361       39      -0.00380799       0.00127029      -0.00346928
