40
Lattice="5.397876261120005 1.5425196740174435e-41 0.0 -1.9263080975252573e-41 5.680780657305561 0.0 0.0 0.0 13.852299919004238" Properties=species:S:1:pos:R:3:spacegroup_kinds:I:1:forces:R:3 spacegroup="P 1" unit_cell=conventional occupancy="_JSON {\"0\": {\"In\": 1}, \"1\": {\"In\": 1}, \"2\": {\"In\": 1}, \"3\": {\"In\": 1}, \"4\": {\"In\": 1}, \"5\": {\"In\": 1}, \"6\": {\"In\": 1}, \"7\": {\"In\": 1}, \"8\": {\"In\": 1}, \"9\": {\"In\": 1}, \"10\": {\"In\": 1}, \"11\": {\"In\": 1}, \"12\": {\"In\": 1}, \"13\": {\"In\": 1}, \"14\": {\"In\": 1}, \"15\": {\"In\": 1}, \"16\": {\"O\": 1}, \"17\": {\"O\": 1}, \"18\": {\"O\": 1}, \"19\": {\"O\": 1}, \"20\": {\"O\": 1}, \"21\": {\"O\": 1}, \"22\": {\"O\": 1}, \"23\": {\"O\": 1}, \"24\": {\"O\": 1}, \"25\": {\"O\": 1}, \"26\": {\"O\": 1}, \"27\": {\"O\": 1}, \"28\": {\"O\": 1}, \"29\": {\"O\": 1}, \"30\": {\"O\": 1}, \"31\": {\"O\": 1}, \"32\": {\"O\": 1}, \"33\": {\"O\": 1}, \"34\": {\"O\": 1}, \"35\": {\"O\": 1}, \"36\": {\"O\": 1}, \"37\": {\"O\": 1}, \"38\": {\"O\": 1}, \"39\": {\"O\": 1}}" n_minim_iter=26 energy=-45153.42785726586 stress="0.08620776988981363 -1.0914288366731823e-12 1.1458742454110098e-12 -1.0914288366731823e-12 0.086256916066238 2.983408815937935e-13 1.1458742454110098e-12 2.983408815937935e-13 0.08626757917289374" free_energy=-45153.42785726586 pbc="T T T"
In       2.74307521       4.31678332       8.00553925        0       0.00171924       0.00406695       0.00525208
In       0.04413708       4.20438766       5.84676067        1       0.00171924      -0.00406695      -0.00525208
In       2.65480105       1.47639299      12.77291063        2      -0.00171924       0.00406695      -0.00525208
In       5.35373918       1.36399733       1.07938929        3      -0.00171924      -0.00406695       0.00525208
In       2.65480105       1.36399733       5.84676067        4      -0.00171924      -0.00406695      -0.00525208
In       5.35373918       1.47639299       8.00553925        5      -0.00171924       0.00406695       0.00525208
In       2.74307521       4.20438766       1.07938929        6       0.00171924      -0.00406695       0.00525208
In       0.04413708       4.31678332      12.77291063        7       0.00171924       0.00406695      -0.00525208
In       2.63029405       4.33817998      11.52767993        8       0.00061465       0.00332291       0.00169188
In       5.32923218       4.18299101       2.32461999        9       0.00061465      -0.00332291      -0.00169188
In       2.76758221       1.49778965       9.25076995       10      -0.00061465       0.00332291      -0.00169188
In       0.06864408       1.34260068       4.60152997       11      -0.00061465      -0.00332291       0.00169188
In       2.76758221       1.34260068       2.32461999       12      -0.00061465      -0.00332291      -0.00169188
In       0.06864408       1.49778965      11.52767993       13      -0.00061465       0.00332291       0.00169188
In       2.63029405       4.18299101       4.60152997       14       0.00061465      -0.00332291       0.00169188
In       5.32923218       4.33817998       9.25076995       15       0.00061465       0.00332291      -0.00169188
O        4.49135843       4.66040750      11.08186750       16       0.00179780      -0.00171925      -0.00621188
O        1.79242030       3.86076349       2.77043241       17       0.00179780       0.00171925       0.00621188
O        0.90651783       1.82001717       9.69658237       18      -0.00179780      -0.00171925       0.00621188
O        3.60545596       1.02037316       4.15571755       19      -0.00179780       0.00171925      -0.00621188
O        0.90651783       1.02037316       2.77043241       20      -0.00179780       0.00171925       0.00621188
O        3.60545596       1.82001717      11.08186750       21      -0.00179780      -0.00171925      -0.00621188
O        4.49135843       3.86076349       4.15571755       22       0.00179780       0.00171925      -0.00621188
O        1.79242030       4.66040750       9.69658237       23       0.00179780      -0.00171925       0.00621188
O        4.05315801       2.92225626       8.65132312       24      -0.00170574       0.00598049      -0.00346393
O        1.35421988       5.59891472       5.20097680       25      -0.00170574      -0.00598049       0.00346393
O        1.34471825       0.08186594      12.12712676       26       0.00170574       0.00598049       0.00346393
O        4.04365638       2.75852439       1.72517316       27       0.00170574      -0.00598049      -0.00346393
O        1.34471825       2.75852439       5.20097680       28       0.00170574      -0.00598049       0.00346393
O        4.04365638       0.08186594       8.65132312       29       0.00170574       0.00598049      -0.00346393
O        4.05315801       5.59891472       1.72517316       30      -0.00170574      -0.00598049      -0.00346393
O        1.35421988       2.92225626      12.12712676       31      -0.00170574       0.00598049       0.00346393
O        3.58777775       3.87846690      13.15770660       32       0.00351463      -0.00710821      -0.00301931
O        0.88883962       4.64270409       0.69459332       33       0.00351463       0.00710821       0.00301931
O        1.81009851       1.03807657       7.62074328       34      -0.00351463      -0.00710821       0.00301931
O        4.50903664       1.80231376       6.23155664       35      -0.00351463       0.00710821      -0.00301931
O        1.81009851       1.80231376       0.69459332       36      -0.00351463       0.00710821       0.00301931
O        4.50903664       1.03807657      13.15770660       37      -0.00351463      -0.00710821      -0.00301931
O        3.58777775       4.64270409       6.23155664       38       0.00351463       0.00710821      -0.00301931
O        0.88883962       3.87846690       7.62074328       39       0.00351463      -0.00710821       0.00301931
