40
Lattice="5.873310473553902 1.717356307615989e-41 0.0 -1.8140129433761907e-41 6.203873460763554 0.0 0.0 0.0 17.48631109809424" Properties=species:S:1:pos:R:3:spacegroup_kinds:I:1:forces:R:3 spacegroup="P 1" unit_cell=conventional occupancy="_JSON {\"0\": {\"In\": 1}, \"1\": {\"In\": 1}, \"2\": {\"In\": 1}, \"3\": {\"In\": 1}, \"4\": {\"In\": 1}, \"5\": {\"In\": 1}, \"6\": {\"In\": 1}, \"7\": {\"In\": 1}, \"8\": {\"In\": 1}, \"9\": {\"In\": 1}, \"10\": {\"In\": 1}, \"11\": {\"In\": 1}, \"12\": {\"In\": 1}, \"13\": {\"In\": 1}, \"14\": {\"In\": 1}, \"15\": {\"In\": 1}, \"16\": {\"O\": 1}, \"17\": {\"O\": 1}, \"18\": {\"O\": 1}, \"19\": {\"O\": 1}, \"20\": {\"O\": 1}, \"21\": {\"O\": 1}, \"22\": {\"O\": 1}, \"23\": {\"O\": 1}, \"24\": {\"O\": 1}, \"25\": {\"O\": 1}, \"26\": {\"O\": 1}, \"27\": {\"O\": 1}, \"28\": {\"O\": 1}, \"29\": {\"O\": 1}, \"30\": {\"O\": 1}, \"31\": {\"O\": 1}, \"32\": {\"O\": 1}, \"33\": {\"O\": 1}, \"34\": {\"O\": 1}, \"35\": {\"O\": 1}, \"36\": {\"O\": 1}, \"37\": {\"O\": 1}, \"38\": {\"O\": 1}, \"39\": {\"O\": 1}}" n_minim_iter=1 energy=-45148.88876433084 stress="0.03403525126734204 5.138060725025412e-13 -6.831714306790637e-13 5.138060725025412e-13 0.03763960981686057 -4.811840095932459e-14 -6.831714306790637e-13 -4.811840095932459e-14 0.04475497155398169" free_energy=-45148.88876433084 pbc="T T T"
In       2.84943218       5.14247871      10.14793229        0      -0.06520857       0.09944142       0.03899547
In      -0.08722306       4.16333148       7.33837881        1      -0.06520857      -0.09944142      -0.03899547
In       3.02387830       2.04054198      16.08153436        2       0.06520857       0.09944142      -0.03899547
In       5.96053353       1.06139475       1.40477674        3       0.06520857      -0.09944142       0.03899547
In       3.02387830       1.06139475       7.33837881        4       0.06520857      -0.09944142      -0.03899547
In       5.96053353       2.04054198      10.14793229        5       0.06520857       0.09944142       0.03899547
In       2.84943218       4.16333148       1.40477674        6      -0.06520857      -0.09944142       0.03899547
In      -0.08722306       5.14247871      16.08153436        7      -0.06520857       0.09944142      -0.03899547
In       2.82359217       4.78123191      14.22102657        8      -0.10192665      -0.02973841       0.07051723
In       5.76024741       4.52457828       3.26528452        9      -0.10192665       0.02973841      -0.07051723
In       3.04971830       1.67929518      12.00844007       10       0.10192665      -0.02973841      -0.07051723
In       0.11306306       1.42264155       5.47787103       11       0.10192665       0.02973841       0.07051723
In       3.04971830       1.42264155       3.26528452       12       0.10192665       0.02973841      -0.07051723
In       0.11306306       1.67929518      14.22102657       13       0.10192665      -0.02973841       0.07051723
In       2.82359217       4.52457828       5.47787103       14      -0.10192665       0.02973841       0.07051723
In       5.76024741       4.78123191      12.00844007       15      -0.10192665      -0.02973841      -0.07051723
O        4.99093064       5.57606920      13.94678145       16       0.04269773      -0.07733680       0.07431511
O        2.05427541       3.72974099       3.53952965       17       0.04269773       0.07733680      -0.07431511
O        0.88237983       2.47413247      12.28268520       18      -0.04269773      -0.07733680      -0.07431511
O        3.81903507       0.62780426       5.20362590       19      -0.04269773       0.07733680       0.07431511
O        0.88237983       0.62780426       3.53952965       20      -0.04269773       0.07733680      -0.07431511
O        3.81903507       2.47413247      13.94678145       21      -0.04269773      -0.07733680       0.07431511
O        4.99093064       3.72974099       5.20362590       22       0.04269773       0.07733680       0.07431511
O        2.05427541       5.57606920      12.28268520       23       0.04269773      -0.07733680      -0.07431511
O        4.11125310       3.51773503      11.10272846       24       0.02302771       0.07348898      -0.00470977
O        1.17459786       5.78807516       6.38358264       25       0.02302771      -0.07348898       0.00470977
O        1.76205737       0.41579830      15.12673819       26      -0.02302771       0.07348898       0.00470977
O        4.69871261       2.68613843       2.35957291       27      -0.02302771      -0.07348898      -0.00470977
O        1.76205737       2.68613843       6.38358264       28      -0.02302771      -0.07348898       0.00470977
O        4.69871261       0.41579830      11.10272846       29      -0.02302771       0.07348898      -0.00470977
O        4.11125310       5.78807516       2.35957291       30       0.02302771      -0.07348898      -0.00470977
O        1.17459786       3.51773503      15.12673819       31       0.02302771       0.07348898       0.00470977
O        3.74175191       4.26169948      16.42848494       32       0.07854755      -0.01522164      -0.05425659
O        0.80509668       5.04411071       1.05782616       33       0.07854755       0.01522164       0.05425659
O        2.13155856       1.15976275       9.80098171       34      -0.07854755      -0.01522164       0.05425659
O        5.06821380       1.94217398       7.68532939       35      -0.07854755       0.01522164      -0.05425659
O        2.13155856       1.94217398       1.05782616       36      -0.07854755       0.01522164       0.05425659
O        5.06821380       1.15976275      16.42848494       37      -0.07854755      -0.01522164      -0.05425659
O        3.74175191       5.04411071       7.68532939       38       0.07854755       0.01522164      -0.05425659
O        0.80509668       4.26169948       9.80098171       39       0.07854755      -0.01522164       0.05425659
40
Lattice="5.8989969912354905 1.716721798614799e-41 0.0 -1.8188416851925576e-41 6.2105129406936515 0.0 0.0 0.0 17.391556218300625" Properties=species:S:1:pos:R:3:spacegroup_kinds:I:1:forces:R:3 spacegroup="P 1" unit_cell=conventional occupancy="_JSON {\"0\": {\"In\": 1}, \"1\": {\"In\": 1}, \"2\": {\"In\": 1}, \"3\": {\"In\": 1}, \"4\": {\"In\": 1}, \"5\": {\"In\": 1}, \"6\": {\"In\": 1}, \"7\": {\"In\": 1}, \"8\": {\"In\": 1}, \"9\": {\"In\": 1}, \"10\": {\"In\": 1}, \"11\": {\"In\": 1}, \"12\": {\"In\": 1}, \"13\": {\"In\": 1}, \"14\": {\"In\": 1}, \"15\": {\"In\": 1}, \"16\": {\"O\": 1}, \"17\": {\"O\": 1}, \"18\": {\"O\": 1}, \"19\": {\"O\": 1}, \"20\": {\"O\": 1}, \"21\": {\"O\": 1}, \"22\": {\"O\": 1}, \"23\": {\"O\": 1}, \"24\": {\"O\": 1}, \"25\": {\"O\": 1}, \"26\": {\"O\": 1}, \"27\": {\"O\": 1}, \"28\": {\"O\": 1}, \"29\": {\"O\": 1}, \"30\": {\"O\": 1}, \"31\": {\"O\": 1}, \"32\": {\"O\": 1}, \"33\": {\"O\": 1}, \"34\": {\"O\": 1}, \"35\": {\"O\": 1}, \"36\": {\"O\": 1}, \"37\": {\"O\": 1}, \"38\": {\"O\": 1}, \"39\": {\"O\": 1}}" n_minim_iter=2 energy=-45148.90861375264 stress="0.03452202603752084 -2.7057334937697173e-12 -3.8503171763101634e-14 -2.7057334937697173e-12 0.0361009411640329 -9.499911875741758e-13 -3.8503171763101634e-14 -9.499911875741758e-13 0.03591958213778794" free_energy=-45148.90861375264 pbc="T T T"
In       2.86180002       5.14812506      10.09299827        0      -0.07207437       0.07357488       0.05237468
In      -0.08769847       4.16764435       7.29855795        1      -0.07207437      -0.07357488      -0.05237468
In       3.03719697       2.04286859      15.99433606        2       0.07207437       0.07357488      -0.05237468
In       5.98669546       1.06238788       1.39722016        3       0.07207437      -0.07357488       0.05237468
In       3.03719697       1.06238788       7.29855795        4       0.07207437      -0.07357488      -0.05237468
In       5.98669546       2.04286859      10.09299827        5       0.07207437       0.07357488       0.05237468
In       2.86180002       4.16764435       1.39722016        6      -0.07207437      -0.07357488       0.05237468
In      -0.08769847       5.14812506      15.99433606        7      -0.07207437       0.07357488      -0.05237468
In       2.83579411       4.78630616      14.14406623        8      -0.11044149      -0.03364121       0.09337284
In       5.78529261       4.52946325       3.24748998        9      -0.11044149       0.03364121      -0.09337284
In       3.06320288       1.68104969      11.94326809       10       0.11044149      -0.03364121      -0.09337284
In       0.11370438       1.42420678       5.44828813       11       0.11044149       0.03364121       0.09337284
In       3.06320288       1.42420678       3.24748998       12       0.11044149       0.03364121      -0.09337284
In       0.11370438       1.68104969      14.14406623       13       0.11044149      -0.03364121       0.09337284
In       2.83579411       4.52946325       5.44828813       14      -0.11044149       0.03364121       0.09337284
In       5.78529261       4.78630616      11.94326809       15      -0.11044149      -0.03364121      -0.09337284
O        5.01281965       5.58192574      13.87131261       16       0.02718164      -0.08818113       0.07963192
O        2.06332115       3.73384367       3.52024361       17       0.02718164       0.08818113      -0.07963192
O        0.88617734       2.47666927      12.21602172       18      -0.02718164      -0.08818113      -0.07963192
O        3.83567584       0.62858720       5.17553450       19      -0.02718164       0.08818113       0.07963192
O        0.88617734       0.62858720       3.52024361       20      -0.02718164       0.08818113      -0.07963192
O        3.83567584       2.47666927      13.87131261       21      -0.02718164      -0.08818113       0.07963192
O        5.01281965       3.73384367       5.17553450       22       0.02718164       0.08818113       0.07963192
O        2.06332115       5.58192574      12.21602172       23       0.02718164      -0.08818113      -0.07963192
O        4.12926656       3.52160530      11.04255824       24      -0.00682123       0.08641545       0.01190256
O        1.17976806       5.79416412       6.34899798       25      -0.00682123      -0.08641545      -0.01190256
O        1.76973043       0.41634883      15.04477609       26       0.00682123       0.08641545      -0.01190256
O        4.71922893       2.68890765       2.34678013       27       0.00682123      -0.08641545       0.01190256
O        1.76973043       2.68890765       6.34899798       28       0.00682123      -0.08641545      -0.01190256
O        4.71922893       0.41634883      11.04255824       29       0.00682123       0.08641545       0.01190256
O        4.12926656       5.79416412       2.34678013       30      -0.00682123      -0.08641545       0.01190256
O        1.17976806       3.52160530      15.04477609       31      -0.00682123       0.08641545      -0.01190256
O        3.75822937       4.26623856      16.33938481       32       0.09040358      -0.00223377      -0.02535291
O        0.80873088       5.04953086       1.05217141       33       0.09040358       0.00223377       0.02535291
O        2.14076762       1.16098209       9.74794952       34      -0.09040358      -0.00223377       0.02535291
O        5.09026611       1.94427438       7.64360670       35      -0.09040358       0.00223377      -0.02535291
O        2.14076762       1.94427438       1.05217141       36      -0.09040358       0.00223377       0.02535291
O        5.09026611       1.16098209      16.33938481       37      -0.09040358      -0.00223377      -0.02535291
O        3.75822937       5.04953086       7.64360670       38       0.09040358       0.00223377      -0.02535291
O        0.80873088       4.26623856       9.74794952       39       0.09040358      -0.00223377       0.02535291
40
Lattice="5.908361320787185 1.680152106939843e-41 0.0 -1.7715614770412317e-41 6.199641431731631 0.0 0.0 0.0 17.394440832882466" Properties=species:S:1:pos:R:3:spacegroup_kinds:I:1:forces:R:3 spacegroup="P 1" unit_cell=conventional occupancy="_JSON {\"0\": {\"In\": 1}, \"1\": {\"In\": 1}, \"2\": {\"In\": 1}, \"3\": {\"In\": 1}, \"4\": {\"In\": 1}, \"5\": {\"In\": 1}, \"6\": {\"In\": 1}, \"7\": {\"In\": 1}, \"8\": {\"In\": 1}, \"9\": {\"In\": 1}, \"10\": {\"In\": 1}, \"11\": {\"In\": 1}, \"12\": {\"In\": 1}, \"13\": {\"In\": 1}, \"14\": {\"In\": 1}, \"15\": {\"In\": 1}, \"16\": {\"O\": 1}, \"17\": {\"O\": 1}, \"18\": {\"O\": 1}, \"19\": {\"O\": 1}, \"20\": {\"O\": 1}, \"21\": {\"O\": 1}, \"22\": {\"O\": 1}, \"23\": {\"O\": 1}, \"24\": {\"O\": 1}, \"25\": {\"O\": 1}, \"26\": {\"O\": 1}, \"27\": {\"O\": 1}, \"28\": {\"O\": 1}, \"29\": {\"O\": 1}, \"30\": {\"O\": 1}, \"31\": {\"O\": 1}, \"32\": {\"O\": 1}, \"33\": {\"O\": 1}, \"34\": {\"O\": 1}, \"35\": {\"O\": 1}, \"36\": {\"O\": 1}, \"37\": {\"O\": 1}, \"38\": {\"O\": 1}, \"39\": {\"O\": 1}}" n_minim_iter=3 energy=-45148.91045029807 stress="0.03602575715038504 6.650213057501261e-13 -1.2723751082075113e-12 6.650213057501261e-13 0.03430521593338286 -1.905081592657944e-12 -1.2723751082075113e-12 -1.905081592657944e-12 0.03583439461821383" free_energy=-45148.91045029807 pbc="T T T"
In       2.86606914       5.13937946      10.09486970        0      -0.08897327       0.05950831       0.05397020
In      -0.08811152       4.16008269       7.29957114        1      -0.08897327      -0.05950831      -0.05397020
In       3.04229218       2.03955874      15.99679155        2       0.08897327       0.05950831      -0.05397020
In       5.99647284       1.06026197       1.39764928        3       0.08897327      -0.05950831       0.05397020
In       3.04229218       1.06026197       7.29957114        4       0.08897327      -0.05950831      -0.05397020
In       5.99647284       2.03955874      10.09486970        5       0.08897327       0.05950831       0.05397020
In       2.86606914       4.16008269       1.39764928        6      -0.08897327      -0.05950831       0.05397020
In      -0.08811152       5.13937946      15.99679155        7      -0.08897327       0.05950831      -0.05397020
In       2.83987682       4.77780098      14.14676376        8      -0.10333077      -0.03610402       0.08571366
In       5.79405748       4.52166117       3.24767707        9      -0.10333077       0.03610402      -0.08571366
In       3.06848450       1.67798027      11.94489748       10       0.10333077      -0.03610402      -0.08571366
In       0.11430384       1.42184045       5.44954335       11       0.10333077       0.03610402       0.08571366
In       3.06848450       1.42184045       3.24767707       12       0.10333077       0.03610402      -0.08571366
In       0.11430384       1.67798027      14.14676376       13       0.10333077      -0.03610402       0.08571366
In       2.83987682       4.52166117       5.44954335       14      -0.10333077       0.03610402       0.08571366
In       5.79405748       4.77780098      11.94489748       15      -0.10333077      -0.03610402      -0.08571366
O        5.02087467       5.57182216      13.87390865       16       0.02129961      -0.07265800       0.08265162
O        2.06669401       3.72763999       3.52053218       17       0.02129961       0.07265800      -0.08265162
O        0.88748665       2.47200145      12.21775259       18      -0.02129961      -0.07265800      -0.08265162
O        3.84166732       0.62781927       5.17668824       19      -0.02129961       0.07265800       0.08265162
O        0.88748665       0.62781927       3.52053218       20      -0.02129961       0.07265800      -0.08265162
O        3.84166732       2.47200145      13.87390865       21      -0.02129961      -0.07265800       0.08265162
O        5.02087467       3.72763999       5.17668824       22       0.02129961       0.07265800       0.08265162
O        2.06669401       5.57182216      12.21775259       23       0.02129961      -0.07265800      -0.08265162
O        4.13578623       3.51576722      11.04443896       24       0.00198890       0.08185029      -0.00173002
O        1.18160557       5.78369493       6.35000187       25       0.00198890      -0.08185029       0.00173002
O        1.77257509       0.41594650      15.04722229       26      -0.00198890       0.08185029       0.00173002
O        4.72675575       2.68387422       2.34721855       27      -0.00198890      -0.08185029      -0.00173002
O        1.77257509       2.68387422       6.35000187       28      -0.00198890      -0.08185029       0.00173002
O        4.72675575       0.41594650      11.04443896       29      -0.00198890       0.08185029      -0.00173002
O        4.13578623       5.78369493       2.34721855       30       0.00198890      -0.08185029      -0.00173002
O        1.18160557       3.51576722      15.04722229       31       0.00198890       0.08185029       0.00173002
O        3.76453987       4.25876632      16.34201062       32       0.09480854       0.00281291      -0.02118395
O        0.81035921       5.04069583       1.05243021       33       0.09480854      -0.00281291       0.02118395
O        2.14382145       1.15894560       9.74965063       34      -0.09480854       0.00281291       0.02118395
O        5.09800211       1.94087511       7.64479020       35      -0.09480854      -0.00281291      -0.02118395
O        2.14382145       1.94087511       1.05243021       36      -0.09480854      -0.00281291       0.02118395
O        5.09800211       1.15894560      16.34201062       37      -0.09480854       0.00281291      -0.02118395
O        3.76453987       5.04069583       7.64479020       38       0.09480854      -0.00281291      -0.02118395
O        0.81035921       4.25876632       9.74965063       39       0.09480854       0.00281291       0.02118395
40
Lattice="5.916984667525776 1.7166865170999612e-41 0.0 -1.8014110381580153e-41 6.216377810798968 0.0 0.0 0.0 17.322327498838703" Properties=species:S:1:pos:R:3:spacegroup_kinds:I:1:forces:R:3 spacegroup="P 1" unit_cell=conventional occupancy="_JSON {\"0\": {\"In\": 1}, \"1\": {\"In\": 1}, \"2\": {\"In\": 1}, \"3\": {\"In\": 1}, \"4\": {\"In\": 1}, \"5\": {\"In\": 1}, \"6\": {\"In\": 1}, \"7\": {\"In\": 1}, \"8\": {\"In\": 1}, \"9\": {\"In\": 1}, \"10\": {\"In\": 1}, \"11\": {\"In\": 1}, \"12\": {\"In\": 1}, \"13\": {\"In\": 1}, \"14\": {\"In\": 1}, \"15\": {\"In\": 1}, \"16\": {\"O\": 1}, \"17\": {\"O\": 1}, \"18\": {\"O\": 1}, \"19\": {\"O\": 1}, \"20\": {\"O\": 1}, \"21\": {\"O\": 1}, \"22\": {\"O\": 1}, \"23\": {\"O\": 1}, \"24\": {\"O\": 1}, \"25\": {\"O\": 1}, \"26\": {\"O\": 1}, \"27\": {\"O\": 1}, \"28\": {\"O\": 1}, \"29\": {\"O\": 1}, \"30\": {\"O\": 1}, \"31\": {\"O\": 1}, \"32\": {\"O\": 1}, \"33\": {\"O\": 1}, \"34\": {\"O\": 1}, \"35\": {\"O\": 1}, \"36\": {\"O\": 1}, \"37\": {\"O\": 1}, \"38\": {\"O\": 1}, \"39\": {\"O\": 1}}" n_minim_iter=4 energy=-45148.93358389842 stress="0.0319974502050073 1.3760660367770275e-13 -1.699915072546578e-12 1.3760660367770275e-13 0.030895144299417778 3.5062009105178443e-13 -1.699915072546578e-12 3.5062009105178443e-13 0.02701039084240475" free_energy=-45148.93358389842 pbc="T T T"
In       2.86324080       5.15894565      10.05761227        0      -0.07492264      -0.01047001       0.01847061
In      -0.09525153       4.16562106       7.26471523        1      -0.07492264       0.01047001      -0.01847061
In       3.05374386       2.05075675      15.92587898        2       0.07492264      -0.01047001      -0.01847061
In       6.01223620       1.05743216       1.39644852        3       0.07492264       0.01047001       0.01847061
In       3.05374386       1.05743216       7.26471523        4       0.07492264       0.01047001      -0.01847061
In       6.01223620       2.05075675      10.05761227        5       0.07492264      -0.01047001       0.01847061
In       2.86324080       4.16562106       1.39644852        6      -0.07492264       0.01047001       0.01847061
In      -0.09525153       5.15894565      15.92587898        7      -0.07492264      -0.01047001      -0.01847061
In       2.83458108       4.78766666      14.09589868        8      -0.07609501       0.05934618      -0.01514200
In       5.79307341       4.53690006       3.22642881        9      -0.07609501      -0.05934618       0.01514200
In       3.08240359       1.67947775      11.88759256       10       0.07609501       0.05934618       0.01514200
In       0.12391125       1.42871116       5.43473494       11       0.07609501      -0.05934618      -0.01514200
In       3.08240359       1.42871116       3.22642881       12       0.07609501      -0.05934618       0.01514200
In       0.12391125       1.67947775      14.09589868       13       0.07609501       0.05934618      -0.01514200
In       2.83458108       4.53690006       5.43473494       14      -0.07609501      -0.05934618      -0.01514200
In       5.79307341       4.78766666      11.88759256       15      -0.07609501       0.05934618       0.01514200
O        5.03026803       5.57976211      13.82331656       16      -0.03606126      -0.06595256      -0.03765276
O        2.07177570       3.74480460       3.49901094       17      -0.03606126       0.06595256       0.03765276
O        0.88671664       2.47157321      12.16017469       18       0.03606126      -0.06595256       0.03765276
O        3.84520897       0.63661570       5.16215281       19       0.03606126       0.06595256      -0.03765276
O        0.88671664       0.63661570       3.49901094       20       0.03606126       0.06595256       0.03765276
O        3.84520897       2.47157321      13.82331656       21       0.03606126      -0.06595256      -0.03765276
O        5.03026803       3.74480460       5.16215281       22      -0.03606126       0.06595256      -0.03765276
O        2.07177570       5.57976211      12.16017469       23      -0.03606126      -0.06595256       0.03765276
O        4.14140661       3.53264206      10.99923547       24      -0.01881462       0.03919334       0.00404807
O        1.18291428       5.79192466       6.32309203       25      -0.01881462      -0.03919334      -0.00404807
O        1.77557806       0.42445315      14.98425578       26       0.01881462       0.03919334      -0.00404807
O        4.73407039       2.68373575       2.33807172       27       0.01881462      -0.03919334       0.00404807
O        1.77557806       2.68373575       6.32309203       28       0.01881462      -0.03919334      -0.00404807
O        4.73407039       0.42445315      10.99923547       29       0.01881462       0.03919334       0.00404807
O        4.14140661       5.79192466       2.33807172       30      -0.01881462      -0.03919334       0.00404807
O        1.18291428       3.53264206      14.98425578       31      -0.01881462       0.03919334      -0.00404807
O        3.77818910       4.27033549      16.27241536       32       0.00049569      -0.01315451       0.03253573
O        0.81969677       5.05423122       1.04991213       33       0.00049569       0.01315451      -0.03253573
O        2.13879557       1.16214659       9.71107588       34      -0.00049569      -0.01315451      -0.03253573
O        5.09728790       1.94604232       7.61125162       35      -0.00049569       0.01315451       0.03253573
O        2.13879557       1.94604232       1.04991213       36      -0.00049569       0.01315451      -0.03253573
O        5.09728790       1.16214659      16.27241536       37      -0.00049569      -0.01315451       0.03253573
O        3.77818910       5.05423122       7.61125162       38       0.00049569       0.01315451       0.03253573
O        0.81969677       4.27033549       9.71107588       39       0.00049569      -0.01315451      -0.03253573
40
Lattice="5.90915711778247 1.6797725772922007e-41 0.0 -1.763462114431177e-41 6.212067159091791 0.0 0.0 0.0 17.357309635058286" Properties=species:S:1:pos:R:3:spacegroup_kinds:I:1:forces:R:3 spacegroup="P 1" unit_cell=conventional occupancy="_JSON {\"0\": {\"In\": 1}, \"1\": {\"In\": 1}, \"2\": {\"In\": 1}, \"3\": {\"In\": 1}, \"4\": {\"In\": 1}, \"5\": {\"In\": 1}, \"6\": {\"In\": 1}, \"7\": {\"In\": 1}, \"8\": {\"In\": 1}, \"9\": {\"In\": 1}, \"10\": {\"In\": 1}, \"11\": {\"In\": 1}, \"12\": {\"In\": 1}, \"13\": {\"In\": 1}, \"14\": {\"In\": 1}, \"15\": {\"In\": 1}, \"16\": {\"O\": 1}, \"17\": {\"O\": 1}, \"18\": {\"O\": 1}, \"19\": {\"O\": 1}, \"20\": {\"O\": 1}, \"21\": {\"O\": 1}, \"22\": {\"O\": 1}, \"23\": {\"O\": 1}, \"24\": {\"O\": 1}, \"25\": {\"O\": 1}, \"26\": {\"O\": 1}, \"27\": {\"O\": 1}, \"28\": {\"O\": 1}, \"29\": {\"O\": 1}, \"30\": {\"O\": 1}, \"31\": {\"O\": 1}, \"32\": {\"O\": 1}, \"33\": {\"O\": 1}, \"34\": {\"O\": 1}, \"35\": {\"O\": 1}, \"36\": {\"O\": 1}, \"37\": {\"O\": 1}, \"38\": {\"O\": 1}, \"39\": {\"O\": 1}}" n_minim_iter=5 energy=-45148.940658777654 stress="0.030361462513977405 -7.771002395507883e-13 -1.0242680773171849e-12 -7.771002395507883e-13 0.029976891702785963 9.923210485752498e-13 -1.0242680773171849e-12 9.923210485752498e-13 0.029602520415157364" free_energy=-45148.940658777654 pbc="T T T"
In       2.85692476       5.15662719      10.07908556        0      -0.05899704      -0.00668252       0.00556398
In      -0.09765380       4.16147355       7.27822407        1      -0.05899704       0.00668252      -0.00556398
In       3.05223236       2.05059361      15.95687889        2       0.05899704      -0.00668252      -0.00556398
In       6.00681092       1.05543997       1.40043074        3       0.05899704       0.00668252       0.00556398
In       3.05223236       1.05543997       7.27822407        4       0.05899704       0.00668252      -0.00556398
In       6.00681092       2.05059361      10.07908556        5       0.05899704      -0.00668252       0.00556398
In       2.85692476       4.16147355       1.40043074        6      -0.05899704       0.00668252       0.00556398
In      -0.09765380       5.15662719      15.95687889        7      -0.05899704      -0.00668252      -0.00556398
In       2.82776453       4.78456113      14.12569266        8      -0.05884299       0.07683970      -0.04532728
In       5.78234309       4.53353961       3.23161698        9      -0.05884299      -0.07683970       0.04532728
In       3.08139258       1.67852755      11.91027180       10       0.05884299       0.07683970       0.04532728
In       0.12681403       1.42750603       5.44703784       11       0.05884299      -0.07683970      -0.04532728
In       3.08139258       1.42750603       3.23161698       12       0.05884299      -0.07683970       0.04532728
In       0.12681403       1.67852755      14.12569266       13       0.05884299       0.07683970      -0.04532728
In       2.82776453       4.53353961       5.44703784       14      -0.05884299      -0.07683970      -0.04532728
In       5.78234309       4.78456113      11.91027180       15      -0.05884299       0.07683970       0.04532728
O        5.02364905       5.57349333      13.85217379       16      -0.04370266      -0.04685608      -0.04918347
O        2.06907049       3.74460740       3.50513585       17      -0.04370266       0.04685608       0.04918347
O        0.88550807       2.46745976      12.18379066       18       0.04370266      -0.04685608       0.04918347
O        3.84008662       0.63857382       5.17351897       19       0.04370266       0.04685608      -0.04918347
O        0.88550807       0.63857382       3.50513585       20       0.04370266       0.04685608       0.04918347
O        3.84008662       2.46745976      13.85217379       21       0.04370266      -0.04685608      -0.04918347
O        5.02364905       3.74460740       5.17351897       22      -0.04370266       0.04685608      -0.04918347
O        2.06907049       5.57349333      12.18379066       23      -0.04370266      -0.04685608       0.04918347
O        4.13576713       3.53225501      11.02152616       24      -0.01656948       0.01526302      -0.00798265
O        1.18118858       5.78584573       6.33578347       25      -0.01656948      -0.01526302       0.00798265
O        1.77338998       0.42622143      15.01443829       26       0.01656948       0.01526302       0.00798265
O        4.72796854       2.67981215       2.34287135       27       0.01656948      -0.01526302      -0.00798265
O        1.77338998       2.67981215       6.33578347       28       0.01656948      -0.01526302       0.00798265
O        4.72796854       0.42622143      11.02152616       29       0.01656948       0.01526302      -0.00798265
O        4.13576713       5.78584573       2.34287135       30      -0.01656948      -0.01526302      -0.00798265
O        1.18118858       3.53225501      15.01443829       31      -0.01656948       0.01526302       0.00798265
O        3.77487129       4.26711400      16.30513463       32      -0.02487392      -0.02394399       0.02601948
O        0.82029273       5.05098674       1.05217500       33      -0.02487392       0.02394399      -0.02601948
O        2.13428583       1.16108042       9.73082982       34       0.02487392      -0.02394399      -0.02601948
O        5.08886439       1.94495316       7.62647982       35       0.02487392       0.02394399       0.02601948
O        2.13428583       1.94495316       1.05217500       36       0.02487392       0.02394399      -0.02601948
O        5.08886439       1.16108042      16.30513463       37       0.02487392      -0.02394399       0.02601948
O        3.77487129       5.05098674       7.62647982       38      -0.02487392       0.02394399       0.02601948
O        0.82029273       4.26711400       9.73082982       39      -0.02487392      -0.02394399      -0.02601948
40