40
Lattice="5.508978691568485 1.182018557851327e-41 0.0 -9.017310502767442e-42 5.639789652604312 0.0 0.0 0.0 15.807768908995355" Properties=species:S:1:pos:R:3:spacegroup_kinds:I:1:forces:R:3 spacegroup="P 1" unit_cell=conventional occupancy="_JSON {\"0\": {\"In\": 1}, \"1\": {\"In\": 1}, \"2\": {\"In\": 1}, \"3\": {\"In\": 1}, \"4\": {\"In\": 1}, \"5\": {\"In\": 1}, \"6\": {\"In\": 1}, \"7\": {\"In\": 1}, \"8\": {\"In\": 1}, \"9\": {\"In\": 1}, \"10\": {\"In\": 1}, \"11\": {\"In\": 1}, \"12\": {\"In\": 1}, \"13\": {\"In\": 1}, \"14\": {\"In\": 1}, \"15\": {\"In\": 1}, \"16\": {\"O\": 1}, \"17\": {\"O\": 1}, \"18\": {\"O\": 1}, \"19\": {\"O\": 1}, \"20\": {\"O\": 1}, \"21\": {\"O\": 1}, \"22\": {\"O\": 1}, \"23\": {\"O\": 1}, \"24\": {\"O\": 1}, \"25\": {\"O\": 1}, \"26\": {\"O\": 1}, \"27\": {\"O\": 1}, \"28\": {\"O\": 1}, \"29\": {\"O\": 1}, \"30\": {\"O\": 1}, \"31\": {\"O\": 1}, \"32\": {\"O\": 1}, \"33\": {\"O\": 1}, \"34\": {\"O\": 1}, \"35\": {\"O\": 1}, \"36\": {\"O\": 1}, \"37\": {\"O\": 1}, \"38\": {\"O\": 1}, \"39\": {\"O\": 1}}" n_minim_iter=14 energy=-45150.25401580116 stress="-0.002587777521483469 -8.935705500478366e-13 -2.9383765186611683e-13 -8.935705500478366e-13 -0.0025831406891917994 -1.1900697015300673e-12 -2.9383765186611683e-13 -1.1900697015300673e-12 -0.002576761744291829" free_energy=-45150.25401580116 pbc="T T T"
In       2.76159300       4.48755591       9.02837152        0      -0.00272222       0.00013188      -0.00148659
In       0.00710366       3.97212857       6.77939739        1      -0.00272222      -0.00013188       0.00148659
In       2.74738569       1.66766108      14.68328184        2       0.00272222       0.00013188       0.00148659
In       5.50187504       1.15223375       1.12448707        3       0.00272222      -0.00013188      -0.00148659
In       2.74738569       1.15223375       6.77939739        4       0.00272222      -0.00013188       0.00148659
In       5.50187504       1.66766108       9.02837152        5       0.00272222       0.00013188      -0.00148659
In       2.76159300       3.97212857       1.12448707        6      -0.00272222      -0.00013188      -0.00148659
In       0.00710366       4.48755591      14.68328184        7      -0.00272222       0.00013188       0.00148659
In       2.75580189       4.18081145      12.93097272        8      -0.00238131      -0.00249754      -0.00134786
In       5.51029124       4.27887302       2.87679619        9      -0.00238131       0.00249754       0.00134786
In       2.75317680       1.36091663      10.78068065       10       0.00238131      -0.00249754       0.00134786
In      -0.00131254       1.45897820       5.02708826       11       0.00238131       0.00249754      -0.00134786
In       2.75317680       1.45897820       2.87679619       12       0.00238131       0.00249754       0.00134786
In      -0.00131254       1.36091663      12.93097272       13       0.00238131      -0.00249754      -0.00134786
In       2.75580189       4.27887302       5.02708826       14      -0.00238131       0.00249754      -0.00134786
In       5.51029124       4.18081145      10.78068065       15      -0.00238131      -0.00249754       0.00134786
O        4.73940312       4.91722478      12.61826931       16      -0.00370657      -0.00242553       0.00614059
O        1.98491378       3.54245970       3.18949959       17      -0.00370657       0.00242553      -0.00614059
O        0.76957557       2.09732995      11.09338405       18       0.00370656      -0.00242553      -0.00614059
O        3.52406491       0.72256488       4.71438486       19       0.00370656       0.00242553       0.00614059
O        0.76957557       0.72256488       3.18949959       20       0.00370657       0.00242553      -0.00614059
O        3.52406491       2.09732995      12.61826931       21       0.00370657      -0.00242553       0.00614059
O        4.73940312       3.54245970       4.71438486       22      -0.00370656       0.00242553       0.00614059
O        1.98491378       4.91722478      11.09338405       23      -0.00370656      -0.00242553      -0.00614059
O        3.89016839       2.95150951       9.89457796       24      -0.00059821       0.00195301      -0.00108462
O        1.13567905       5.50817497       5.91319095       25      -0.00059821      -0.00195301       0.00108462
O        1.61881030       0.13161469      13.81707540       26       0.00059821       0.00195301       0.00108462
O        4.37329964       2.68828014       1.99069350       27       0.00059821      -0.00195301      -0.00108462
O        1.61881030       2.68828014       5.91319095       28       0.00059821      -0.00195301       0.00108462
O        4.37329964       0.13161469       9.89457796       29       0.00059821       0.00195301      -0.00108462
O        3.89016839       5.50817497       1.99069350       30      -0.00059821      -0.00195301      -0.00108462
O        1.13567905       2.95150951      13.81707540       31      -0.00059821       0.00195301       0.00108462
O        3.56923664       3.69727409      14.97970497       32      -0.00620813       0.00006598       0.00418380
O        0.81474729       4.76241039       0.82806394       33      -0.00620813      -0.00006598      -0.00418380
O        1.93974205       0.87737926       8.73194839       34       0.00620813       0.00006598      -0.00418380
O        4.69423140       1.94251556       7.07582052       35       0.00620813      -0.00006598       0.00418380
O        1.93974205       1.94251556       0.82806394       36       0.00620813      -0.00006598      -0.00418380
O        4.69423140       0.87737926      14.97970497       37       0.00620813       0.00006598       0.00418380
O        3.56923664       4.76241039       7.07582052       38      -0.00620813      -0.00006598       0.00418380
O        0.81474729       3.69727409       8.73194839       39      -0.00620813       0.00006598      -0.00418380
