40
Lattice="5.810678711589873 1.909549713235368e-41 0.0 -2.020736802015984e-41 6.149016302542941 0.0 0.0 0.0 17.460963479533245" Properties=species:S:1:pos:R:3:spacegroup_kinds:I:1:forces:R:3 spacegroup="P 1" unit_cell=conventional occupancy="_JSON {\"0\": {\"In\": 1}, \"1\": {\"In\": 1}, \"2\": {\"In\": 1}, \"3\": {\"In\": 1}, \"4\": {\"In\": 1}, \"5\": {\"In\": 1}, \"6\": {\"In\": 1}, \"7\": {\"In\": 1}, \"8\": {\"In\": 1}, \"9\": {\"In\": 1}, \"10\": {\"In\": 1}, \"11\": {\"In\": 1}, \"12\": {\"In\": 1}, \"13\": {\"In\": 1}, \"14\": {\"In\": 1}, \"15\": {\"In\": 1}, \"16\": {\"O\": 1}, \"17\": {\"O\": 1}, \"18\": {\"O\": 1}, \"19\": {\"O\": 1}, \"20\": {\"O\": 1}, \"21\": {\"O\": 1}, \"22\": {\"O\": 1}, \"23\": {\"O\": 1}, \"24\": {\"O\": 1}, \"25\": {\"O\": 1}, \"26\": {\"O\": 1}, \"27\": {\"O\": 1}, \"28\": {\"O\": 1}, \"29\": {\"O\": 1}, \"30\": {\"O\": 1}, \"31\": {\"O\": 1}, \"32\": {\"O\": 1}, \"33\": {\"O\": 1}, \"34\": {\"O\": 1}, \"35\": {\"O\": 1}, \"36\": {\"O\": 1}, \"37\": {\"O\": 1}, \"38\": {\"O\": 1}, \"39\": {\"O\": 1}}" n_minim_iter=1 energy=-45149.28130196865 stress="0.028463995826384203 -5.670219827914883e-13 -6.597146384491798e-13 -5.670219827914883e-13 0.030035155660464725 1.037678791576107e-12 -6.597146384491798e-13 1.037678791576107e-12 0.03595997683061132" free_energy=-45149.28130196865 pbc="T T T"
In       2.84785381       5.08593904      10.11851550        0      -0.03815430       0.05751014       0.03868482
In      -0.05748555       4.13758541       7.34244798        1      -0.03815430      -0.05751014      -0.03868482
In       2.96282490       2.01143089      16.07292972        2       0.03815430       0.05751014      -0.03868482
In       5.86816426       1.06307726       1.38803376        3       0.03815430      -0.05751014       0.03868482
In       2.96282490       1.06307726       7.34244798        4       0.03815430      -0.05751014      -0.03868482
In       5.86816426       2.01143089      10.11851550        5       0.03815430       0.05751014       0.03868482
In       2.84785381       4.13758541       1.38803376        6      -0.03815430      -0.05751014       0.03868482
In      -0.05748555       5.08593904      16.07292972        7      -0.03815430       0.05751014      -0.03868482
In       2.81436193       4.71792447      14.19377116        8      -0.07332225      -0.03462710       0.05855198
In       5.71970129       4.50559998       3.26719232        9      -0.07332225       0.03462710      -0.05855198
In       2.99631678       1.64341632      11.99767406       10       0.07332225      -0.03462710      -0.05855198
In       0.09097742       1.43109183       5.46328942       11       0.07332225       0.03462710       0.05855198
In       2.99631678       1.43109183       3.26719232       12       0.07332225       0.03462710      -0.05855198
In       0.09097742       1.64341632      14.19377116       13       0.07332225      -0.03462710       0.05855198
In       2.81436193       4.50559998       5.46328942       14      -0.07332225       0.03462710       0.05855198
In       5.71970129       4.71792447      11.99767406       15      -0.07332225      -0.03462710      -0.05855198
O        4.94394990       5.52058978      13.92260922       16       0.07322733      -0.04131541       0.05684728
O        2.03861055       3.70293467       3.53835426       17       0.07322733       0.04131541      -0.05684728
O        0.86672881       2.44608163      12.26883600       18      -0.07322733      -0.04131541      -0.05684728
O        3.77206817       0.62842652       5.19212748       19      -0.07322733       0.04131541       0.05684728
O        0.86672881       0.62842652       3.53835426       20      -0.07322733       0.04131541      -0.05684728
O        3.77206817       2.44608163      13.92260922       21      -0.07322733      -0.04131541       0.05684728
O        4.94394990       3.70293467       5.19212748       22       0.07322733       0.04131541       0.05684728
O        2.03861055       5.52058978      12.26883600       23       0.07322733      -0.04131541      -0.05684728
O        4.06695729       3.45622063      11.08157744       24       0.02961587       0.07832962       0.00723327
O        1.16161793       5.76730383       6.37938604       25       0.02961587      -0.07832962      -0.00723327
O        1.74372143       0.38171248      15.10986778       26      -0.02961587       0.07832962      -0.00723327
O        4.64906078       2.69279568       2.35109570       27      -0.02961587      -0.07832962       0.00723327
O        1.74372143       2.69279568       6.37938604       28      -0.02961587      -0.07832962      -0.00723327
O        4.64906078       0.38171248      11.08157744       29      -0.02961587       0.07832962       0.00723327
O        4.06695729       5.76730383       2.35109570       30       0.02961587      -0.07832962       0.00723327
O        1.16161793       3.45622063      15.10986778       31       0.02961587       0.07832962      -0.00723327
O        3.69914958       4.22591932      16.40875285       32       0.06020331      -0.01089592      -0.05385526
O        0.79381023       4.99760514       1.05221063       33       0.06020331       0.01089592       0.05385526
O        2.11152913       1.15141117       9.78269237       34      -0.06020331      -0.01089592       0.05385526
O        5.01686848       1.92309698       7.67827111       35      -0.06020331       0.01089592      -0.05385526
O        2.11152913       1.92309698       1.05221063       36      -0.06020331       0.01089592       0.05385526
O        5.01686848       1.15141117      16.40875285       37      -0.06020331      -0.01089592      -0.05385526
O        3.69914958       4.99760514       7.67827111       38       0.06020331       0.01089592      -0.05385526
O        0.79381023       4.22591932       9.78269237       39       0.06020331      -0.01089592       0.05385526
40
Lattice="5.827460476651062 1.9064638889987615e-41 0.0 -2.0189469459358317e-41 6.157536997935014 0.0 0.0 0.0 17.38658725932507" Properties=species:S:1:pos:R:3:spacegroup_kinds:I:1:forces:R:3 spacegroup="P 1" unit_cell=conventional occupancy="_JSON {\"0\": {\"In\": 1}, \"1\": {\"In\": 1}, \"2\": {\"In\": 1}, \"3\": {\"In\": 1}, \"4\": {\"In\": 1}, \"5\": {\"In\": 1}, \"6\": {\"In\": 1}, \"7\": {\"In\": 1}, \"8\": {\"In\": 1}, \"9\": {\"In\": 1}, \"10\": {\"In\": 1}, \"11\": {\"In\": 1}, \"12\": {\"In\": 1}, \"13\": {\"In\": 1}, \"14\": {\"In\": 1}, \"15\": {\"In\": 1}, \"16\": {\"O\": 1}, \"17\": {\"O\": 1}, \"18\": {\"O\": 1}, \"19\": {\"O\": 1}, \"20\": {\"O\": 1}, \"21\": {\"O\": 1}, \"22\": {\"O\": 1}, \"23\": {\"O\": 1}, \"24\": {\"O\": 1}, \"25\": {\"O\": 1}, \"26\": {\"O\": 1}, \"27\": {\"O\": 1}, \"28\": {\"O\": 1}, \"29\": {\"O\": 1}, \"30\": {\"O\": 1}, \"31\": {\"O\": 1}, \"32\": {\"O\": 1}, \"33\": {\"O\": 1}, \"34\": {\"O\": 1}, \"35\": {\"O\": 1}, \"36\": {\"O\": 1}, \"37\": {\"O\": 1}, \"38\": {\"O\": 1}, \"39\": {\"O\": 1}}" n_minim_iter=2 energy=-45149.290594756334 stress="0.029416989931107723 1.2016548373124647e-12 -8.895924565121057e-13 1.2016548373124647e-12 0.03027832916945607 5.215533721445876e-13 -8.895924565121057e-13 5.215533721445876e-13 0.029362253761099008" free_energy=-45149.290594756334 pbc="T T T"
In       2.85602014       5.09307471      10.07547387        0      -0.04487901       0.04167467       0.05074299
In      -0.05771009       4.14323079       7.31111339        1      -0.04487901      -0.04167467      -0.05074299
In       2.97144033       2.01430621      16.00440702        2       0.04487902       0.04167467      -0.05074299
In       5.88517057       1.06446229       1.38218024        3       0.04487901      -0.04167467       0.05074299
In       2.97144033       1.06446229       7.31111339        4       0.04487901      -0.04167467      -0.05074299
In       5.88517057       2.01430621      10.07547387        5       0.04487901       0.04167467       0.05074299
In       2.85602014       4.14323079       1.38218024        6      -0.04487901      -0.04167467       0.05074299
In      -0.05771009       5.09307471      16.00440702        7      -0.04487901       0.04167467      -0.05074299
In       2.82237760       4.72440907      14.13340095        8      -0.06690434      -0.03944622       0.07811810
In       5.73610784       4.51189643       3.25318631        9      -0.06690434       0.03944622      -0.07811810
In       3.00508288       1.64564057      11.94647994       10       0.06690434      -0.03944622      -0.07811810
In       0.09135264       1.43312793       5.44010732       11       0.06690434       0.03944622       0.07811810
In       3.00508288       1.43312793       3.25318631       12       0.06690434       0.03944622      -0.07811810
In       0.09135264       1.64564057      14.13340095       13       0.06690434      -0.03944622       0.07811810
In       2.82237760       4.51189643       5.44010732       14      -0.06690434       0.03944622       0.07811810
In       5.73610784       4.72440907      11.94647994       15      -0.06690434      -0.03944622      -0.07811810
O        4.95834080       5.52817639      13.86339145       16       0.07470142      -0.04993732       0.06220195
O        2.04461056       3.70812911       3.52319581       17       0.07470142       0.04993732      -0.06220195
O        0.86911968       2.44940789      12.21648944       18      -0.07470142      -0.04993732      -0.06220195
O        3.78284992       0.62936061       5.17009782       19      -0.07470142       0.04993732       0.06220195
O        0.86911968       0.62936061       3.52319581       20      -0.07470142       0.04993732      -0.06220195
O        3.78284992       2.44940789      13.86339145       21      -0.07470142      -0.04993732       0.06220195
O        4.95834080       3.70812911       5.17009782       22       0.07470142       0.04993732       0.06220195
O        2.04461056       5.52817639      12.21648944       23       0.07470142      -0.04993732      -0.06220195
O        4.07874845       3.46112988      11.03438569       24       0.01699288       0.08980053       0.02201595
O        1.16501821       5.77517562       6.35220157       25       0.01699288      -0.08980053      -0.02201595
O        1.74871202       0.38236138      15.04549520       26      -0.01699288       0.08980053      -0.02201595
O        4.66244226       2.69640712       2.34109206       27      -0.01699288      -0.08980053       0.02201595
O        1.74871202       2.69640712       6.35220157       28      -0.01699288      -0.08980053      -0.02201595
O        4.66244226       0.38236138      11.03438569       29      -0.01699288       0.08980053       0.02201595
O        4.07874845       5.77517562       2.34109206       30       0.01699288      -0.08980053       0.02201595
O        1.16501821       3.46112988      15.04549520       31       0.01699288       0.08980053      -0.02201595
O        3.70992540       4.23175849      16.33877658       32       0.06779771      -0.00220413      -0.03748531
O        0.79619517       5.00454701       1.04781068       33       0.06779771       0.00220413       0.03748531
O        2.11753507       1.15298999       9.74110431       34      -0.06779771      -0.00220413       0.03748531
O        5.03126531       1.92577851       7.64548295       35      -0.06779771       0.00220413      -0.03748531
O        2.11753507       1.92577851       1.04781068       36      -0.06779771       0.00220413       0.03748531
O        5.03126531       1.15298999      16.33877658       37      -0.06779771      -0.00220413      -0.03748531
O        3.70992540       5.00454701       7.64548295       38       0.06779771       0.00220413      -0.03748531
O        0.79619517       4.23175849       9.74110431       39       0.06779771      -0.00220413       0.03748531
40
Lattice="5.835845876135355 1.9214720116751834e-41 0.0 -2.0182202244469875e-41 6.147781434745583 0.0 0.0 0.0 17.389154990837582" Properties=species:S:1:pos:R:3:spacegroup_kinds:I:1:forces:R:3 spacegroup="P 1" unit_cell=conventional occupancy="_JSON {\"0\": {\"In\": 1}, \"1\": {\"In\": 1}, \"2\": {\"In\": 1}, \"3\": {\"In\": 1}, \"4\": {\"In\": 1}, \"5\": {\"In\": 1}, \"6\": {\"In\": 1}, \"7\": {\"In\": 1}, \"8\": {\"In\": 1}, \"9\": {\"In\": 1}, \"10\": {\"In\": 1}, \"11\": {\"In\": 1}, \"12\": {\"In\": 1}, \"13\": {\"In\": 1}, \"14\": {\"In\": 1}, \"15\": {\"In\": 1}, \"16\": {\"O\": 1}, \"17\": {\"O\": 1}, \"18\": {\"O\": 1}, \"19\": {\"O\": 1}, \"20\": {\"O\": 1}, \"21\": {\"O\": 1}, \"22\": {\"O\": 1}, \"23\": {\"O\": 1}, \"24\": {\"O\": 1}, \"25\": {\"O\": 1}, \"26\": {\"O\": 1}, \"27\": {\"O\": 1}, \"28\": {\"O\": 1}, \"29\": {\"O\": 1}, \"30\": {\"O\": 1}, \"31\": {\"O\": 1}, \"32\": {\"O\": 1}, \"33\": {\"O\": 1}, \"34\": {\"O\": 1}, \"35\": {\"O\": 1}, \"36\": {\"O\": 1}, \"37\": {\"O\": 1}, \"38\": {\"O\": 1}, \"39\": {\"O\": 1}}" n_minim_iter=3 energy=-45149.29199182623 stress="0.030178502777385527 1.1051327294843516e-12 -1.1558503593704603e-12 1.1051327294843516e-12 0.028270902145400283 -1.5744272948652936e-12 -1.1558503593704603e-12 -1.5744272948652936e-12 0.029323252529619228" free_energy=-45149.29199182623 pbc="T T T"
In       2.85988927       5.08523454      10.07722832        0      -0.05030971       0.03991525       0.05077038
In      -0.05803367       4.13643761       7.31192667        1      -0.05030971      -0.03991525      -0.05077038
In       2.97595660       2.01134382      16.00650416        2       0.05030971       0.03991525      -0.05077038
In       5.89387954       1.06254689       1.38265083        3       0.05030971      -0.03991525       0.05077038
In       2.97595660       1.06254689       7.31192667        4       0.05030971      -0.03991525      -0.05077038
In       5.89387954       2.01134382      10.07722832        5       0.05030971       0.03991525       0.05077038
In       2.85988927       4.13643761       1.38265083        6      -0.05030971      -0.03991525       0.05077038
In      -0.05803367       5.08523454      16.00650416        7      -0.05030971       0.03991525      -0.05077038
In       2.82607511       4.71671355      14.13589813        8      -0.05494924      -0.04263859       0.06857521
In       5.74399804       4.50495860       3.25325686        9      -0.05494924       0.04263859      -0.06857521
In       3.00977077       1.64282284      11.94783436       10       0.05494924      -0.04263859      -0.06857521
In       0.09184783       1.43106788       5.44132063       11       0.05494924       0.04263859       0.06857521
In       3.00977077       1.43106788       3.25325686       12       0.05494924       0.04263859      -0.06857521
In       0.09184783       1.64282284      14.13589813       13       0.05494924      -0.04263859       0.06857521
In       2.82607511       4.50495860       5.44132063       14      -0.05494924       0.04263859       0.06857521
In       5.74399804       4.71671355      11.94783436       15      -0.05494924      -0.04263859      -0.06857521
O        4.96587900       5.51915224      13.86576843       16       0.07227140      -0.03590315       0.06374589
O        2.04795606       3.70251991       3.52338657       17       0.07227140       0.03590315      -0.06374589
O        0.86996688       2.44526153      12.21796406       18      -0.07227140      -0.03590315      -0.06374589
O        3.78788982       0.62862919       5.17119093       19      -0.07227140       0.03590315       0.06374589
O        0.86996688       0.62862919       3.52338657       20      -0.07227140       0.03590315      -0.06374589
O        3.78788982       2.44526153      13.86576843       21      -0.07227140      -0.03590315       0.06374589
O        4.96587900       3.70251991       5.17119093       22       0.07227140       0.03590315       0.06374589
O        2.04795606       5.51915224      12.21796406       23       0.07227140      -0.03590315      -0.06374589
O        4.08471339       3.45612537      11.03612793       24       0.01455309       0.08093878       0.01169807
O        1.16679045       5.76554678       6.35302706       25       0.01455309      -0.08093878      -0.01169807
O        1.75113249       0.38223465      15.04760456       26      -0.01455309       0.08093878      -0.01169807
O        4.66905543       2.69165607       2.34155043       27      -0.01455309      -0.08093878       0.01169807
O        1.75113249       2.69165607       6.35302706       28      -0.01455309      -0.08093878      -0.01169807
O        4.66905543       0.38223465      11.03612793       29      -0.01455309       0.08093878       0.01169807
O        4.08471339       5.76554678       2.34155043       30       0.01455309      -0.08093878       0.01169807
O        1.16679045       3.45612537      15.04760456       31       0.01455309       0.08093878      -0.01169807
O        3.71562795       4.22503943      16.34098485       32       0.07509663       0.00103350      -0.03217742
O        0.79770502       4.99663272       1.04817014       33       0.07509663      -0.00103350       0.03217742
O        2.12021792       1.15114871       9.74274763       34      -0.07509663       0.00103350       0.03217742
O        5.03814086       1.92274201       7.64640736       35      -0.07509663      -0.00103350      -0.03217742
O        2.12021792       1.92274201       1.04817014       36      -0.07509663      -0.00103350       0.03217742
O        5.03814086       1.15114871      16.34098485       37      -0.07509663       0.00103350      -0.03217742
O        3.71562795       4.99663272       7.64640736       38       0.07509663      -0.00103350      -0.03217742
O        0.79770502       4.22503943       9.74274763       39       0.07509663       0.00103350       0.03217742
40
Lattice="5.830581882350724 1.872782649657469e-41 0.0 -1.9713960640150283e-41 6.154687074592808 0.0 0.0 0.0 17.385325875306165" Properties=species:S:1:pos:R:3:spacegroup_kinds:I:1:forces:R:3 spacegroup="P 1" unit_cell=conventional occupancy="_JSON {\"0\": {\"In\": 1}, \"1\": {\"In\": 1}, \"2\": {\"In\": 1}, \"3\": {\"In\": 1}, \"4\": {\"In\": 1}, \"5\": {\"In\": 1}, \"6\": {\"In\": 1}, \"7\": {\"In\": 1}, \"8\": {\"In\": 1}, \"9\": {\"In\": 1}, \"10\": {\"In\": 1}, \"11\": {\"In\": 1}, \"12\": {\"In\": 1}, \"13\": {\"In\": 1}, \"14\": {\"In\": 1}, \"15\": {\"In\": 1}, \"16\": {\"O\": 1}, \"17\": {\"O\": 1}, \"18\": {\"O\": 1}, \"19\": {\"O\": 1}, \"20\": {\"O\": 1}, \"21\": {\"O\": 1}, \"22\": {\"O\": 1}, \"23\": {\"O\": 1}, \"24\": {\"O\": 1}, \"25\": {\"O\": 1}, \"26\": {\"O\": 1}, \"27\": {\"O\": 1}, \"28\": {\"O\": 1}, \"29\": {\"O\": 1}, \"30\": {\"O\": 1}, \"31\": {\"O\": 1}, \"32\": {\"O\": 1}, \"33\": {\"O\": 1}, \"34\": {\"O\": 1}, \"35\": {\"O\": 1}, \"36\": {\"O\": 1}, \"37\": {\"O\": 1}, \"38\": {\"O\": 1}, \"39\": {\"O\": 1}}" n_minim_iter=4 energy=-45149.30763830725 stress="0.026931067568561843 1.0465935446406883e-13 2.1132123342475132e-16 1.0465935446406883e-13 0.027064163399048897 1.1343965161333562e-12 2.1132123342475132e-16 1.1343965161333562e-12 0.027524050711129743" free_energy=-45149.30763830725 pbc="T T T"
In       2.85305746       5.09475086      10.07954375        0      -0.04205931      -0.00685842       0.00666382
In      -0.06223349       4.13727975       7.30578213        1      -0.04205931       0.00685842      -0.00666382
In       2.97752443       2.01740732      15.99844506        2       0.04205931      -0.00685842      -0.00666382
In       5.89281537       1.05993621       1.38688081        3       0.04205931       0.00685842       0.00666382
In       2.97752443       1.05993621       7.30578213        4       0.04205931       0.00685842      -0.00666382
In       5.89281537       2.01740732      10.07954375        5       0.04205931      -0.00685842       0.00666382
In       2.85305746       4.13727975       1.38688081        6      -0.04205931       0.00685842       0.00666382
In      -0.06223349       5.09475086      15.99844506        7      -0.04205931      -0.00685842      -0.00666382
In       2.81774023       4.71833715      14.13947309        8       0.00643243       0.03885189      -0.03599996
In       5.73303117       4.51369346       3.24585278        9       0.00643243      -0.03885189       0.03599996
In       3.01284166       1.64099361      11.93851572       10      -0.00643243       0.03885189       0.03599996
In       0.09755071       1.43634992       5.44681015       11      -0.00643243      -0.03885189      -0.03599996
In       3.01284166       1.43634992       3.24585278       12      -0.00643243      -0.03885189       0.03599996
In       0.09755071       1.64099361      14.13947309       13      -0.00643243       0.03885189      -0.03599996
In       2.81774023       4.51369346       5.44681015       14       0.00643243      -0.03885189      -0.03599996
In       5.73303117       4.71833715      11.93851572       15       0.00643243       0.03885189       0.03599996
O        4.96816218       5.52125990      13.86835429       16       0.01328769      -0.02203052      -0.05028796
O        2.05287124       3.71077072       3.51697158       17       0.01328769       0.02203052       0.05028796
O        0.86241970       2.44391636      12.20963452       18      -0.01328769      -0.02203052       0.05028796
O        3.77771065       0.63342718       5.17569136       19      -0.01328769       0.02203052      -0.05028796
O        0.86241970       0.63342718       3.51697158       20      -0.01328769       0.02203052       0.05028796
O        3.77771065       2.44391636      13.86835429       21      -0.01328769      -0.02203052      -0.05028796
O        4.96816218       3.71077072       5.17569136       22       0.01328769       0.02203052      -0.05028796
O        2.05287124       5.52125990      12.20963452       23       0.01328769      -0.02203052       0.05028796
O        4.08255801       3.46787966      11.03531780       24      -0.01456793       0.02163217      -0.00426041
O        1.16726707       5.76415095       6.35000807       25      -0.01456793      -0.02163217       0.00426041
O        1.74802387       0.39053613      15.04267101       26       0.01456793       0.02163217       0.00426041
O        4.66331481       2.68680741       2.34265486       27       0.01456793      -0.02163217      -0.00426041
O        1.74802387       2.68680741       6.35000807       28       0.01456793      -0.02163217       0.00426041
O        4.66331481       0.39053613      11.03531780       29       0.01456793       0.02163217      -0.00426041
O        4.08255801       5.76415095       2.34265486       30      -0.01456793      -0.02163217      -0.00426041
O        1.16726707       3.46787966      15.04267101       31      -0.01456793       0.02163217       0.00426041
O        3.71868194       4.22965046      16.33410345       32       0.01999374      -0.01005020       0.00293293
O        0.80339100       5.00238015       1.05122242       33       0.01999374       0.01005020      -0.00293293
O        2.11189994       1.15230693       9.74388536       34      -0.01999374      -0.01005020      -0.00293293
O        5.02719089       1.92503661       7.64144051       35      -0.01999374       0.01005020       0.00293293
O        2.11189994       1.92503661       1.05122242       36      -0.01999374       0.01005020      -0.00293293
O        5.02719089       1.15230693      16.33410345       37      -0.01999374      -0.01005020       0.00293293
O        3.71868194       5.00238015       7.64144051       38       0.01999374       0.01005020       0.00293293
O        0.80339100       4.22965046       9.74388536       39       0.01999374      -0.01005020      -0.00293293
40
Lattice="5.836933864519789 1.8790429749624206e-41 0.0 -1.976940615043589e-41 6.157046153893267 0.0 0.0 0.0 17.3597525178624" Properties=species:S:1:pos:R:3:spacegroup_kinds:I:1:forces:R:3 spacegroup="P 1" unit_cell=conventional occupancy="_JSON {\"0\": {\"In\": 1}, \"1\": {\"In\": 1}, \"2\": {\"In\": 1}, \"3\": {\"In\": 1}, \"4\": {\"In\": 1}, \"5\": {\"In\": 1}, \"6\": {\"In\": 1}, \"7\": {\"In\": 1}, \"8\": {\"In\": 1}, \"9\": {\"In\": 1}, \"10\": {\"In\": 1}, \"11\": {\"In\": 1}, \"12\": {\"In\": 1}, \"13\": {\"In\": 1}, \"14\": {\"In\": 1}, \"15\": {\"In\": 1}, \"16\": {\"O\": 1}, \"17\": {\"O\": 1}, \"18\": {\"O\": 1}, \"19\": {\"O\": 1}, \"20\": {\"O\": 1}, \"21\": {\"O\": 1}, \"22\": {\"O\": 1}, \"23\": {\"O\": 1}, \"24\": {\"O\": 1}, \"25\": {\"O\": 1}, \"26\": {\"O\": 1}, \"27\": {\"O\": 1}, \"28\": {\"O\": 1}, \"29\": {\"O\": 1}, \"30\": {\"O\": 1}, \"31\": {\"O\": 1}, \"32\": {\"O\": 1}, \"33\": {\"O\": 1}, \"34\": {\"O\": 1}, \"35\": {\"O\": 1}, \"36\": {\"O\": 1}, \"37\": {\"O\": 1}, \"38\": {\"O\": 1}, \"39\": {\"O\": 1}}" n_minim_iter=5 energy=-45149.3101313121 stress="0.027197428949533062 -8.148786999734305e-14 -5.565264356791966e-13 -8.148786999734305e-14 0.026708504281814552 8.841437053408051e-13 -5.565264356791966e-13 8.841437053408051e-13 0.025204912868963328" free_energy=-45149.3101313121 pbc="T T T"
In       2.85299572       5.09653703      10.06561063        0      -0.02278904      -0.00020020       0.00786930
In      -0.06547121       4.13903220       7.29414189        1      -0.02278904       0.00020020      -0.00786930
In       2.98393814       2.01801396      15.97401815        2       0.02278904      -0.00020020      -0.00786930
In       5.90240507       1.06050912       1.38573437        3       0.02278904       0.00020020       0.00786930
In       2.98393814       1.06050912       7.29414189        4       0.02278904       0.00020020      -0.00786930
In       5.90240507       2.01801396      10.06561063        5       0.02278904      -0.00020020       0.00786930
In       2.85299572       4.13903220       1.38573437        6      -0.02278904       0.00020020       0.00786930
In      -0.06547121       5.09653703      15.97401815        7      -0.02278904      -0.00020020      -0.00786930
In       2.82074225       4.72229974      14.11705300        8      -0.00352732       0.01787737       0.00868220
In       5.73920919       4.51326950       3.24269952        9      -0.00352732      -0.01787737      -0.00868220
In       3.01619161       1.64377666      11.92257578       10       0.00352732       0.01787737      -0.00868220
In       0.09772468       1.43474642       5.43717674       11       0.00352732      -0.01787737       0.00868220
In       3.01619161       1.43474642       3.24269952       12       0.00352732      -0.01787737      -0.00868220
In       0.09772468       1.64377666      14.11705300       13       0.00352732       0.01787737       0.00868220
In       2.82074225       4.51326950       5.43717674       14      -0.00352732      -0.01787737       0.00868220
In       5.73920919       4.72229974      11.92257578       15      -0.00352732       0.01787737      -0.00868220
O        4.97506605       5.52155568      13.84527725       16      -0.00196218      -0.00108441      -0.00974947
O        2.05659912       3.71401355       3.51447527       17      -0.00196218       0.00108441       0.00974947
O        0.86186781       2.44303260      12.19435153       18       0.00196218      -0.00108441       0.00974947
O        3.78033475       0.63549047       5.16540099       19       0.00196218       0.00108441      -0.00974947
O        0.86186781       0.63549047       3.51447527       20       0.00196218       0.00108441       0.00974947
O        3.78033475       2.44303260      13.84527725       21       0.00196218      -0.00108441      -0.00974947
O        4.97506605       3.71401355       5.16540099       22      -0.00196218       0.00108441      -0.00974947
O        2.05659912       5.52155568      12.19435153       23      -0.00196218      -0.00108441       0.00974947
O        4.08613813       3.47137102      11.01900969       24       0.00142754       0.01777096       0.00466548
O        1.16767120       5.76419821       6.34074283       25       0.00142754      -0.01777096      -0.00466548
O        1.75079573       0.39284794      15.02061909       26      -0.00142754       0.01777096      -0.00466548
O        4.66926267       2.68567513       2.33913343       27      -0.00142754      -0.01777096       0.00466548
O        1.75079573       2.68567513       6.34074283       28      -0.00142754      -0.01777096      -0.00466548
O        4.66926267       0.39284794      11.01900969       29      -0.00142754       0.01777096       0.00466548
O        4.08613813       5.76419821       2.33913343       30       0.00142754      -0.01777096       0.00466548
O        1.16767120       3.47137102      15.02061909       31       0.00142754       0.01777096      -0.00466548
O        3.72466999       4.23065083      16.31004259       32       0.00847724      -0.01330179       0.00072358
O        0.80620306       5.00491840       1.04970993       33       0.00847724       0.01330179      -0.00072358
O        2.11226388       1.15212775       9.72958619       34      -0.00847724      -0.01330179      -0.00072358
O        5.03073081       1.92639533       7.63016633       35      -0.00847724       0.01330179       0.00072358
O        2.11226388       1.92639533       1.04970993       36      -0.00847724       0.01330179      -0.00072358
O        5.03073081       1.15212775      16.31004259       37      -0.00847724      -0.01330179       0.00072358
O        3.72466999       5.00491840       7.63016633       38       0.00847724       0.01330179       0.00072358
O        0.80620306       4.23065083       9.72958619       39       0.00847724      -0.01330179      -0.00072358
40