40
Lattice="5.902332632003882 9.934704790373841e-42 0.0 -1.1993897084981992e-41 6.757357947280293 0.0 0.0 0.0 16.640725317075358" Properties=species:S:1:pos:R:3:spacegroup_kinds:I:1:forces:R:3 spacegroup="P 1" unit_cell=conventional occupancy="_JSON {\"0\": {\"In\": 1}, \"1\": {\"In\": 1}, \"2\": {\"In\": 1}, \"3\": {\"In\": 1}, \"4\": {\"In\": 1}, \"5\": {\"In\": 1}, \"6\": {\"In\": 1}, \"7\": {\"In\": 1}, \"8\": {\"In\": 1}, \"9\": {\"In\": 1}, \"10\": {\"In\": 1}, \"11\": {\"In\": 1}, \"12\": {\"In\": 1}, \"13\": {\"In\": 1}, \"14\": {\"In\": 1}, \"15\": {\"In\": 1}, \"16\": {\"O\": 1}, \"17\": {\"O\": 1}, \"18\": {\"O\": 1}, \"19\": {\"O\": 1}, \"20\": {\"O\": 1}, \"21\": {\"O\": 1}, \"22\": {\"O\": 1}, \"23\": {\"O\": 1}, \"24\": {\"O\": 1}, \"25\": {\"O\": 1}, \"26\": {\"O\": 1}, \"27\": {\"O\": 1}, \"28\": {\"O\": 1}, \"29\": {\"O\": 1}, \"30\": {\"O\": 1}, \"31\": {\"O\": 1}, \"32\": {\"O\": 1}, \"33\": {\"O\": 1}, \"34\": {\"O\": 1}, \"35\": {\"O\": 1}, \"36\": {\"O\": 1}, \"37\": {\"O\": 1}, \"38\": {\"O\": 1}, \"39\": {\"O\": 1}}" n_minim_iter=12 energy=-45152.17150544574 stress="-0.038189281576380435 1.407841640992931e-12 5.158347784394609e-13 1.407841640992931e-12 -0.03829138520913044 9.503431131698022e-13 5.158347784394609e-13 9.503431131698022e-13 -0.038284286019297134" free_energy=-45152.17150544574 pbc="T T T"
In       2.78711592       5.61373406       9.59835157        0      -0.00325372       0.00124909       0.00364980
In      -0.16405039       4.52230286       7.04237375        1      -0.00325372      -0.00124909      -0.00364980
In       3.11521671       2.23505509      15.36273641        2       0.00325372       0.00124909      -0.00364980
In       6.06638302       1.14362389       1.27798891        3       0.00325372      -0.00124909       0.00364980
In       3.11521671       1.14362389       7.04237375        4       0.00325372      -0.00124909      -0.00364980
In       6.06638302       2.23505509       9.59835157        5       0.00325372       0.00124909       0.00364980
In       2.78711592       4.52230286       1.27798891        6      -0.00325372      -0.00124909       0.00364980
In      -0.16405039       5.61373406      15.36273641        7      -0.00325372       0.00124909      -0.00364980
In       2.83078507       5.07546605      13.33864120        8      -0.00408146      -0.00113618      -0.00038358
In       5.78195138       5.06057087       3.30208412        9      -0.00408146       0.00113618       0.00038358
In       3.07154756       1.69678707      11.62244678       10       0.00408146      -0.00113618       0.00038358
In       0.12038125       1.68189190       5.01827854       11       0.00408146       0.00113618      -0.00038358
In       3.07154756       1.68189190       3.30208412       12       0.00408146       0.00113618       0.00038358
In       0.12038125       1.69678707      13.33864120       13       0.00408146      -0.00113618      -0.00038358
In       2.83078507       5.06057087       5.01827854       14      -0.00408146       0.00113618      -0.00038358
In       5.78195138       5.07546605      11.62244678       15      -0.00408146      -0.00113618       0.00038358
O        4.81892098       5.91379960      13.37195977       16       0.00138029      -0.00391760       0.00805512
O        1.86775467       4.22223732       3.26876555       17       0.00138029       0.00391760      -0.00805512
O        1.08341165       2.53512063      11.58912820       18      -0.00138029      -0.00391760      -0.00805512
O        4.03457797       0.84355834       5.05159711       19      -0.00138029       0.00391760       0.00805512
O        1.08341165       0.84355834       3.26876555       20      -0.00138029       0.00391760      -0.00805512
O        4.03457797       2.53512063      13.37195977       21      -0.00138029      -0.00391760       0.00805512
O        4.81892098       4.22223732       5.05159711       22       0.00138029       0.00391760       0.00805512
O        1.86775467       5.91379960      11.58912820       23       0.00138029      -0.00391760      -0.00805512
O        4.10063314       4.23860665      10.68511250       24      -0.00558971      -0.00720895       0.00010772
O        1.14946682       5.89743027       5.95561282       25      -0.00558971       0.00720895      -0.00010772
O        1.80169950       0.85992768      14.27597548       26       0.00558971      -0.00720895      -0.00010772
O        4.75286581       2.51875129       2.36474984       27       0.00558971       0.00720895       0.00010772
O        1.80169950       2.51875129       5.95561282       28       0.00558971       0.00720895      -0.00010772
O        4.75286581       0.85992768      10.68511250       29       0.00558971      -0.00720895       0.00010772
O        4.10063314       5.89743027       2.36474984       30      -0.00558971       0.00720895       0.00010772
O        1.14946682       4.23860665      14.27597548       31      -0.00558971      -0.00720895      -0.00010772
O        3.80018062       4.27657108      15.99915034       32       0.00207502      -0.00360026       0.00036568
O        0.84901431       5.85946584       0.64157498       33       0.00207502       0.00360026      -0.00036568
O        2.10215201       0.89789211       8.96193764       34      -0.00207502      -0.00360026      -0.00036568
O        5.05331832       2.48078686       7.67878768       35      -0.00207502       0.00360026       0.00036568
O        2.10215201       2.48078686       0.64157498       36      -0.00207502       0.00360026      -0.00036568
O        5.05331832       0.89789211      15.99915034       37      -0.00207502      -0.00360026       0.00036568
O        3.80018062       5.85946584       7.67878768       38       0.00207502       0.00360026       0.00036568
O        0.84901431       4.27657108       8.96193764       39       0.00207502      -0.00360026      -0.00036568
