40
Lattice="5.536428300509847 8.971857107069093e-42 0.0 -2.186369909080242e-41 5.708904174846023 0.0 0.0 0.0 15.958939069040198" Properties=species:S:1:pos:R:3:spacegroup_kinds:I:1:forces:R:3 spacegroup="P 1" unit_cell=conventional occupancy="_JSON {\"0\": {\"In\": 1}, \"1\": {\"In\": 1}, \"2\": {\"In\": 1}, \"3\": {\"In\": 1}, \"4\": {\"In\": 1}, \"5\": {\"In\": 1}, \"6\": {\"In\": 1}, \"7\": {\"In\": 1}, \"8\": {\"In\": 1}, \"9\": {\"In\": 1}, \"10\": {\"In\": 1}, \"11\": {\"In\": 1}, \"12\": {\"In\": 1}, \"13\": {\"In\": 1}, \"14\": {\"In\": 1}, \"15\": {\"In\": 1}, \"16\": {\"O\": 1}, \"17\": {\"O\": 1}, \"18\": {\"O\": 1}, \"19\": {\"O\": 1}, \"20\": {\"O\": 1}, \"21\": {\"O\": 1}, \"22\": {\"O\": 1}, \"23\": {\"O\": 1}, \"24\": {\"O\": 1}, \"25\": {\"O\": 1}, \"26\": {\"O\": 1}, \"27\": {\"O\": 1}, \"28\": {\"O\": 1}, \"29\": {\"O\": 1}, \"30\": {\"O\": 1}, \"31\": {\"O\": 1}, \"32\": {\"O\": 1}, \"33\": {\"O\": 1}, \"34\": {\"O\": 1}, \"35\": {\"O\": 1}, \"36\": {\"O\": 1}, \"37\": {\"O\": 1}, \"38\": {\"O\": 1}, \"39\": {\"O\": 1}}" n_minim_iter=15 energy=-45150.28744702091 stress="-0.0013880055697295653 2.4761311610252037e-12 5.716440969159193e-13 2.4761311610252037e-12 -0.0013855746501985002 8.044597247250748e-13 5.716440969159193e-13 8.044597247250748e-13 -0.001390198923545297" free_energy=-45150.28744702091 pbc="T T T"
In       2.77074320       4.55354230       9.10789249        0      -0.00037438      -0.00448022       0.00047841
In       0.00252905       4.00981396       6.85104658        1      -0.00037438       0.00448022      -0.00047841
In       2.76568510       1.69909021      14.83051611        2       0.00037438      -0.00448022      -0.00047841
In       5.53389925       1.15536187       1.12842296        3       0.00037438       0.00448022       0.00047841
In       2.76568510       1.15536187       6.85104658        4       0.00037438       0.00448022      -0.00047841
In       5.53389925       1.69909021       9.10789249        5       0.00037438      -0.00448022       0.00047841
In       2.77074320       4.00981396       1.12842296        6      -0.00037438       0.00448022       0.00047841
In       0.00252905       4.55354230      14.83051611        7      -0.00037438      -0.00448022      -0.00047841
In       2.75713763       4.25476034      13.05091297        8      -0.00090743       0.00267807       0.00578854
In       5.52535178       4.30859592       2.90802610        9      -0.00090743      -0.00267807      -0.00578854
In       2.77929067       1.40030825      10.88749563       10       0.00090743       0.00267807      -0.00578854
In       0.01107652       1.45414383       5.07144344       11       0.00090743      -0.00267807       0.00578854
In       2.77929067       1.45414383       2.90802610       12       0.00090743      -0.00267807      -0.00578854
In       0.01107652       1.40030825      13.05091297       13       0.00090743       0.00267807       0.00578854
In       2.75713763       4.30859592       5.07144344       14      -0.00090743      -0.00267807       0.00578854
In       5.52535178       4.25476034      10.88749563       15      -0.00090743       0.00267807      -0.00578854
O        4.75625511       5.02086591      12.74266511       16      -0.00142968      -0.00223936       0.00173805
O        1.98804096       3.54249035       3.21627396       17      -0.00142968       0.00223936      -0.00173805
O        0.78017319       2.16641383      11.19574349       18       0.00142968      -0.00223936      -0.00173805
O        3.54838734       0.68803826       4.76319558       19       0.00142968       0.00223936       0.00173805
O        0.78017319       0.68803826       3.21627396       20       0.00142968       0.00223936      -0.00173805
O        3.54838734       2.16641383      12.74266511       21       0.00142968      -0.00223936       0.00173805
O        4.75625511       3.54249035       4.76319558       22      -0.00142968       0.00223936       0.00173805
O        1.98804096       5.02086591      11.19574349       23      -0.00142968      -0.00223936      -0.00173805
O        3.91229437       3.00043954       9.97494204       24      -0.00335770       0.00160453       0.00115033
O        1.14408022       5.56291672       5.98399703       25      -0.00335770      -0.00160453      -0.00115033
O        1.62413393       0.14598746      13.96346657       26       0.00335770       0.00160453      -0.00115033
O        4.39234808       2.70846463       1.99547250       27       0.00335770      -0.00160453       0.00115033
O        1.62413393       2.70846463       5.98399703       28       0.00335770      -0.00160453      -0.00115033
O        4.39234808       0.14598746       9.97494204       29       0.00335770       0.00160453       0.00115033
O        3.91229437       5.56291672       1.99547250       30      -0.00335770      -0.00160453       0.00115033
O        1.14408022       3.00043954      13.96346657       31      -0.00335770       0.00160453      -0.00115033
O        3.58098414       3.76052894      15.12036162       32       0.00691438       0.00158537      -0.00085810
O        0.81276999       4.80282732       0.83857744       33       0.00691438      -0.00158537       0.00085810
O        1.95544416       0.90607686       8.81804698       34      -0.00691438       0.00158537       0.00085810
O        4.72365831       1.94837523       7.14089209       35      -0.00691438      -0.00158537      -0.00085810
O        1.95544416       1.94837523       0.83857744       36      -0.00691438      -0.00158537       0.00085810
O        4.72365831       0.90607686      15.12036162       37      -0.00691438       0.00158537      -0.00085810
O        3.58098414       4.80282732       7.14089209       38       0.00691438      -0.00158537      -0.00085810
O        0.81276999       3.76052894       8.81804698       39       0.00691438       0.00158537       0.00085810
