40
Lattice="5.508978691568485 1.182018557851327e-41 0.0 -1.2100856447237745e-41 5.639789652604312 0.0 0.0 0.0 15.807768908995355" Properties=species:S:1:pos:R:3:spacegroup_kinds:I:1:forces:R:3 spacegroup="P 1" unit_cell=conventional occupancy="_JSON {\"0\": {\"In\": 1}, \"1\": {\"In\": 1}, \"2\": {\"In\": 1}, \"3\": {\"In\": 1}, \"4\": {\"In\": 1}, \"5\": {\"In\": 1}, \"6\": {\"In\": 1}, \"7\": {\"In\": 1}, \"8\": {\"In\": 1}, \"9\": {\"In\": 1}, \"10\": {\"In\": 1}, \"11\": {\"In\": 1}, \"12\": {\"In\": 1}, \"13\": {\"In\": 1}, \"14\": {\"In\": 1}, \"15\": {\"In\": 1}, \"16\": {\"O\": 1}, \"17\": {\"O\": 1}, \"18\": {\"O\": 1}, \"19\": {\"O\": 1}, \"20\": {\"O\": 1}, \"21\": {\"O\": 1}, \"22\": {\"O\": 1}, \"23\": {\"O\": 1}, \"24\": {\"O\": 1}, \"25\": {\"O\": 1}, \"26\": {\"O\": 1}, \"27\": {\"O\": 1}, \"28\": {\"O\": 1}, \"29\": {\"O\": 1}, \"30\": {\"O\": 1}, \"31\": {\"O\": 1}, \"32\": {\"O\": 1}, \"33\": {\"O\": 1}, \"34\": {\"O\": 1}, \"35\": {\"O\": 1}, \"36\": {\"O\": 1}, \"37\": {\"O\": 1}, \"38\": {\"O\": 1}, \"39\": {\"O\": 1}}" n_minim_iter=1 energy=-45150.19476611525 stress="-0.008196296889853313 5.492025767952569e-13 -4.5380770031371385e-13 5.492025767952569e-13 -0.0030562851473169726 -2.389374839869736e-12 -4.5380770031371385e-13 -2.389374839869736e-12 -0.007492720578114293" free_energy=-45150.19476611525 pbc="T T T"
In       2.76159300       4.48755591       9.02837152        0      -0.00551658      -0.00228327       0.06195538
In       0.00710366       3.97212857       6.77939739        1      -0.00551658       0.00228327      -0.06195538
In       2.74738569       1.66766108      14.68328184        2       0.00551658      -0.00228327      -0.06195538
In       5.50187504       1.15223375       1.12448707        3       0.00551658       0.00228327       0.06195538
In       2.74738569       1.15223375       6.77939739        4       0.00551658       0.00228327      -0.06195538
In       5.50187504       1.66766108       9.02837152        5       0.00551658      -0.00228327       0.06195538
In       2.76159300       3.97212857       1.12448707        6      -0.00551658       0.00228327       0.06195538
In       0.00710366       4.48755591      14.68328184        7      -0.00551658      -0.00228327      -0.06195538
In       2.75580189       4.18081145      12.93097272        8       0.03279785       0.02775687       0.02635245
In       5.51029124       4.27887302       2.87679619        9       0.03279785      -0.02775687      -0.02635245
In       2.75317680       1.36091663      10.78068065       10      -0.03279785       0.02775687      -0.02635244
In      -0.00131254       1.45897820       5.02708826       11      -0.03279785      -0.02775687       0.02635245
In       2.75317680       1.45897820       2.87679619       12      -0.03279785      -0.02775687      -0.02635245
In      -0.00131254       1.36091663      12.93097272       13      -0.03279785       0.02775687       0.02635244
In       2.75580189       4.27887302       5.02708826       14       0.03279785      -0.02775687       0.02635244
In       5.51029124       4.18081145      10.78068065       15       0.03279785       0.02775687      -0.02635244
O        4.73940312       4.91722478      12.61826931       16      -0.01959593      -0.08530961       0.04506096
O        1.98491378       3.54245970       3.18949959       17      -0.01959593       0.08530961      -0.04506096
O        0.76957557       2.09732995      11.09338405       18       0.01959593      -0.08530961      -0.04506096
O        3.52406491       0.72256488       4.71438486       19       0.01959593       0.08530961       0.04506096
O        0.76957557       0.72256488       3.18949959       20       0.01959593       0.08530961      -0.04506096
O        3.52406491       2.09732995      12.61826931       21       0.01959593      -0.08530961       0.04506096
O        4.73940312       3.54245970       4.71438486       22      -0.01959593       0.08530961       0.04506096
O        1.98491378       4.91722478      11.09338405       23      -0.01959593      -0.08530961      -0.04506096
O        3.89016839       2.95150951       9.89457796       24      -0.05104183       0.01011880       0.03839567
O        1.13567905       5.50817497       5.91319095       25      -0.05104183      -0.01011880      -0.03839567
O        1.61881030       0.13161469      13.81707540       26       0.05104183       0.01011880      -0.03839567
O        4.37329964       2.68828014       1.99069350       27       0.05104183      -0.01011880       0.03839567
O        1.61881030       2.68828014       5.91319095       28       0.05104183      -0.01011880      -0.03839567
O        4.37329964       0.13161469       9.89457796       29       0.05104183       0.01011880       0.03839567
O        3.89016839       5.50817497       1.99069350       30      -0.05104183      -0.01011880       0.03839567
O        1.13567905       2.95150951      13.81707540       31      -0.05104183       0.01011880      -0.03839567
O        3.56923664       3.69727409      14.97970497       32       0.00553779      -0.02522878       0.03000055
O        0.81474729       4.76241039       0.82806394       33       0.00553779       0.02522878      -0.03000055
O        1.93974205       0.87737926       8.73194839       34      -0.00553779      -0.02522878      -0.03000055
O        4.69423140       1.94251556       7.07582052       35      -0.00553779       0.02522878       0.03000055
O        1.93974205       1.94251556       0.82806394       36      -0.00553779       0.02522878      -0.03000055
O        4.69423140       0.87737926      14.97970497       37      -0.00553779      -0.02522878       0.03000055
O        3.56923664       4.76241039       7.07582052       38       0.00553779       0.02522878       0.03000055
O        0.81474729       3.69727409       8.73194839       39       0.00553779      -0.02522878      -0.03000055
40
Lattice="5.516214943610929 1.1877210743080176e-41 0.0 -1.203368359607177e-41 5.627670333980083 0.0 0.0 0.0 15.82102978458102" Properties=species:S:1:pos:R:3:spacegroup_kinds:I:1:forces:R:3 spacegroup="P 1" unit_cell=conventional occupancy="_JSON {\"0\": {\"In\": 1}, \"1\": {\"In\": 1}, \"2\": {\"In\": 1}, \"3\": {\"In\": 1}, \"4\": {\"In\": 1}, \"5\": {\"In\": 1}, \"6\": {\"In\": 1}, \"7\": {\"In\": 1}, \"8\": {\"In\": 1}, \"9\": {\"In\": 1}, \"10\": {\"In\": 1}, \"11\": {\"In\": 1}, \"12\": {\"In\": 1}, \"13\": {\"In\": 1}, \"14\": {\"In\": 1}, \"15\": {\"In\": 1}, \"16\": {\"O\": 1}, \"17\": {\"O\": 1}, \"18\": {\"O\": 1}, \"19\": {\"O\": 1}, \"20\": {\"O\": 1}, \"21\": {\"O\": 1}, \"22\": {\"O\": 1}, \"23\": {\"O\": 1}, \"24\": {\"O\": 1}, \"25\": {\"O\": 1}, \"26\": {\"O\": 1}, \"27\": {\"O\": 1}, \"28\": {\"O\": 1}, \"29\": {\"O\": 1}, \"30\": {\"O\": 1}, \"31\": {\"O\": 1}, \"32\": {\"O\": 1}, \"33\": {\"O\": 1}, \"34\": {\"O\": 1}, \"35\": {\"O\": 1}, \"36\": {\"O\": 1}, \"37\": {\"O\": 1}, \"38\": {\"O\": 1}, \"39\": {\"O\": 1}}" n_minim_iter=2 energy=-45150.19749366729 stress="-0.005685870378164416 4.2366809206128726e-13 9.793613725854602e-14 4.2366809206128726e-13 -0.006009771084733139 -1.0060963763300025e-12 9.793613725854602e-14 -1.0060963763300025e-12 -0.006067094638718471" free_energy=-45150.19749366729 pbc="T T T"
In       2.76521288       4.47790949       9.03603035        0      -0.00820248      -0.01337003       0.05030635
In       0.00710541       3.96359601       6.78499943        1      -0.00820248       0.01337003      -0.05030635
In       2.75100206       1.66407433      14.69551432        2       0.00820248      -0.01337003      -0.05030635
In       5.50910954       1.14976084       1.12551546        3       0.00820248       0.01337003       0.05030635
In       2.75100206       1.14976084       6.78499943        4       0.00820248       0.01337003      -0.05030635
In       5.50910954       1.66407433       9.03603035        5       0.00820248      -0.01337003       0.05030635
In       2.76521288       3.96359601       1.12551546        6      -0.00820248       0.01337003       0.05030635
In       0.00710541       4.47790949      14.69551432        7      -0.00820248      -0.01337003      -0.05030635
In       2.75946680       4.17186533      12.94185649        8       0.03710155       0.04435358       0.01665531
In       5.51757427       4.26964017       2.87917330        9       0.03710155      -0.04435358      -0.01665531
In       2.75674814       1.35803016      10.78968819       10      -0.03710155       0.04435358      -0.01665531
In      -0.00135933       1.45580500       5.03134159       11      -0.03710155      -0.04435358       0.01665531
In       2.75674814       1.45580500       2.87917330       12      -0.03710155      -0.04435358      -0.01665531
In      -0.00135933       1.35803016      12.94185649       13      -0.03710155       0.04435358       0.01665531
In       2.75946680       4.26964017       5.03134159       14       0.03710155      -0.04435358       0.01665531
In       5.51757427       4.17186533      10.78968819       15       0.03710155       0.04435358      -0.01665531
O        4.74560158       4.90654137      12.62891645       16      -0.01404094      -0.09370104       0.03657983
O        1.98749411       3.53496413       3.19211333       17      -0.01404094       0.09370104      -0.03657983
O        0.77061336       2.09270620      11.10262822       18       0.01404094      -0.09370104      -0.03657983
O        3.52872083       0.72112896       4.71840156       19       0.01404094       0.09370104       0.03657983
O        0.77061336       0.72112896       3.19211333       20       0.01404094       0.09370104      -0.03657983
O        3.52872083       2.09270620      12.62891645       21       0.01404094      -0.09370104       0.03657983
O        4.74560158       3.53496413       4.71840156       22      -0.01404094       0.09370104       0.03657983
O        1.98749411       4.90654137      11.10262822       23      -0.01404094      -0.09370104      -0.03657983
O        3.89520815       2.94518088       9.90293108       24      -0.04631267       0.00582050       0.04190057
O        1.13710068       5.49632462       5.91809870       25      -0.04631266      -0.00582050      -0.04190057
O        1.62100679       0.13134571      13.82861359       26       0.04631267       0.00582050      -0.04190057
O        4.37911427       2.68248945       1.99241619       27       0.04631266      -0.00582050       0.04190057
O        1.62100679       2.68248945       5.91809870       28       0.04631266      -0.00582050      -0.04190057
O        4.37911427       0.13134571       9.90293108       29       0.04631266       0.00582050       0.04190057
O        3.89520815       5.49632462       1.99241619       30      -0.04631267      -0.00582050       0.04190057
O        1.13710068       2.94518088      13.82861359       31      -0.04631266       0.00582050      -0.04190057
O        3.57393258       3.68929449      14.99231240       32       0.00468431      -0.01364656       0.03623734
O        0.81582510       4.75221101       0.82871739       33       0.00468431       0.01364656      -0.03623734
O        1.94228237       0.87545932       8.73923228       34      -0.00468431      -0.01364656      -0.03623734
O        4.70038984       1.93837584       7.08179751       35      -0.00468431       0.01364656       0.03623734
O        1.94228237       1.93837584       0.82871739       36      -0.00468431       0.01364656      -0.03623734
O        4.70038984       0.87545932      14.99231240       37      -0.00468431      -0.01364656       0.03623734
O        3.57393258       4.75221101       7.08179751       38       0.00468431       0.01364656       0.03623734
O        0.81582510       3.68929449       8.73923228       39       0.00468431      -0.01364656      -0.03623734
40
Lattice="5.510251924430368 1.18492370390534e-41 0.0 -1.2045313634308873e-41 5.625834192381902 0.0 0.0 0.0 15.843320003773405" Properties=species:S:1:pos:R:3:spacegroup_kinds:I:1:forces:R:3 spacegroup="P 1" unit_cell=conventional occupancy="_JSON {\"0\": {\"In\": 1}, \"1\": {\"In\": 1}, \"2\": {\"In\": 1}, \"3\": {\"In\": 1}, \"4\": {\"In\": 1}, \"5\": {\"In\": 1}, \"6\": {\"In\": 1}, \"7\": {\"In\": 1}, \"8\": {\"In\": 1}, \"9\": {\"In\": 1}, \"10\": {\"In\": 1}, \"11\": {\"In\": 1}, \"12\": {\"In\": 1}, \"13\": {\"In\": 1}, \"14\": {\"In\": 1}, \"15\": {\"In\": 1}, \"16\": {\"O\": 1}, \"17\": {\"O\": 1}, \"18\": {\"O\": 1}, \"19\": {\"O\": 1}, \"20\": {\"O\": 1}, \"21\": {\"O\": 1}, \"22\": {\"O\": 1}, \"23\": {\"O\": 1}, \"24\": {\"O\": 1}, \"25\": {\"O\": 1}, \"26\": {\"O\": 1}, \"27\": {\"O\": 1}, \"28\": {\"O\": 1}, \"29\": {\"O\": 1}, \"30\": {\"O\": 1}, \"31\": {\"O\": 1}, \"32\": {\"O\": 1}, \"33\": {\"O\": 1}, \"34\": {\"O\": 1}, \"35\": {\"O\": 1}, \"36\": {\"O\": 1}, \"37\": {\"O\": 1}, \"38\": {\"O\": 1}, \"39\": {\"O\": 1}}" n_minim_iter=3 energy=-45150.19901641549 stress="-0.007092185252084865 -1.5990516107076176e-12 -1.6439015743855787e-12 -1.5990516107076176e-12 -0.006006478807149134 -2.3854728110299005e-12 -1.6439015743855787e-12 -2.3854728110299005e-12 -0.003865922695768314" free_energy=-45150.19901641549 pbc="T T T"
In       2.76210185       4.47625517       9.04952677        0       0.00664124      -0.00296711       0.04247704
In       0.00697589       3.96249611       6.79379324        1       0.00664124       0.00296711      -0.04247704
In       2.74815007       1.66333808      14.71545324        2      -0.00664124      -0.00296711      -0.04247704
In       5.50327603       1.14957902       1.12786677        3      -0.00664124       0.00296711       0.04247704
In       2.74815007       1.14957902       6.79379324        4      -0.00664124       0.00296711      -0.04247704
In       5.50327603       1.66333808       9.04952677        5      -0.00664124      -0.00296711       0.04247704
In       2.76210185       3.96249611       1.12786677        6       0.00664124       0.00296711       0.04247704
In       0.00697589       4.47625517      14.71545324        7       0.00664124      -0.00296711      -0.04247704
In       2.75703969       4.17115773      12.96034727        8       0.01663152       0.03991525       0.01736606
In       5.51216566       4.26759356       2.88297273        9       0.01663152      -0.03991525      -0.01736606
In       2.75321223       1.35824063      10.80463273       10      -0.01663152       0.03991525      -0.01736606
In      -0.00191373       1.45467646       5.03868727       11      -0.01663152      -0.03991525       0.01736606
In       2.75321223       1.45467646       2.88297273       12      -0.01663152      -0.03991525      -0.01736606
In      -0.00191373       1.35824063      12.96034727       13      -0.01663152       0.03991525       0.01736606
In       2.75703969       4.26759356       5.03868727       14       0.01663152      -0.03991525       0.01736606
In       5.51216566       4.17115773      10.80463273       15       0.01663152       0.03991525      -0.01736606
O        4.74025685       4.90354360      12.64726599       16       0.00660226      -0.08765133       0.01352065
O        1.98513089       3.53520769       3.19605401       17       0.00660226       0.08765133      -0.01352065
O        0.76999507       2.09062650      11.11771401       18      -0.00660226      -0.08765133      -0.01352065
O        3.52512104       0.72229059       4.72560599       19      -0.00660226       0.08765133       0.01352065
O        0.76999507       0.72229059       3.19605401       20      -0.00660226       0.08765133      -0.01352065
O        3.52512104       2.09062650      12.64726599       21      -0.00660226      -0.08765133       0.01352065
O        4.74025685       3.53520769       4.72560599       22       0.00660226       0.08765133       0.01352065
O        1.98513089       4.90354360      11.11771401       23       0.00660226      -0.08765133      -0.01352065
O        3.89029740       2.94430966       9.91751288       24      -0.03050298       0.00486562       0.04375099
O        1.13517144       5.49444163       5.92580712       25      -0.03050298      -0.00486562      -0.04375099
O        1.61995452       0.13139256      13.84746712       26       0.03050298       0.00486562      -0.04375099
O        4.37508049       2.68152453       1.99585288       27       0.03050298      -0.00486562       0.04375099
O        1.61995452       2.68152453       5.92580712       28       0.03050298      -0.00486562      -0.04375099
O        4.37508049       0.13139256       9.91751288       29       0.03050298       0.00486562       0.04375099
O        3.89029740       5.49444163       1.99585288       30      -0.03050298      -0.00486562       0.04375099
O        1.13517144       2.94430966      13.84746712       31      -0.03050298       0.00486562      -0.04375099
O        3.57014020       3.68787955      15.01397757       32      -0.00924012      -0.01756821       0.04780941
O        0.81501423       4.75087174       0.82934244       33      -0.00924012       0.01756821      -0.04780941
O        1.94011173       0.87496246       8.75100244       34       0.00924012      -0.01756821      -0.04780941
O        4.69523769       1.93795464       7.09231757       35       0.00924012       0.01756821       0.04780941
O        1.94011173       1.93795464       0.82934244       36       0.00924012       0.01756821      -0.04780941
O        4.69523769       0.87496246      15.01397757       37       0.00924012      -0.01756821       0.04780941
O        3.57014020       4.75087174       7.09231757       38      -0.00924012       0.01756821       0.04780941
O        0.81501423       3.68787955       8.75100244       39      -0.00924012      -0.01756821      -0.04780941
40
Lattice="5.51724921459525 1.1738278647027925e-41 0.0 -1.2173927684635625e-41 5.625686919611899 0.0 0.0 0.0 15.82364083199814" Properties=species:S:1:pos:R:3:spacegroup_kinds:I:1:forces:R:3 spacegroup="P 1" unit_cell=conventional occupancy="_JSON {\"0\": {\"In\": 1}, \"1\": {\"In\": 1}, \"2\": {\"In\": 1}, \"3\": {\"In\": 1}, \"4\": {\"In\": 1}, \"5\": {\"In\": 1}, \"6\": {\"In\": 1}, \"7\": {\"In\": 1}, \"8\": {\"In\": 1}, \"9\": {\"In\": 1}, \"10\": {\"In\": 1}, \"11\": {\"In\": 1}, \"12\": {\"In\": 1}, \"13\": {\"In\": 1}, \"14\": {\"In\": 1}, \"15\": {\"In\": 1}, \"16\": {\"O\": 1}, \"17\": {\"O\": 1}, \"18\": {\"O\": 1}, \"19\": {\"O\": 1}, \"20\": {\"O\": 1}, \"21\": {\"O\": 1}, \"22\": {\"O\": 1}, \"23\": {\"O\": 1}, \"24\": {\"O\": 1}, \"25\": {\"O\": 1}, \"26\": {\"O\": 1}, \"27\": {\"O\": 1}, \"28\": {\"O\": 1}, \"29\": {\"O\": 1}, \"30\": {\"O\": 1}, \"31\": {\"O\": 1}, \"32\": {\"O\": 1}, \"33\": {\"O\": 1}, \"34\": {\"O\": 1}, \"35\": {\"O\": 1}, \"36\": {\"O\": 1}, \"37\": {\"O\": 1}, \"38\": {\"O\": 1}, \"39\": {\"O\": 1}}" n_minim_iter=4 energy=-45150.20654611024 stress="-0.0043953146055467915 1.4574792884352405e-13 -1.173676271535648e-12 1.4574792884352405e-13 -0.004862781662402579 1.1668278427418318e-12 -1.173676271535648e-12 1.1668278427418318e-12 -0.0046146822772311835" free_energy=-45150.20654611024 pbc="T T T"
In       2.76503452       4.47509453       9.04271814        0      -0.00106308       0.01772398      -0.02822131
In       0.00640991       3.96343585       6.78092269        1      -0.00106308      -0.01772398       0.02822131
In       2.75221470       1.66225107      14.69274310        2       0.00106308       0.01772398       0.02822131
In       5.51083930       1.15059239       1.13089773        3       0.00106308      -0.01772398      -0.02822131
In       2.75221470       1.15059239       6.78092269        4       0.00106308      -0.01772398       0.02822131
In       5.51083930       1.66225107       9.04271814        5       0.00106308       0.01772398      -0.02822131
In       2.76503452       3.96343585       1.13089773        6      -0.00106308      -0.01772398      -0.02822131
In       0.00640991       4.47509453      14.69274310        7      -0.00106308       0.01772398       0.02822131
In       2.76362559       4.17486877      12.94576769        8      -0.00749961      -0.02483659       0.00024704
In       5.52225020       4.26366161       2.87787314        9      -0.00749961       0.02483659      -0.00024704
In       2.75362362       1.36202531      10.78969356       10       0.00749961      -0.02483659      -0.00024704
In      -0.00500098       1.45081815       5.03394727       11       0.00749961       0.02483659       0.00024704
In       2.75362362       1.45081815       2.87787314       12       0.00749961       0.02483659      -0.00024704
In      -0.00500098       1.36202531      12.94576769       13       0.00749961      -0.02483659       0.00024704
In       2.76362559       4.26366161       5.03394727       14      -0.00749961       0.02483659       0.00024704
In       5.52225020       4.17486877      10.78969356       15      -0.00749961      -0.02483659      -0.00024704
O        4.74521282       4.89522682      12.63460808       16       0.04970716      -0.03340505      -0.02773885
O        1.98658821       3.54330356       3.18903275       17       0.04970716       0.03340505       0.02773885
O        0.77203640       2.08238336      11.10085316       18      -0.04970716      -0.03340505       0.02773885
O        3.53066100       0.73046010       4.72278767       19      -0.04970716       0.03340505      -0.02773885
O        0.77203640       0.73046010       3.18903275       20      -0.04970716       0.03340505       0.02773885
O        3.53066100       2.08238336      12.63460808       21      -0.04970716      -0.03340505      -0.02773885
O        4.74521282       3.54330356       4.72278767       22       0.04970716       0.03340505      -0.02773885
O        1.98658821       4.89522682      11.10085316       23       0.04970716      -0.03340505       0.02773885
O        3.89125853       2.94475098       9.90892575       24       0.03198531       0.01053204       0.03320100
O        1.13263392       5.49377940       5.91471508       25       0.03198531      -0.01053204      -0.03320100
O        1.62599069       0.13190752      13.82653549       26      -0.03198531       0.01053204      -0.03320100
O        4.38461530       2.68093594       1.99710534       27      -0.03198531      -0.01053204       0.03320100
O        1.62599069       2.68093594       5.91471508       28      -0.03198531      -0.01053204      -0.03320100
O        4.38461530       0.13190752       9.90892575       29      -0.03198531       0.01053204       0.03320100
O        3.89125853       5.49377940       1.99710534       30       0.03198531      -0.01053204       0.03320100
O        1.13263392       2.94475098      13.82653549       31       0.03198531       0.01053204      -0.03320100
O        3.57495611       3.68650254      14.99864375       32      -0.01594369      -0.02433331       0.03416512
O        0.81633151       4.75202784       0.82499708       33      -0.01594369       0.02433331      -0.03416512
O        1.94229310       0.87365908       8.73681750       34       0.01594369      -0.02433331      -0.03416512
O        4.70091771       1.93918438       7.08682333       35       0.01594369       0.02433331       0.03416512
O        1.94229310       1.93918438       0.82499708       36       0.01594369       0.02433331      -0.03416512
O        4.70091771       0.87365908      14.99864375       37       0.01594369      -0.02433331       0.03416512
O        3.57495611       4.75202784       7.08682333       38      -0.01594369       0.02433331       0.03416512
O        0.81633151       3.68650254       8.73681750       39      -0.01594369      -0.02433331      -0.03416512
40
Lattice="5.51178662678318 1.1743010670496923e-41 0.0 -1.2186417634252324e-41 5.628046145507257 0.0 0.0 0.0 15.832683528640503" Properties=species:S:1:pos:R:3:spacegroup_kinds:I:1:forces:R:3 spacegroup="P 1" unit_cell=conventional occupancy="_JSON {\"0\": {\"In\": 1}, \"1\": {\"In\": 1}, \"2\": {\"In\": 1}, \"3\": {\"In\": 1}, \"4\": {\"In\": 1}, \"5\": {\"In\": 1}, \"6\": {\"In\": 1}, \"7\": {\"In\": 1}, \"8\": {\"In\": 1}, \"9\": {\"In\": 1}, \"10\": {\"In\": 1}, \"11\": {\"In\": 1}, \"12\": {\"In\": 1}, \"13\": {\"In\": 1}, \"14\": {\"In\": 1}, \"15\": {\"In\": 1}, \"16\": {\"O\": 1}, \"17\": {\"O\": 1}, \"18\": {\"O\": 1}, \"19\": {\"O\": 1}, \"20\": {\"O\": 1}, \"21\": {\"O\": 1}, \"22\": {\"O\": 1}, \"23\": {\"O\": 1}, \"24\": {\"O\": 1}, \"25\": {\"O\": 1}, \"26\": {\"O\": 1}, \"27\": {\"O\": 1}, \"28\": {\"O\": 1}, \"29\": {\"O\": 1}, \"30\": {\"O\": 1}, \"31\": {\"O\": 1}, \"32\": {\"O\": 1}, \"33\": {\"O\": 1}, \"34\": {\"O\": 1}, \"35\": {\"O\": 1}, \"36\": {\"O\": 1}, \"37\": {\"O\": 1}, \"38\": {\"O\": 1}, \"39\": {\"O\": 1}}" n_minim_iter=5 energy=-45150.20969841251 stress="-0.00508946338902805 2.6037411611662805e-13 -1.9616664325177793e-12 2.6037411611662805e-13 -0.003426339617714137 7.091420749512391e-13 -1.9616664325177793e-12 7.091420749512391e-13 -0.004440746923115532" free_energy=-45150.20969841251 pbc="T T T"
In       2.76201365       4.47786316       9.04777258        0       0.00432486      -0.01783266       0.01194720
In       0.00612033       3.96420606       6.78491095        1       0.00432486       0.01783266      -0.01194720
In       2.74977298       1.66384009      14.70125272        2      -0.00432486      -0.01783266      -0.01194720
In       5.50566629       1.15018299       1.13143081        3      -0.00432486       0.01783266       0.01194720
In       2.74977298       1.15018299       6.78491095        4      -0.00432486       0.01783266      -0.01194720
In       5.50566629       1.66384009       9.04777258        5      -0.00432486      -0.01783266       0.01194720
In       2.76201365       3.96420606       1.13143081        6       0.00432486       0.01783266       0.01194720
In       0.00612033       4.47786316      14.70125272        7       0.00432486      -0.01783266      -0.01194720
In       2.76159538       4.17636767      12.95387055        8       0.00513508      -0.03482014       0.00614810
In       5.51748869       4.26570154       2.87881298        9       0.00513508       0.03482014      -0.00614810
In       2.75019125       1.36234460      10.79515474       10      -0.00513508      -0.03482014      -0.00614810
In      -0.00570206       1.45167847       5.03752879       11      -0.00513508       0.03482014       0.00614810
In       2.75019125       1.45167847       2.87881298       12      -0.00513508       0.03482014      -0.00614810
In      -0.00570206       1.36234460      12.95387055       13      -0.00513508      -0.03482014       0.00614810
In       2.76159538       4.26570154       5.03752879       14       0.00513508       0.03482014       0.00614810
In       5.51748869       4.17636767      10.79515474       15       0.00513508      -0.03482014      -0.00614810
O        4.74362666       4.89151834      12.64113378       16       0.01419113      -0.01018200      -0.00210020
O        1.98773334       3.55055088       3.19154975       17       0.01419113       0.01018200       0.00210020
O        0.76815997       2.07749526      11.10789151       18      -0.01419113      -0.01018200       0.00210020
O        3.52405328       0.73652781       4.72479202       19      -0.01419113       0.01018200      -0.00210020
O        0.76815997       0.73652781       3.19154975       20      -0.01419113       0.01018200       0.00210020
O        3.52405328       2.07749526      12.64113378       21      -0.01419113      -0.01018200      -0.00210020
O        4.74362666       3.55055088       4.72479202       22       0.01419113       0.01018200      -0.00210020
O        1.98773334       4.89151834      11.10789151       23       0.01419113      -0.01018200       0.00210020
O        3.88802584       2.94697260       9.91851656       24       0.00990772       0.01814432      -0.00722954
O        1.13213253       5.49509662       5.91416697       25       0.00990772      -0.01814432       0.00722954
O        1.62376079       0.13294953      13.83050874       26      -0.00990772       0.01814432       0.00722954
O        4.37965410       2.68107354       2.00217479       27      -0.00990772      -0.01814432      -0.00722954
O        1.62376079       2.68107354       5.91416697       28      -0.00990772      -0.01814432       0.00722954
O        4.37965410       0.13294953       9.91851656       29      -0.00990772       0.01814432      -0.00722954
O        3.88802584       5.49509662       2.00217479       30       0.00990772      -0.01814432      -0.00722954
O        1.13213253       2.94697260      13.83050874       31       0.00990772       0.01814432       0.00722954
O        3.57037917       3.68571759      15.01103695       32       0.01098018      -0.01360285      -0.00949789
O        0.81448586       4.75635163       0.82164657       33       0.01098018       0.01360285       0.00949789
O        1.94140746       0.87169452       8.73798834       34      -0.01098018      -0.01360285       0.00949789
O        4.69730077       1.94232855       7.09469519       35      -0.01098018       0.01360285      -0.00949789
O        1.94140746       1.94232855       0.82164657       36      -0.01098018       0.01360285       0.00949789
O        4.69730077       0.87169452      15.01103695       37      -0.01098018      -0.01360285      -0.00949789
O        3.57037917       4.75635163       7.09469519       38       0.01098018       0.01360285      -0.00949789
O        0.81448586       3.68571759       8.73798834       39       0.01098018      -0.01360285       0.00949789
40