40
Lattice="5.605092980609656 1.362218240119467e-41 0.0 -1.4109149673690732e-41 5.805464460044179 0.0 0.0 0.0 16.317102908859052" Properties=species:S:1:pos:R:3:spacegroup_kinds:I:1:forces:R:3 spacegroup="P 1" unit_cell=conventional occupancy="_JSON {\"0\": {\"In\": 1}, \"1\": {\"In\": 1}, \"2\": {\"In\": 1}, \"3\": {\"In\": 1}, \"4\": {\"In\": 1}, \"5\": {\"In\": 1}, \"6\": {\"In\": 1}, \"7\": {\"In\": 1}, \"8\": {\"In\": 1}, \"9\": {\"In\": 1}, \"10\": {\"In\": 1}, \"11\": {\"In\": 1}, \"12\": {\"In\": 1}, \"13\": {\"In\": 1}, \"14\": {\"In\": 1}, \"15\": {\"In\": 1}, \"16\": {\"O\": 1}, \"17\": {\"O\": 1}, \"18\": {\"O\": 1}, \"19\": {\"O\": 1}, \"20\": {\"O\": 1}, \"21\": {\"O\": 1}, \"22\": {\"O\": 1}, \"23\": {\"O\": 1}, \"24\": {\"O\": 1}, \"25\": {\"O\": 1}, \"26\": {\"O\": 1}, \"27\": {\"O\": 1}, \"28\": {\"O\": 1}, \"29\": {\"O\": 1}, \"30\": {\"O\": 1}, \"31\": {\"O\": 1}, \"32\": {\"O\": 1}, \"33\": {\"O\": 1}, \"34\": {\"O\": 1}, \"35\": {\"O\": 1}, \"36\": {\"O\": 1}, \"37\": {\"O\": 1}, \"38\": {\"O\": 1}, \"39\": {\"O\": 1}}" n_minim_iter=1 energy=-45150.31058261107 stress="1.605821438477696e-05 1.665049104759386e-12 5.895810449771445e-13 1.665049104759386e-12 0.00011203263127264684 1.681496319217002e-12 5.895810449771445e-13 1.681496319217002e-12 1.5027465290188653e-05" free_energy=-45150.31058261107 pbc="T T T"
In       2.80289214       4.66095270       9.31821112        0       0.00074298       0.00237276      -0.00321043
In       0.00034565       4.04724399       6.99889178        1       0.00074298      -0.00237276       0.00321043
In       2.80220084       1.75822047      15.15744324        2      -0.00074298       0.00237276       0.00321043
In       5.60474733       1.14451176       1.15965967        3      -0.00074298      -0.00237276      -0.00321043
In       2.80220084       1.14451176       6.99889178        4      -0.00074298      -0.00237276       0.00321043
In       5.60474733       1.75822047       9.31821112        5      -0.00074298       0.00237276      -0.00321043
In       2.80289214       4.04724399       1.15965967        6       0.00074298      -0.00237276      -0.00321043
In       0.00034565       4.66095270      15.15744324        7       0.00074298       0.00237276       0.00321043
In       2.78663038       4.36760241      13.35699544        8       0.00630236      -0.00139001       0.00259249
In       5.58917687       4.34059428       2.96010747        9       0.00630236       0.00139001      -0.00259249
In       2.81846260       1.46487018      11.11865893       10      -0.00630236      -0.00139001      -0.00259249
In       0.01591611       1.43786205       5.19844398       11      -0.00630236       0.00139001       0.00259249
In       2.81846260       1.43786205       2.96010747       12      -0.00630236       0.00139001      -0.00259249
In       0.01591611       1.46487018      13.35699544       13      -0.00630236      -0.00139001       0.00259249
In       2.78663038       4.34059428       5.19844398       14       0.00630236       0.00139001       0.00259249
In       5.58917687       4.36760241      11.11865893       15       0.00630236      -0.00139001      -0.00259249
O        4.82184062       5.14990912      13.01413443       16      -0.00475206       0.00099069      -0.00178455
O        2.01929413       3.55828757       3.30296848       17      -0.00475206      -0.00099069       0.00178455
O        0.78325236       2.24717689      11.46151993       18       0.00475206       0.00099069       0.00178455
O        3.58579885       0.65555534       4.85558298       19       0.00475206      -0.00099069      -0.00178455
O        0.78325236       0.65555534       3.30296848       20       0.00475206      -0.00099069       0.00178455
O        3.58579885       2.24717689      13.01413443       21       0.00475206       0.00099069      -0.00178455
O        4.82184062       3.55828757       4.85558298       22      -0.00475206      -0.00099069      -0.00178455
O        2.01929413       5.14990912      11.46151993       23      -0.00475206       0.00099069       0.00178455
O        3.96243099       3.07805431      10.17750124       24      -0.00150315       0.00231070      -0.00066700
O        1.15988450       5.63014238       6.13960167       25      -0.00150315      -0.00231070       0.00066700
O        1.64266199       0.17532208      14.29815312       26       0.00150315       0.00231070       0.00066700
O        4.44520848       2.72741015       2.01894978       27       0.00150315      -0.00231070      -0.00066700
O        1.64266199       2.72741015       6.13960167       28       0.00150315      -0.00231070       0.00066700
O        4.44520848       0.17532208      10.17750124       29       0.00150315       0.00231070      -0.00066700
O        3.96243099       5.63014238       2.01894978       30      -0.00150315      -0.00231070      -0.00066700
O        1.15988450       3.07805431      14.29815312       31      -0.00150315       0.00231070       0.00066700
O        3.62677099       3.85737874      15.46297927       32      -0.00093923      -0.00305292      -0.00336950
O        0.82422450       4.85081795       0.85412364       33      -0.00093923       0.00305292       0.00336950
O        1.97832199       0.95464651       9.01267509       34       0.00093923      -0.00305292       0.00336950
O        4.78086849       1.94808572       7.30442782       35       0.00093923       0.00305292      -0.00336950
O        1.97832199       1.94808572       0.85412364       36       0.00093923       0.00305292       0.00336950
O        4.78086849       0.95464651      15.46297927       37       0.00093923      -0.00305292      -0.00336950
O        3.62677099       4.85081795       7.30442782       38      -0.00093923       0.00305292      -0.00336950
O        0.82422450       3.85737874       9.01267509       39      -0.00093923      -0.00305292       0.00336950
