80
Lattice="11.757076527604388 0.012572995919358834 0.008681477006928917 6.461875821007487 9.8220755153914 0.008681477006928015 6.4618758210074825 3.488141151441575 9.181836096648315" Properties=species:S:1:pos:R:3:spacegroup_kinds:I:1:forces:R:3 spacegroup="P 1" unit_cell=conventional occupancy="_JSON {\"0\": {\"In\": 1}, \"1\": {\"In\": 1}, \"2\": {\"In\": 1}, \"3\": {\"In\": 1}, \"4\": {\"O\": 1}, \"5\": {\"O\": 1}, \"6\": {\"O\": 1}, \"7\": {\"O\": 1}, \"8\": {\"O\": 1}, \"9\": {\"O\": 1}}" n_minim_iter=5 energy=-90301.47065146526 stress="-9.790168707510654e-05 -3.056586387700766e-05 -4.9311243653322625e-05 -3.056586387700766e-05 -3.068137273961201e-05 1.5243234529247107e-05 -4.9311243653322625e-05 1.5243234529247107e-05 2.6914759487289027e-06" free_energy=-11287.683901416847 pbc="T T T"
In      10.58726686       5.70965304       3.94243519        0      -0.11073921       0.00706201       0.00443850
In      16.45580513       5.71592885       3.94676855        0       0.00349216       0.00037573      -0.00111253
In      13.80820478      10.62068011       3.94676855        0       0.00025405       0.00121582       0.00036216
In      19.68674304      10.62696661       3.95110929        0      -0.00347211      -0.00102254      -0.00053310
In      13.80820478       7.45371293       8.53334586        0       0.00103895       0.00025825       0.00204380
In      19.68674304       7.45999942       8.53768660        0      -0.00084794      -0.00134853      -0.00242286
In      17.03914269      12.36475068       8.53768660        0      -0.00256147      -0.00146033       0.00030779
In      22.91768095      12.37103718       8.54202734        0      -0.00098577      -0.00072389      -0.00050045
In       7.93335427       4.28244991       2.95697148        1       0.02297651       0.01605307       0.01130010
In      13.81189253       4.28873641       2.96131222        1       0.00877872      -0.00264113      -0.00323015
In      11.16429218       9.19348767       2.96131222        1       0.00006962       0.00308896       0.00023120
In      17.04283044       9.19977417       2.96565296        1       0.00151551       0.00018076       0.00054514
In      11.16429218       6.02652049       7.54788953        1       0.00006361       0.00144354       0.00131713
In      17.04283044       6.03280698       7.55223027        1       0.00150772       0.00098096       0.00079551
In      14.39523009      10.93755824       7.55223027        1       0.00157640       0.00094257       0.00020961
In      20.27376835      10.94384474       7.55657101        1       0.00184708       0.00064013       0.00065249
In       4.40705982       2.37894493       1.64262805        2      -0.00228078      -0.00149992      -0.00176883
In      10.28559808       2.38523143       1.64696879        2      -0.00344673       0.00042264      -0.00030802
In       7.63799773       7.28998269       1.64696879        2       0.00229809      -0.00518869       0.00682270
In      13.51653599       7.29626919       1.65130953        2       0.00226059       0.00216144      -0.00500522
In       7.63799773       4.12301551       6.23354610        2       0.00320556       0.00154782      -0.00561711
In      13.51653599       4.12930200       6.23788684        2       0.00315777      -0.00396156       0.00570202
In      10.86893564       9.03405326       6.23788684        2      -0.00344444      -0.00140357       0.00016990
In      16.74747390       9.04033976       6.24222758        2      -0.00228703      -0.00148540      -0.00175649
In       1.76314723       0.95175249       0.65717172        3       0.00214665       0.00026591       0.00017658
In       7.64168549       0.95803899       0.66151246        3       0.00235991       0.00107413       0.00051587
In       4.99408514       5.86279025       0.66151246        3       0.00122879       0.00160512       0.00060325
In      10.87262340       5.86907675       0.66585320        3      -0.00034094      -0.00067611      -0.00363003
In       4.99408514       2.69582307       5.24808977        3       0.00224759       0.00046810       0.00104817
In      10.87262340       2.70210956       5.25243051        3      -0.00451103      -0.00101493       0.00258568
In       8.22502305       7.60686082       5.25243051        3       0.00806042      -0.00907947      -0.00651576
In      14.10356131       7.61314732       5.25677125        3       0.00515592       0.00323470       0.00223287
O        6.02437266       2.31351911       0.21790620        4      -0.00011843       0.00240316      -0.00393401
O       11.90291092       2.31980561       0.22224694        4       0.00017112       0.00267829      -0.00316023
O        9.25531057       7.22455687       0.22224694        4      -0.00006266       0.00283212      -0.00475325
O       15.13384883       7.23084337       0.22658768        4      -0.00056310       0.00244096      -0.00300338
O        9.25531057       4.05758969       4.80882425        4       0.00816858       0.00792998      -0.00527747
O       15.13384883       4.06387618       4.81316499        4      -0.00448070       0.00316599      -0.00405532
O       12.48624848       8.96862744       4.81316499        4      -0.00013182       0.00076071      -0.00430216
O       18.36478674       8.97491394       4.81750573        4      -0.00199302       0.00485144      -0.00343192
O        7.10059570       5.12297848       1.15424062        5      -0.00438967       0.00309147      -0.00275208
O       12.97913396       5.12926498       1.15858136        5      -0.00229492       0.00454868       0.00050755
O       10.33153361      10.03401624       1.15858136        5      -0.00123197       0.00365512      -0.00016264
O       16.21007187      10.04030274       1.16292210        5      -0.00253537       0.00396739       0.00030718
O       10.33153361       6.86704906       5.74515867        5       0.00233759       0.00140717      -0.00441751
O       16.21007187       6.87333555       5.74949941        5      -0.00296158       0.00368238       0.00006244
O       13.56247152      11.77808681       5.74949941        5      -0.00319210       0.00292931       0.00048165
O       19.44100978      11.78437331       5.75384015        5      -0.00198828       0.00682568      -0.00169564
O        8.17908753       2.18658676       2.51336522        6       0.00134434      -0.00357388      -0.00473176
O       14.05762579       2.19287326       2.51770596        6       0.00164810       0.00047087      -0.00287699
O       11.41002544       7.09762452       2.51770596        6       0.01379853       0.01099217      -0.01700015
O       17.28856370       7.10391102       2.52204670        6      -0.00067747      -0.00093589      -0.00459003
O       11.41002544       3.93065734       7.10428327        6       0.00407802      -0.00211674      -0.00416041
O       17.28856370       3.93694383       7.10862401        6       0.00125620      -0.00122312      -0.00403595
O       14.64096335       8.84169509       7.10862401        6       0.00201825      -0.00186083      -0.00382315
O       20.51950161       8.84798159       7.11296475        6       0.00188983      -0.00029450      -0.00219955
O        4.16132657       4.47480808       2.08623431        7      -0.00372634       0.00104196       0.00430077
O       10.03986483       4.48109458       2.09057505        7       0.00480569       0.00211264       0.00559810
O        7.39226448       9.38584584       2.09057505        7      -0.00229639       0.00307262       0.00263969
O       13.27080274       9.39213234       2.09491579        7      -0.00330356      -0.00079482       0.00420664
O        7.39226448       6.21887866       6.67715236        7      -0.00367036       0.00142286       0.00478129
O       13.27080274       6.22516515       6.68149310        7      -0.00221570       0.00070511       0.00207439
O       10.62320239      11.12991641       6.68149310        7      -0.00176217       0.00128326       0.00366756
O       16.50174065      11.13620291       6.68583384        7      -0.00095541       0.00127577       0.00322066
O        6.31604144       4.34787573       4.38169333        8      -0.00233467      -0.00343760       0.00413860
O       12.19457970       4.35416223       4.38603407        8       0.03479159      -0.02893205       0.01201221
O        9.54697935       9.25891349       4.38603407        8       0.00134539       0.00004639       0.00408489
O       15.42551761       9.26519999       4.39037481        8      -0.00055394      -0.00276733       0.00386598
O        9.54697935       6.09194631       8.97261138        8      -0.00010432      -0.00220523       0.00407289
O       15.42551761       6.09823280       8.97695212        8      -0.00010296      -0.00276692       0.00327686
O       12.77791726      11.00298406       8.97695212        8      -0.00024377      -0.00289023       0.00302766
O       18.65645552      11.00927056       8.98129286        8      -0.00050216      -0.00236869       0.00548254
O        5.23981840       1.53841636       3.44535891        9       0.00178127      -0.00447464      -0.00002842
O       11.11835666       1.54470286       3.44969965        9       0.00231892      -0.00411953       0.00031123
O        8.47075631       6.44945412       3.44969965        9       0.01916448      -0.00720619       0.00076365
O       14.34929457       6.45574062       3.45404039        9      -0.00066189      -0.00437534       0.00063613
O        8.47075631       3.28248694       8.03627696        9       0.00192804      -0.00412764       0.00096059
O       14.34929457       3.28877343       8.04061770        9       0.00172712      -0.00343939      -0.00105833
O       11.70169422       8.19352469       8.04061770        9       0.00225763      -0.00387424       0.00003894
O       17.58023248       8.19981119       8.04495844        9       0.00189986      -0.00332430       0.00127038
