80
Lattice="11.757076527604388 0.012572995919358834 0.008681477006928917 6.461875821007487 9.8220755153914 0.008681477006928015 6.4618758210074825 3.488141151441575 9.181836096648315" Properties=species:S:1:pos:R:3:spacegroup_kinds:I:1:forces:R:3 spacegroup="P 1" unit_cell=conventional occupancy="_JSON {\"0\": {\"In\": 1}, \"1\": {\"In\": 1}, \"2\": {\"In\": 1}, \"3\": {\"In\": 1}, \"4\": {\"O\": 1}, \"5\": {\"O\": 1}, \"6\": {\"O\": 1}, \"7\": {\"O\": 1}, \"8\": {\"O\": 1}, \"9\": {\"O\": 1}}" n_minim_iter=5 energy=-90301.47057253231 stress="-0.0001213764473051348 -5.340594817053692e-05 -8.351505720097986e-05 -5.340594817053692e-05 -4.02151827465693e-05 -2.0565125266275018e-05 -8.351505720097986e-05 -2.0565125266275018e-05 2.2251729102689665e-05" free_energy=-11287.683901416847 pbc="T T T"
In      10.57726687       5.70964235       3.94242781        0      -0.00174743      -0.00124427      -0.00188496
In      16.45580513       5.71592885       3.94676855        0      -0.00145739      -0.00027852       0.00073677
In      13.80820478      10.62068011       3.94676855        0      -0.00167610      -0.00046704      -0.00177732
In      19.68674304      10.62696661       3.95110929        0      -0.00218738      -0.00158009       0.00020145
In      13.80820478       7.45371293       8.53334586        0       0.00677538       0.00505849      -0.00309256
In      19.68674304       7.45999942       8.53768660        0      -0.00623790       0.00229299      -0.00180889
In      17.03914269      12.36475068       8.53768660        0      -0.00177737      -0.00227859      -0.00081478
In      22.91768095      12.37103718       8.54202734        0      -0.00365345       0.00171889       0.00054050
In       7.93335427       4.28244991       2.95697148        1       0.00149062       0.00020111      -0.00056145
In      13.81189253       4.28873641       2.96131222        1      -0.00036268       0.00281021       0.00261737
In      11.16429218       9.19348767       2.96131222        1       0.00154877      -0.00008210       0.00137884
In      17.04283044       9.19977417       2.96565296        1       0.00105447       0.00137174      -0.00034055
In      11.16429218       6.02652049       7.54788953        1       0.00978499       0.00075906       0.00663571
In      17.04283044       6.03280698       7.55223027        1      -0.00287688       0.00086615       0.00392192
In      14.39523009      10.93755824       7.55223027        1       0.00150186      -0.00043811       0.00071936
In      20.27376835      10.94384474       7.55657101        1       0.00179742       0.00233956       0.00068155
In       4.40705982       2.37894493       1.64262805        2       0.03100994      -0.00318974      -0.02460630
In      10.28559808       2.38523143       1.64696879        2      -0.00410804      -0.00191665      -0.00325905
In       7.63799773       7.28998269       1.64696879        2      -0.00171743      -0.00219417      -0.00068562
In      13.51653599       7.29626919       1.65130953        2      -0.00172701       0.00075999      -0.00078378
In       7.63799773       4.12301551       6.23354610        2      -0.00216880      -0.00104748      -0.00078345
In      13.51653599       4.12930200       6.23788684        2      -0.00022023      -0.00124260      -0.00084950
In      10.86893564       9.03405326       6.23788684        2      -0.00212660       0.00042119      -0.00124850
In      16.74747390       9.04033976       6.24222758        2      -0.00186876      -0.00111004      -0.00031565
In       1.76314723       0.95175249       0.65717172        3      -0.00069142      -0.00192599       0.00052919
In       7.64168549       0.95803899       0.66151246        3       0.03629606      -0.02433951       0.00753314
In       4.99408514       5.86279025       0.66151246        3       0.00296736       0.00060485       0.00038139
In      10.87262340       5.86907675       0.66585320        3       0.00105593       0.00064677       0.00050874
In       4.99408514       2.69582307       5.24808977        3       0.00150924       0.00127475       0.00219120
In      10.87262340       2.70210956       5.25243051        3       0.00152163       0.00031714      -0.00061566
In       8.22502305       7.60686082       5.25243051        3       0.00137528       0.00106769       0.00027639
In      14.10356131       7.61314732       5.25677125        3       0.00112572       0.00074988       0.00200574
O        6.03437265       2.31352980       0.21791358        4      -0.12787706       0.02061262       0.00731462
O       11.90291092       2.31980561       0.22224694        4       0.00324611       0.00198665      -0.00414461
O        9.25531057       7.22455687       0.22224694        4       0.00101352       0.00433037      -0.00401237
O       15.13384883       7.23084337       0.22658768        4       0.00077745       0.00195850      -0.00378732
O        9.25531057       4.05758969       4.80882425        4       0.00101907       0.00295109      -0.00200198
O       15.13384883       4.06387618       4.81316499        4       0.00076986       0.00231721      -0.00430344
O       12.48624848       8.96862744       4.81316499        4      -0.00012207       0.00256801      -0.00374633
O       18.36478674       8.97491394       4.81750573        4      -0.00008451       0.00253183      -0.00377339
O        7.10059570       5.12297848       1.15424062        5      -0.00233295       0.00847175       0.00187371
O       12.97913396       5.12926498       1.15858136        5      -0.00138471       0.00355514      -0.00008432
O       10.33153361      10.03401624       1.15858136        5       0.00116763       0.00890440      -0.00072430
O       16.21007187      10.04030274       1.16292210        5      -0.00355871       0.00398071      -0.00039857
O       10.33153361       6.86704906       5.74515867        5      -0.00311166       0.00405115      -0.00068356
O       16.21007187       6.87333555       5.74949941        5      -0.00155385       0.00423135      -0.00018427
O       13.56247152      11.77808681       5.74949941        5      -0.00200786       0.00359688       0.00032559
O       19.44100978      11.78437331       5.75384015        5      -0.00234521       0.00406882       0.00044068
O        8.17908753       2.18658676       2.51336522        6       0.00543608      -0.00038632       0.00112262
O       14.05762579       2.19287326       2.51770596        6       0.00085850      -0.00178281      -0.00371834
O       11.41002544       7.09762452       2.51770596        6       0.00231168      -0.00124803      -0.00424112
O       17.28856370       7.10391102       2.52204670        6       0.00198439      -0.00098629      -0.00383537
O       11.41002544       3.93065734       7.10428327        6       0.00195613       0.00193208      -0.00026003
O       17.28856370       3.93694383       7.10862401        6       0.00292451      -0.00166302      -0.00411584
O       14.64096335       8.84169509       7.10862401        6       0.00120809      -0.00206780      -0.00339350
O       20.51950161       8.84798159       7.11296475        6       0.00276625      -0.00149542      -0.00346442
O        4.16132657       4.47480808       2.08623431        7      -0.00049060      -0.00289953       0.00127685
O       10.03986483       4.48109458       2.09057505        7      -0.00114521       0.00308900       0.00449041
O        7.39226448       9.38584584       2.09057505        7      -0.00047946       0.00129020       0.00329179
O       13.27080274       9.39213234       2.09491579        7      -0.00331382      -0.00107154       0.00564749
O        7.39226448       6.21887866       6.67715236        7      -0.00059244       0.00111538       0.00501419
O       13.27080274       6.22516515       6.68149310        7      -0.00242954       0.00274692      -0.00316413
O       10.62320239      11.12991641       6.68149310        7      -0.00251473       0.00106275       0.00396190
O       16.50174065      11.13620291       6.68583384        7      -0.00208800       0.00209867       0.00377727
O        6.31604144       4.34787573       4.38169333        8       0.00008069      -0.00245494       0.00328616
O       12.19457970       4.35416223       4.38603407        8      -0.00033017      -0.00261595       0.00364239
O        9.54697935       9.25891349       4.38603407        8       0.00013374      -0.00194930       0.00269360
O       15.42551761       9.26519999       4.39037481        8       0.00011990      -0.00331843       0.00468181
O        9.54697935       6.09194631       8.97261138        8       0.02196254      -0.00476154       0.00710471
O       15.42551761       6.09823280       8.97695212        8       0.02256967      -0.00017330       0.00045274
O       12.77791726      11.00298406       8.97695212        8      -0.00033257      -0.00270069       0.00374317
O       18.65645552      11.00927056       8.98129286        8       0.00007795      -0.00294629       0.00402105
O        5.23981840       1.53841636       3.44535891        9       0.00098123      -0.00308603      -0.00296842
O       11.11835666       1.54470286       3.44969965        9       0.00381729      -0.00446161       0.00003599
O        8.47075631       6.44945412       3.44969965        9       0.00221710      -0.00374575       0.00061223
O       14.34929457       6.45574062       3.45404039        9       0.00180308      -0.00392673      -0.00041021
O        8.47075631       3.28248694       8.03627696        9       0.00321443      -0.00269643       0.00129839
O       14.34929457       3.28877343       8.04061770        9       0.00382050      -0.00785086      -0.00318514
O       11.70169422       8.19352469       8.04061770        9       0.00197499      -0.01014907       0.00378098
O       17.58023248       8.19981119       8.04495844        9       0.00367298      -0.00293935      -0.00072065
