10
Lattice="6.324985881961751 0.08310111799537305 0.05738015424121948 3.5401308769197786 5.242120332184939 0.05738015424121193 3.540130876919775 1.9109739238764223 4.881730914488411" Properties=species:S:1:pos:R:3:spacegroup_kinds:I:1:forces:R:3 spacegroup="P 1" unit_cell=conventional occupancy="_JSON {\"0\": {\"In\": 1}, \"1\": {\"In\": 1}, \"2\": {\"In\": 1}, \"3\": {\"In\": 1}, \"4\": {\"O\": 1}, \"5\": {\"O\": 1}, \"6\": {\"O\": 1}, \"7\": {\"O\": 1}, \"8\": {\"O\": 1}, \"9\": {\"O\": 1}}" n_minim_iter=1 energy=-11285.425944042294 stress="0.13909494075130963 -0.0004106081559125011 -0.0002835191622950719 -0.0004106081559125011 0.13963395587470886 -0.0001530445456904051 -0.0002835191622950719 -0.0001530445456904051 0.1397499283567151" free_energy=-11285.425944042294 pbc="T T T"
In      11.38081026       6.14339764       4.24192974        0       0.06127473       0.03307630       0.02283872
In       8.72706120       4.71089544       3.25280710        1      -0.06127473      -0.03307630      -0.02283872
In       4.67818645       2.52529995       1.74368413        2       0.06127473       0.03307630       0.02283872
In       2.02443738       1.09279775       0.75456149        3      -0.06127473      -0.03307630      -0.02283872
O        6.51380486       2.46941294       0.38161285        4       0.00000000      -0.04678565       0.06775757
O        7.76653910       5.43002961       1.30650296        5       0.03911304      -0.07245796       0.00000000
O        8.80120149       2.46652987       2.82247831        6      -0.03911304       0.02567231       0.06775757
O        4.60404615       4.76966552       2.17401292        7       0.03911304      -0.02567231      -0.06775757
O        6.89144279       4.76678245       4.61487838        8      -0.00000000       0.04678565      -0.06775757
O        5.63870855       1.80616578       3.68998827        9      -0.03911304       0.07245796       0.00000000
10
Lattice="6.330827622771162 0.08899866625062017 0.06145232843928421 3.5482667474636367 5.243767943061608 0.061452328439276664 3.5482667474636336 1.9153656927114973 4.881828847116111" Properties=species:S:1:pos:R:3:spacegroup_kinds:I:1:forces:R:3 spacegroup="P 1" unit_cell=conventional occupancy="_JSON {\"0\": {\"In\": 1}, \"1\": {\"In\": 1}, \"2\": {\"In\": 1}, \"3\": {\"In\": 1}, \"4\": {\"O\": 1}, \"5\": {\"O\": 1}, \"6\": {\"O\": 1}, \"7\": {\"O\": 1}, \"8\": {\"O\": 1}, \"9\": {\"O\": 1}}" n_minim_iter=2 energy=-11285.426781349397 stress="0.13950938949558203 0.0004897554652102444 0.0003381692673243429 0.0004897554652102444 0.13886647581117928 0.00018254484659267043 0.0003381692673243429 0.00018254484659267043 0.13872814890159188" free_energy=-11285.426781349397 pbc="T T T"
In      11.40046100       6.15400517       4.24925409        0       0.05867305       0.03167190       0.02186900
In       8.74058068       4.71819330       3.25784617        1      -0.05867305      -0.03167190      -0.02186900
In       4.68678044       2.52993902       1.74688734        2       0.05867305       0.03167190       0.02186900
In       2.02690012       1.09412715       0.75547942        3      -0.05867305      -0.03167190      -0.02186900
O        6.52225410       2.47416836       0.38741495        4      -0.00000000      -0.04435155       0.06423238
O        7.78004074       5.43496267       1.31263571        5       0.03707812      -0.06868822      -0.00000000
O        8.81273420       2.47530493       2.82832938        6      -0.03707812       0.02433667       0.06423238
O        4.61462693       4.77282739       2.17640413        7       0.03707812      -0.02433667      -0.06423238
O        6.90510703       4.77396395       4.61731856        8      -0.00000000       0.04435155      -0.06423238
O        5.64732039       1.81316965       3.69209780        9      -0.03707812       0.06868822      -0.00000000
10
Lattice="6.337768072076209 0.09599432954721875 0.06628273564272025 3.5579235330105536 5.245731520005914 0.06628273564271275 3.557923533010551 1.9205784563098531 4.881953602215645" Properties=species:S:1:pos:R:3:spacegroup_kinds:I:1:forces:R:3 spacegroup="P 1" unit_cell=conventional occupancy="_JSON {\"0\": {\"In\": 1}, \"1\": {\"In\": 1}, \"2\": {\"In\": 1}, \"3\": {\"In\": 1}, \"4\": {\"O\": 1}, \"5\": {\"O\": 1}, \"6\": {\"O\": 1}, \"7\": {\"O\": 1}, \"8\": {\"O\": 1}, \"9\": {\"O\": 1}}" n_minim_iter=3 energy=-11285.43078614196 stress="0.13713499004816695 0.0009961739162959778 0.0006878440903070039 0.0009961739162959778 0.13582728877831077 0.0003713004310165973 0.0006878440903070039 0.0003713004310165973 0.13554592865476014" free_energy=-11285.43078614196 pbc="T T T"
In      11.43147992       6.17074928       4.26081566        0       0.00978104       0.00527984       0.00364565
In       8.74894280       4.72270719       3.26096295        1      -0.00978104      -0.00527984      -0.00364565
In       4.70467235       2.53959712       1.75355613        2       0.00978104       0.00527984       0.00364565
In       2.02213523       1.09155504       0.75370342        3      -0.00978104      -0.00527984      -0.00364565
O        6.53228783       2.47401034       0.40270233        4      -0.00000000      -0.00364109       0.00527323
O        7.80092114       5.43183626       1.31991251        5       0.00304397      -0.00563904       0.00000000
O        8.82157804       2.48890231       2.84367913        6      -0.00304397       0.00199795       0.00527323
O        4.63203711       4.77340201       2.17083995        7       0.00304397      -0.00199795      -0.00527323
O        6.92132732       4.78829398       4.61181675        8      -0.00000000       0.00364109      -0.00527323
O        5.65269401       1.83046805       3.69460657        9      -0.00304397       0.00563904       0.00000000
10
Lattice="6.332830631561936 0.0910188426748793 0.06284723187277247 3.551054719706948 5.244333953460448 0.06284723187276496 3.551054719706945 1.9168706490090717 4.8818639170853295" Properties=species:S:1:pos:R:3:spacegroup_kinds:I:1:forces:R:3 spacegroup="P 1" unit_cell=conventional occupancy="_JSON {\"0\": {\"In\": 1}, \"1\": {\"In\": 1}, \"2\": {\"In\": 1}, \"3\": {\"In\": 1}, \"4\": {\"O\": 1}, \"5\": {\"O\": 1}, \"6\": {\"O\": 1}, \"7\": {\"O\": 1}, \"8\": {\"O\": 1}, \"9\": {\"O\": 1}}" n_minim_iter=4 energy=-11285.431155141867 stress="0.136416353077823 0.0001599374093892635 0.00011043453295211665 0.0001599374093892635 0.1362063994256822 5.961291187588792e-05 0.00011043453295211665 5.961291187588792e-05 0.1361612265837124" free_energy=-11285.431155141867 pbc="T T T"
In      11.41613793       6.16246762       4.25509730        0       0.00191988       0.00103635       0.00071559
In       8.73627219       4.71586756       3.25624028        1      -0.00191988      -0.00103635      -0.00071559
In       4.69866790       2.53635590       1.75131811        2       0.00191988       0.00103635       0.00071559
In       2.01880215       1.08975583       0.75246109        3      -0.00191988      -0.00103635      -0.00071559
O        6.52515034       2.46907762       0.39913543        4       0.00000000      -0.00003768       0.00005457
O        7.79028634       5.42624605       1.31473683        5       0.00003150      -0.00005836       0.00000000
O        8.81106905       2.48199916       2.84006739        6      -0.00003150       0.00002068       0.00005457
O        4.62387103       4.77022430       2.16749100        7       0.00003150      -0.00002068      -0.00005457
O        6.90978974       4.78314583       4.60842295        8       0.00000000       0.00003768      -0.00005457
O        5.64465374       1.82597740       3.69282156        9      -0.00003150       0.00005836       0.00000000
