10
Lattice="5.308603421146174 -0.15383012887269884 -0.1062175423699196 2.7843439133353622 4.522428878802427 -0.1062175423699062 2.784343913335357 1.5029977134962327 4.26668993522595" Properties=species:S:1:pos:R:3:spacegroup_kinds:I:1:forces:R:3 spacegroup="P 1" unit_cell=conventional occupancy="_JSON {\"0\": {\"In\": 1}, \"1\": {\"In\": 1}, \"2\": {\"In\": 1}, \"3\": {\"In\": 1}, \"4\": {\"O\": 1}, \"5\": {\"O\": 1}, \"6\": {\"O\": 1}, \"7\": {\"O\": 1}, \"8\": {\"O\": 1}, \"9\": {\"O\": 1}}" n_minim_iter=4 energy=-11281.302247232796 stress="-0.5769766788280699 -1.1190106963572114e-06 -7.726596432865035e-07 -1.1190106963572114e-06 -0.5769752098819521 -4.1708607853291263e-07 -7.726596432865035e-07 -4.1708607853291263e-07 -0.5769748938286527" free_energy=-11281.302247232796 pbc="T T T"
In       9.41298594       5.08115979       3.50846944        0      -0.00476079      -0.00256989      -0.00177447
In       6.90295094       3.72623491       2.57291284        1       0.00476079       0.00256989       0.00177447
In       3.97434031       2.14536156       1.48134201        2      -0.00476079      -0.00256989      -0.00177447
In       1.46430532       0.79043668       0.54578542        3       0.00476079       0.00256989       0.00177447
O        5.37362453       2.01581951       0.05553363        4      -0.00000000      -0.00175869       0.00254703
O        6.24343093       4.61989481       0.90734617        5       0.00147027      -0.00272372      -0.00000000
O        7.28816204       1.79962205       2.18887860        6      -0.00147027       0.00096503       0.00254703
O        3.58912922       4.07197442       1.86537626        7       0.00147027      -0.00096503      -0.00254703
O        5.50366673       3.85577697       3.99872122        8       0.00000000       0.00175869      -0.00254703
O        4.63386033       1.25170166       3.14690868        9      -0.00147027       0.00272372       0.00000000
