10
Lattice="5.7085502325813575 -0.016715985366334066 -0.011542153002886036 3.118431573502791 4.7815488812154125 -0.011542153002881151 3.118431573502786 1.6833392966369025 4.475456595381785" Properties=species:S:1:pos:R:3:spacegroup_kinds:I:1:forces:R:3 spacegroup="P 1" unit_cell=conventional occupancy="_JSON {\"0\": {\"In\": 1}, \"1\": {\"In\": 1}, \"2\": {\"In\": 1}, \"3\": {\"In\": 1}, \"4\": {\"O\": 1}, \"5\": {\"O\": 1}, \"6\": {\"O\": 1}, \"7\": {\"O\": 1}, \"8\": {\"O\": 1}, \"9\": {\"O\": 1}}" n_minim_iter=1 energy=-11286.984634723844 stress="-0.15493911559708518 0.002123290499688153 0.0014661022531485567 0.002123290499688153 -0.1577264096983833 0.0007914066656985983 0.0014661022531485567 0.0007914066656985983 -0.1583261134907067" free_energy=-11286.984634723844 pbc="T T T"
In      10.26052403       5.53866356       3.82436936        0       0.12017998       0.06487354       0.04479427
In       7.65759605       4.13359474       2.85418908        1      -0.12017998      -0.06487354      -0.04479427
In       4.28781734       2.31457746       1.59818321        2       0.12017998       0.06487354       0.04479427
In       1.68488936       0.90950865       0.62800294        3      -0.12017998      -0.06487354      -0.04479427
O        5.84062847       2.24096745       0.18437434        4       0.00000000       0.01236828      -0.01791242
O        6.86707300       4.98143266       1.10155092        5      -0.01033994       0.01915502       0.00000000
O        7.93261551       2.09566394       2.42210264        6       0.01033994      -0.00678674      -0.01791242
O        4.01279788       4.35250826       2.03026965        7      -0.01033994       0.00678674       0.01791242
O        6.10478492       4.20720476       4.26799795        8      -0.00000000      -0.01236828       0.01791242
O        5.07834039       1.46673955       3.35082137        9       0.01033994      -0.01915502      -0.00000000
10
Lattice="5.6948516776271685 -0.030944155324297156 -0.021366504425012655 3.099020056122656 4.777904128660519 -0.02136650442500774 3.099020056122652 1.672860897722852 4.4755291091727365" Properties=species:S:1:pos:R:3:spacegroup_kinds:I:1:forces:R:3 spacegroup="P 1" unit_cell=conventional occupancy="_JSON {\"0\": {\"In\": 1}, \"1\": {\"In\": 1}, \"2\": {\"In\": 1}, \"3\": {\"In\": 1}, \"4\": {\"O\": 1}, \"5\": {\"O\": 1}, \"6\": {\"O\": 1}, \"7\": {\"O\": 1}, \"8\": {\"O\": 1}, \"9\": {\"O\": 1}}" n_minim_iter=2 energy=-11286.98654033958 stress="-0.15620543155711764 -0.0007067016063549512 -0.0004879675282904506 -0.0007067016063549512 -0.15527772748973742 -0.0002634064259393707 -0.0004879675282904506 -0.0002634064259393707 -0.15507812614961092" free_energy=-11286.98654033958 pbc="T T T"
In      10.21655699       5.51493001       3.80798167        0       0.15303851       0.08261068       0.05704151
In       7.62278070       4.11480131       2.84121248        1      -0.15303851      -0.08261068      -0.05704151
In       4.27011110       2.30501957       1.59158362        2       0.15303851       0.08261068       0.05704151
In       1.67633481       0.90489087       0.62481443        3      -0.15303851      -0.08261068      -0.05704151
O        5.82064879       2.22828994       0.17236039        4       0.00000000       0.00322484      -0.00467039
O        6.83611316       4.96776924       1.08683252        5      -0.00269598       0.00499438       0.00000000
O        7.90420448       2.07538635       2.41012495        6       0.00269598      -0.00176954      -0.00467039
O        3.98868732       4.34443453       2.02267116        7      -0.00269598       0.00176954       0.00467039
O        6.07224301       4.19153094       4.26043571        8       0.00000000      -0.00322484       0.00467039
O        5.05677864       1.45205164       3.34596358        9       0.00269598      -0.00499438       0.00000000
10
Lattice="5.686249100390633 -0.03990902001398158 -0.027556617519211547 3.086804962486946 4.775631548302037 -0.02755661751920658 3.086804962486942 1.666267151269088 4.475597148192454" Properties=species:S:1:pos:R:3:spacegroup_kinds:I:1:forces:R:3 spacegroup="P 1" unit_cell=conventional occupancy="_JSON {\"0\": {\"In\": 1}, \"1\": {\"In\": 1}, \"2\": {\"In\": 1}, \"3\": {\"In\": 1}, \"4\": {\"O\": 1}, \"5\": {\"O\": 1}, \"6\": {\"O\": 1}, \"7\": {\"O\": 1}, \"8\": {\"O\": 1}, \"9\": {\"O\": 1}}" n_minim_iter=3 energy=-11286.991323875825 stress="-0.1526659858342077 -0.0009195326753924106 -0.0006349243886672052 -0.0009195326753924106 -0.15145889335165735 -0.00034273420420834373 -0.0006349243886672052 -0.00034273420420834373 -0.151199179844035" free_energy=-11286.991323875825 pbc="T T T"
In      10.20254085       5.50736405       3.80275749        0      -0.03315003      -0.01789449      -0.01235590
In       7.58724769       4.09562048       2.82796839        1       0.03315003       0.01789449       0.01235590
In       4.27261134       2.30636921       1.59251553        2      -0.03315003      -0.01789449      -0.01235590
In       1.65731818       0.89462564       0.61772643        3       0.03315003       0.01789449       0.01235590
O        5.80808931       2.22084045       0.16402832        4       0.00000000       0.03518098      -0.05095104
O        6.81619986       4.96000146       1.07756436        5      -0.02941147       0.05448555       0.00000000
O        7.88678372       2.06233125       2.40182689        6       0.02941147      -0.01930457      -0.05095104
O        3.97307531       4.33965844       2.01865703        7      -0.02941147       0.01930457       0.05095104
O        6.05176972       4.18114924       4.25645560        8       0.00000000      -0.03518098       0.05095104
O        5.04365917       1.44198823       3.34291955        9       0.02941147      -0.05448555      -0.00000000
10
Lattice="5.691962679428247 -0.03395224831159933 -0.023443550363106202 3.094920018963886 4.777139518099296 -0.023443550363101286 3.0949200189638812 1.670647684604542 4.475550009704406" Properties=species:S:1:pos:R:3:spacegroup_kinds:I:1:forces:R:3 spacegroup="P 1" unit_cell=conventional occupancy="_JSON {\"0\": {\"In\": 1}, \"1\": {\"In\": 1}, \"2\": {\"In\": 1}, \"3\": {\"In\": 1}, \"4\": {\"O\": 1}, \"5\": {\"O\": 1}, \"6\": {\"O\": 1}, \"7\": {\"O\": 1}, \"8\": {\"O\": 1}, \"9\": {\"O\": 1}}" n_minim_iter=4 energy=-11286.992017894798 stress="-0.15252124745426796 0.00012695473432392323 8.766046399710114e-05 0.00012695473432392323 -0.15268790396389764 4.731939692879524e-05 8.766046399710114e-05 4.731939692879524e-05 -0.15272376115967157" free_energy=-11286.992017894798 pbc="T T T"
In      10.21874956       5.51611357       3.80879890        0      -0.00221602      -0.00119622      -0.00082597
In       7.60395453       4.10463888       2.83419547        1       0.00221602       0.00119622       0.00082597
In       4.27784820       2.30919609       1.59446745        2      -0.00221602      -0.00119622      -0.00082597
In       1.66305317       0.89772140       0.61986401        3       0.00221602       0.00119622       0.00082597
O        5.81643202       2.22650730       0.16852476        4      -0.00000000       0.02657369      -0.03848549
O        6.82882821       4.96627258       1.08372218        5      -0.02221573       0.04115525      -0.00000000
O        7.89895585       2.07061094       2.40629977        6       0.02221573      -0.01458156      -0.03848549
O        3.98284687       4.34322402       2.02236314        7      -0.02221573       0.01458156       0.03848549
O        6.06537070       4.18732767       4.26013815        8       0.00000000      -0.02657369       0.03848549
O        5.05297451       1.44756239       3.34494073        9       0.02221573      -0.04115525      -0.00000000
10
Lattice="5.692892905607692 -0.03298339174869769 -0.022774568520767965 3.0962404233070044 4.777385559061491 -0.022774568520763098 3.0962404233069987 1.6713604430748914 4.475543065397218" Properties=species:S:1:pos:R:3:spacegroup_kinds:I:1:forces:R:3 spacegroup="P 1" unit_cell=conventional occupancy="_JSON {\"0\": {\"In\": 1}, \"1\": {\"In\": 1}, \"2\": {\"In\": 1}, \"3\": {\"In\": 1}, \"4\": {\"O\": 1}, \"5\": {\"O\": 1}, \"6\": {\"O\": 1}, \"7\": {\"O\": 1}, \"8\": {\"O\": 1}, \"9\": {\"O\": 1}}" n_minim_iter=5 energy=-11286.99244493709 stress="-0.15255391909238097 7.816068726054642e-05 5.396885609223651e-05 7.816068726054642e-05 -0.1526565224939225 2.9132560931330446e-05 5.396885609223651e-05 2.9132560931330446e-05 -0.1526785982557322" free_energy=-11286.99244493709 pbc="T T T"
In      10.22173105       5.51772298       3.80991018        0       0.01619173       0.00874035       0.00603509
In       7.60632959       4.10592094       2.83508071        1      -0.01619173      -0.00874035      -0.00603509
In       4.27904417       2.30984168       1.59491322        2       0.01619173       0.00874035       0.00603509
In       1.66364271       0.89803964       0.62008375        3      -0.01619173      -0.00874035      -0.00603509
O        5.81778990       2.22913276       0.16678918        4      -0.00000000       0.00039289      -0.00056901
O        6.82945926       4.96993145       1.08472392        5      -0.00032846       0.00060848      -0.00000000
O        7.90236096       2.07102327       2.40456072        6       0.00032846      -0.00021559      -0.00056901
O        3.98301280       4.34473935       2.02543322        7      -0.00032846       0.00021559       0.00056901
O        6.06758387       4.18662987       4.26320475        8      -0.00000000      -0.00039289       0.00056901
O        5.05591450       1.44583117       3.34527002        9       0.00032846      -0.00060848      -0.00000000
10
Lattice="5.692261927924548 -0.033640543266889804 -0.02322832240980484 3.095344810122547 4.7772186519666455 -0.023228322409799974 3.0953448101225414 1.6708769882250898 4.475547753502346" Properties=species:S:1:pos:R:3:spacegroup_kinds:I:1:forces:R:3 spacegroup="P 1" unit_cell=conventional occupancy="_JSON {\"0\": {\"In\": 1}, \"1\": {\"In\": 1}, \"2\": {\"In\": 1}, \"3\": {\"In\": 1}, \"4\": {\"O\": 1}, \"5\": {\"O\": 1}, \"6\": {\"O\": 1}, \"7\": {\"O\": 1}, \"8\": {\"O\": 1}, \"9\": {\"O\": 1}}" n_minim_iter=6 energy=-11286.992511260441 stress="-0.15231875541983772 2.3522114967275405e-05 1.6241692276589212e-05 2.3522114967275405e-05 -0.15234963346881655 8.76731759968923e-06 1.6241692276589212e-05 8.76731759968923e-06 -0.15235627707227115" free_energy=-11286.992511260441 pbc="T T T"
In      10.22082118       5.51723183       3.80957105        0       0.00225723       0.00121846       0.00084133
In       7.60360615       4.10445082       2.83406562        1      -0.00225723      -0.00121846      -0.00084133
In       4.27934541       2.31000428       1.59502550        2       0.00225723       0.00121846       0.00084133
In       1.66213038       0.89722328       0.61952006        3      -0.00225723      -0.00121846      -0.00084133
O        5.81686886       2.22878362       0.16589297        4       0.00000000       0.00008610      -0.00012469
O        6.82783433       4.96966695       1.08404446        5      -0.00007198       0.00013334       0.00000000
O        7.90124820       2.06995800       2.40366685        6       0.00007198      -0.00004724      -0.00012469
O        3.98170336       4.34449711       2.02542426        7      -0.00007198       0.00004724       0.00012469
O        6.06608270       4.18567149       4.26319814        8       0.00000000      -0.00008610       0.00012469
O        5.05511723       1.44478816       3.34504666        9       0.00007198      -0.00013334      -0.00000000
