10
Lattice="5.980954057153298 0.009463289096387401 0.006534268143185669 3.2897915069014534 4.994914696842987 0.0065342681431767875 3.28979150690145 1.7758399345249027 4.668576662361328" Properties=species:S:1:pos:R:3:spacegroup_kinds:I:1:forces:R:3 spacegroup="P 1" unit_cell=conventional occupancy="_JSON {\"0\": {\"In\": 1}, \"1\": {\"In\": 1}, \"2\": {\"In\": 1}, \"3\": {\"In\": 1}, \"4\": {\"O\": 1}, \"5\": {\"O\": 1}, \"6\": {\"O\": 1}, \"7\": {\"O\": 1}, \"8\": {\"O\": 1}, \"9\": {\"O\": 1}}" n_minim_iter=1 energy=-11287.450889991038 stress="0.07007658917820542 0.001396018404067756 0.0009639310893970364 0.001396018404067756 0.06824400251022808 0.0005203330747964054 0.0009639310893970364 0.0005203330747964054 0.0678497100069034" free_energy=-11287.450889991038 pbc="T T T"
In      10.74908145       5.80238841       4.00646766        0      -0.12474200      -0.06733613      -0.04649465
In       8.09172417       4.36793848       3.01600014        1       0.12474200       0.06733613       0.04649465
In       4.46881291       2.41227945       1.66564506        2      -0.12474200      -0.06733613      -0.04649465
In       1.81145563       0.97782952       0.67517754        3       0.12474200       0.06733613       0.04649465
O        6.13061130       2.34892264       0.23356299        4      -0.00000000      -0.04647656       0.06730993
O        7.23282570       5.20257537       1.17694557        5       0.03885463      -0.07197926      -0.00000000
O        8.31818841       2.23151072       2.56785132        6      -0.03885463       0.02550270       0.06730993
O        4.24234867       4.54870722       2.11379388        7       0.03885463      -0.02550270      -0.06730993
O        6.42992578       4.43129530       4.44808221        8       0.00000000       0.04647656      -0.06730993
O        5.32771138       1.57764257       3.50469963        9      -0.03885463       0.07197926       0.00000000
10
Lattice="5.970997663946073 -0.0007965147840053844 -0.0005499822657479194 3.2757509692479445 4.992220881006413 -0.0005499822657568116 3.2757509692479414 1.7682608075756747 4.668567590131766" Properties=species:S:1:pos:R:3:spacegroup_kinds:I:1:forces:R:3 spacegroup="P 1" unit_cell=conventional occupancy="_JSON {\"0\": {\"In\": 1}, \"1\": {\"In\": 1}, \"2\": {\"In\": 1}, \"3\": {\"In\": 1}, \"4\": {\"O\": 1}, \"5\": {\"O\": 1}, \"6\": {\"O\": 1}, \"7\": {\"O\": 1}, \"8\": {\"O\": 1}, \"9\": {\"O\": 1}}" n_minim_iter=2 energy=-11287.452322842857 stress="0.06747593284023631 -0.0006585498099542765 -0.00045471939005342047 -0.0006585498099542765 0.06834042688913457 -0.00024545897264016523 -0.00045471939005342047 -0.00024545897264016523 0.06852642820027172" free_energy=-11287.452322842857 pbc="T T T"
In      10.71543075       5.78422366       3.99392515        0      -0.07907190      -0.04268326      -0.02947219
In       8.06831866       4.35530412       3.00727629        1       0.07907190       0.04268326       0.02947219
In       4.45418095       2.40438107       1.66019134        2      -0.07907190      -0.04268326      -0.02947219
In       1.80706886       0.97546153       0.67354248        3       0.07907190       0.04268326       0.02947219
O        6.11612374       2.33923338       0.22564541        4       0.00000000      -0.05041547       0.07301447
O        7.21083814       5.19185408       1.16631693        5       0.04214758      -0.07807953      -0.00000000
O        8.29716031       2.21714319       2.55992920        6      -0.04214758       0.02766407       0.07301447
O        4.22533930       4.54254200       2.10753843        7       0.04214758      -0.02766407      -0.07301447
O        6.40637587       4.42045180       4.44182222        8       0.00000000       0.05041547      -0.07301447
O        5.31166148       1.56783110       3.50115070        9      -0.04214758       0.07807953      -0.00000000
10
Lattice="5.984020883940655 0.01261788980743474 0.008712475605802739 3.2941116036789877 4.995747581002126 0.008712475605793878 3.294111603678987 1.778171936526387 4.668583764319724" Properties=species:S:1:pos:R:3:spacegroup_kinds:I:1:forces:R:3 spacegroup="P 1" unit_cell=conventional occupancy="_JSON {\"0\": {\"In\": 1}, \"1\": {\"In\": 1}, \"2\": {\"In\": 1}, \"3\": {\"In\": 1}, \"4\": {\"O\": 1}, \"5\": {\"O\": 1}, \"6\": {\"O\": 1}, \"7\": {\"O\": 1}, \"8\": {\"O\": 1}, \"9\": {\"O\": 1}}" n_minim_iter=3 energy=-11287.461985774215 stress="0.0596814537273994 -0.0018805342512116401 -0.0012984824747255233 -0.0018805342512116401 0.06215007590784209 -0.0007009249760976692 -0.0012984824747255233 -0.0007009249760976692 0.06268121543600054" free_energy=-11287.461985774215 pbc="T T T"
In      10.73760658       5.79619424       4.00219067        0      -0.04764539      -0.02571913      -0.01775870
In       8.12075957       4.38361188       3.02682241        1       0.04764539       0.02571913       0.01775870
In       4.45148454       2.40292553       1.65918631        2      -0.04764539      -0.02571913      -0.01775870
In       1.83463752       0.99034318       0.68381805        3       0.04764539       0.02571913       0.01775870
O        6.13507147       2.34043607       0.25260608        4      -0.00000000       0.04180723      -0.06054754
O        7.24918014       5.18811607       1.18021466        5      -0.03495105       0.06474777      -0.00000000
O        8.31507440       2.24222306       2.58689796        6       0.03495105      -0.02294054      -0.06054754
O        4.25716970       4.54431436       2.09911076        7      -0.03495105       0.02294054       0.06054754
O        6.43717263       4.44610135       4.43340264        8      -0.00000000      -0.04180723       0.06054754
O        5.32306396       1.59842135       3.50579406        9       0.03495105      -0.06474777      -0.00000000
10
Lattice="6.01388795677264 0.043202012059642386 0.02983038225372024 3.3360687976951757 5.003934426779165 0.029830382253711415 3.336068797695175 1.8008205635041896 4.66875731830982" Properties=species:S:1:pos:R:3:spacegroup_kinds:I:1:forces:R:3 spacegroup="P 1" unit_cell=conventional occupancy="_JSON {\"0\": {\"In\": 1}, \"1\": {\"In\": 1}, \"2\": {\"In\": 1}, \"3\": {\"In\": 1}, \"4\": {\"O\": 1}, \"5\": {\"O\": 1}, \"6\": {\"O\": 1}, \"7\": {\"O\": 1}, \"8\": {\"O\": 1}, \"9\": {\"O\": 1}}" n_minim_iter=4 energy=-11287.465757000416 stress="0.06144724501968556 0.0014521145785138534 0.0010026647112780715 0.0014521145785138534 0.05954101956451773 0.0005412416049390778 0.0010026647112780715 0.0005412416049390778 0.05913088321677303" free_energy=-11287.465757000416 pbc="T T T"
In      10.82685305       5.84436977       4.03545520        0      -0.13952824      -0.07531779      -0.05200587
In       8.20218529       4.42756575       3.05717193        1       0.13952824       0.07531779       0.05200587
In       4.48384028       2.42039127       1.67124616        2      -0.13952824      -0.07531779      -0.05200587
In       1.85917251       1.00358725       0.69296289        3       0.13952824       0.07531779       0.05200587
O        6.17845037       2.36694887       0.27975470        4      -0.00000000       0.05608354      -0.08122329
O        7.31699382       5.21645378       1.21193491        5      -0.04688612       0.08685780      -0.00000000
O        8.37597572       2.28646284       2.61413336        6       0.04688612      -0.03077426      -0.08122329
O        4.31004984       4.56149417       2.11428473        7      -0.04688612       0.03077426       0.08122329
O        6.50757519       4.48100815       4.44866339        8      -0.00000000      -0.05608354       0.08122329
O        5.36903174       1.63150323       3.51648318        9       0.04688612      -0.08685780       0.00000000
10
Lattice="6.071762499618628 0.10177823992334552 0.07027644448208908 3.416795842202423 5.0201757772617075 0.07027644448208034 3.4167958422024234 1.8443972792721643 4.669614790265635" Properties=species:S:1:pos:R:3:spacegroup_kinds:I:1:forces:R:3 spacegroup="P 1" unit_cell=conventional occupancy="_JSON {\"0\": {\"In\": 1}, \"1\": {\"In\": 1}, \"2\": {\"In\": 1}, \"3\": {\"In\": 1}, \"4\": {\"O\": 1}, \"5\": {\"O\": 1}, \"6\": {\"O\": 1}, \"7\": {\"O\": 1}, \"8\": {\"O\": 1}, \"9\": {\"O\": 1}}" n_minim_iter=5 energy=-11287.478679966487 stress="0.05206684880499442 0.0016031963227974156 0.0011069845325461232 0.0016031963227974156 0.04996229474590217 0.0005975537762748003 0.0011069845325461232 0.0005975537762748003 0.049509486748613885" free_energy=-11287.478679966487 pbc="T T T"
In      10.97138946       5.92239098       4.08932775        0      -0.09081035      -0.04901972      -0.03384743
In       8.38664183       4.52713598       3.12592378        1       0.09081035       0.04901972       0.03384743
In       4.51871236       2.43921533       1.68424391        2      -0.09081035      -0.04901972      -0.03384743
In       1.93396474       1.04396033       0.72083994        3       0.09081035       0.04901972       0.03384743
O        6.26221980       2.41337459       0.33846179        4       0.00000000       0.06362840      -0.09215017
O        7.45154420       5.26416258       1.27281837        5      -0.05319366       0.09854269       0.00000000
O        8.48969125       2.37397549       2.67326918        6       0.05319366      -0.03491429      -0.09215017
O        4.41566295       4.59237582       2.13689850        7      -0.05319366       0.03491429       0.09215017
O        6.64313439       4.55297672       4.47170590        8      -0.00000000      -0.06362840       0.09215017
O        5.45381000       1.70218873       3.53734932        9       0.05319366      -0.09854269      -0.00000000
10
Lattice="6.078462700343959 0.10850306538875545 0.07491984196889499 3.426094376328063 5.022087119830243 0.07491984196888626 3.4260943763280634 1.849416657612164 4.669756958175878" Properties=species:S:1:pos:R:3:spacegroup_kinds:I:1:forces:R:3 spacegroup="P 1" unit_cell=conventional occupancy="_JSON {\"0\": {\"In\": 1}, \"1\": {\"In\": 1}, \"2\": {\"In\": 1}, \"3\": {\"In\": 1}, \"4\": {\"O\": 1}, \"5\": {\"O\": 1}, \"6\": {\"O\": 1}, \"7\": {\"O\": 1}, \"8\": {\"O\": 1}, \"9\": {\"O\": 1}}" n_minim_iter=6 energy=-11287.480567371607 stress="0.05099692079391753 0.0015464553654742927 0.0010678056988270802 0.0015464553654742927 0.048966851938437514 0.0005764049185168739 0.0010678056988270802 0.0005764049185168739 0.04853006990068907" free_energy=-11287.480567371607 pbc="T T T"
In      10.98529879       5.92989928       4.09451213        0      -0.02384615      -0.01287223      -0.00888809
In       8.41067840       4.54011099       3.13488284        1       0.02384615       0.01287223       0.00888809
In       4.51997306       2.43989586       1.68471380        2      -0.02384615      -0.01287223      -0.00888809
In       1.94535267       1.05010757       0.72508452        3       0.02384615       0.01287223       0.00888809
O        6.27189422       2.42000965       0.34334528        4      -0.00000000       0.04500516      -0.06517896
O        7.46598596       5.27167580       1.27981900        5      -0.03762454       0.06970047      -0.00000000
O        8.50389685       2.38333898       2.67822376        6       0.03762454      -0.02469531      -0.06517896
O        4.42675461       4.59666787       2.14137289        7      -0.03762454       0.02469531       0.06517896
O        6.65875724       4.55999721       4.47625136        8       0.00000000      -0.04500516       0.06517896
O        5.46466550       1.70833105       3.53977764        9       0.03762454      -0.06970047      -0.00000000
10
Lattice="6.065239543334121 0.09522023316377844 0.06574823296753596 3.4077340272432877 5.018321074861188 0.06574823296752709 3.4077340272432872 1.8395056826922753 4.669484777133023" Properties=species:S:1:pos:R:3:spacegroup_kinds:I:1:forces:R:3 spacegroup="P 1" unit_cell=conventional occupancy="_JSON {\"0\": {\"In\": 1}, \"1\": {\"In\": 1}, \"2\": {\"In\": 1}, \"3\": {\"In\": 1}, \"4\": {\"O\": 1}, \"5\": {\"O\": 1}, \"6\": {\"O\": 1}, \"7\": {\"O\": 1}, \"8\": {\"O\": 1}, \"9\": {\"O\": 1}}" n_minim_iter=7 energy=-11287.483074057649 stress="0.04973950152892361 -0.0006064748563109453 -0.0004187623659134604 -0.0006064748563109453 0.05053563554225858 -0.00022604925942212896 -0.0004187623659134604 -0.00022604925942212896 0.05070692876332211" free_energy=-11287.483074057649 pbc="T T T"
In      10.94625193       5.90882166       4.07995832        0       0.00623473       0.00336553       0.00232385
In       8.37480948       4.52074884       3.12151354        1      -0.00623473      -0.00336553      -0.00232385
In       4.50589813       2.43229817       1.67946770        2       0.00623473       0.00336553       0.00232385
In       1.93445568       1.04422534       0.72102292        3      -0.00623473      -0.00336553      -0.00232385
O        6.25279668       2.41172230       0.32672817        4      -0.00000000       0.01049552      -0.01520019
O        7.43344961       5.26430064       1.26599355        5      -0.00877431       0.01625464       0.00000000
O        8.47987777       2.36220691       2.66147056        6       0.00877431      -0.00575912      -0.01520019
O        4.40082984       4.59084009       2.13951069        7      -0.00877431       0.00575912       0.01520019
O        6.62791093       4.54132471       4.47425308        8      -0.00000000      -0.01049552       0.01520019
O        5.44725799       1.68874637       3.53498770        9       0.00877431      -0.01625464       0.00000000
10
Lattice="6.068045475666604 0.09804258733241399 0.06769702886133673 3.411633205768079 5.019118160891354 0.06769702886132792 3.4116332057680787 1.841610471680161 4.66953968516212" Properties=species:S:1:pos:R:3:spacegroup_kinds:I:1:forces:R:3 spacegroup="P 1" unit_cell=conventional occupancy="_JSON {\"0\": {\"In\": 1}, \"1\": {\"In\": 1}, \"2\": {\"In\": 1}, \"3\": {\"In\": 1}, \"4\": {\"O\": 1}, \"5\": {\"O\": 1}, \"6\": {\"O\": 1}, \"7\": {\"O\": 1}, \"8\": {\"O\": 1}, \"9\": {\"O\": 1}}" n_minim_iter=8 energy=-11287.483290968437 stress="0.05059796065996013 -3.9538771534262815e-05 -2.730096779141093e-05 -3.9538771534262815e-05 0.05064986415307083 -1.4737147404234423e-05 -2.730096779141093e-05 -1.4737147404234423e-05 0.05066103151485678" free_energy=-11287.483290968437 pbc="T T T"
In      10.95551955       5.91382436       4.08341262        0       0.00039499       0.00021322       0.00014722
In       8.38144829       4.52433249       3.12398800        1      -0.00039499      -0.00021322      -0.00014722
In       4.50986361       2.43443875       1.68094574        2       0.00039499       0.00021322       0.00014722
In       1.93579234       1.04494688       0.72152113        3      -0.00039499      -0.00021322      -0.00014722
O        6.25685071       2.41541919       0.32745293        4       0.00000000       0.00055407      -0.00080244
O        7.43873874       5.26886504       1.26893047        5      -0.00046321       0.00085810      -0.00000000
O        8.48659590       2.36563257       2.66222277        6       0.00046321      -0.00030403      -0.00080244
O        4.40471600       4.59313866       2.14271098        7      -0.00046321       0.00030403       0.00080244
O        6.63446118       4.54335204       4.47748082        8       0.00000000      -0.00055407       0.00080244
O        5.45257316       1.68990619       3.53600328        9       0.00046321      -0.00085810       0.00000000
