10
Lattice="5.185618408821091 -0.16139752519293035 -0.11144272319220273 2.7105329693119247 4.423765191024008 -0.11144272319218897 2.7105329693119256 1.463154330799548 4.17627793018265" Properties=species:S:1:pos:R:3:spacegroup_kinds:I:1:forces:R:3 spacegroup="P 1" unit_cell=conventional occupancy="_JSON {\"0\": {\"In\": 1}, \"1\": {\"In\": 1}, \"2\": {\"In\": 1}, \"3\": {\"In\": 1}, \"4\": {\"O\": 1}, \"5\": {\"O\": 1}, \"6\": {\"O\": 1}, \"7\": {\"O\": 1}, \"8\": {\"O\": 1}, \"9\": {\"O\": 1}}" n_minim_iter=1 energy=-11276.703272003504 stress="-0.8153079118617346 -0.00015551829075761647 -0.00010738319332938989 -0.00015551829075761647 -0.8151037592935243 -5.796578815535601e-05 -0.00010738319332938989 -5.796578815535601e-05 -0.815059834587908" free_energy=-11276.703272003504 pbc="T T T"
In       9.17859453       4.95463457       3.42110554        0       0.03358072       0.01812698       0.01251643
In       6.73143198       3.63364843       2.50898318        1      -0.03358072      -0.01812698      -0.01251643
In       3.87525236       2.09187357       1.44440930        2       0.03358072       0.01812698       0.01251643
In       1.42808980       0.77088743       0.53228694        3      -0.03358072      -0.01812698      -0.01251643
O        5.24448028       1.95903129       0.05158123        4      -0.00000000      -0.13222418       0.19149439
O        6.09116351       4.50472858       0.87690540        5       0.11054008      -0.20477848       0.00000000
O        7.10833003       1.74844421       2.13972019        6      -0.11054008       0.07255430       0.19149439
O        3.49835430       3.97707779       1.81367229        7       0.11054008      -0.07255430      -0.19149439
O        5.36220405       3.76649070       3.90181125        8       0.00000000       0.13222418      -0.19149439
O        4.51552083       1.22079341       3.07648708        9      -0.11054008       0.20477848      -0.00000000
10
Lattice="5.188009909312004 -0.15880163967030794 -0.1096503007161429 2.714015411114497 4.424340078261904 -0.10965030071612913 2.714015411114496 1.4650341639773319 4.176180457659956" Properties=species:S:1:pos:R:3:spacegroup_kinds:I:1:forces:R:3 spacegroup="P 1" unit_cell=conventional occupancy="_JSON {\"0\": {\"In\": 1}, \"1\": {\"In\": 1}, \"2\": {\"In\": 1}, \"3\": {\"In\": 1}, \"4\": {\"O\": 1}, \"5\": {\"O\": 1}, \"6\": {\"O\": 1}, \"7\": {\"O\": 1}, \"8\": {\"O\": 1}, \"9\": {\"O\": 1}}" n_minim_iter=2 energy=-11276.708608742618 stress="-0.8099914555088222 0.0011985413245410887 0.0008275759423079451 0.0011985413245410887 -0.8115648093053293 0.00044672812626922963 0.0008275759423079451 0.00044672812626922963 -0.8119033262288934" free_energy=-11276.708608742618 pbc="T T T"
In       9.18777622       4.95959088       3.42452781        0      -0.07053097      -0.03807284      -0.02628876
In       6.73628486       3.63626803       2.51079197        1       0.07053097       0.03807284       0.02628876
In       3.87975586       2.09430457       1.44608788        2      -0.07053097      -0.03807284      -0.02628876
In       1.42826449       0.77098173       0.53235205        3       0.07053097       0.03807284       0.02628876
O        5.24801513       1.95705697       0.05991700        4      -0.00000000      -0.00903466       0.01308450
O        6.10023079       4.50055329       0.87956966        5       0.00755302      -0.01399218      -0.00000000
O        7.10981489       1.75443313       2.14800723        6      -0.00755302       0.00495752       0.01308450
O        3.50622583       3.97613947       1.80887262        7       0.00755302      -0.00495752      -0.01308450
O        5.36802559       3.77351563       3.89696285        8       0.00000000       0.00903466      -0.01308450
O        4.51580993       1.23001931       3.07731019        9      -0.00755302       0.01399218       0.00000000
10
Lattice="5.183231657089411 -0.16399050404322896 -0.11323313865186765 2.707055563249838 4.423192678817908 -0.11323313865185392 2.7070555632498383 1.461277215930518 4.17637691256903" Properties=species:S:1:pos:R:3:spacegroup_kinds:I:1:forces:R:3 spacegroup="P 1" unit_cell=conventional occupancy="_JSON {\"0\": {\"In\": 1}, \"1\": {\"In\": 1}, \"2\": {\"In\": 1}, \"3\": {\"In\": 1}, \"4\": {\"O\": 1}, \"5\": {\"O\": 1}, \"6\": {\"O\": 1}, \"7\": {\"O\": 1}, \"8\": {\"O\": 1}, \"9\": {\"O\": 1}}" n_minim_iter=3 energy=-11276.709029669979 stress="-0.8112599439757615 -0.00044390216751371306 -0.0003065082056921278 -0.00044390216751371306 -0.8106772230126864 -0.00016545410709153434 -0.0003065082056921278 -0.00016545410709153434 -0.8105518469439866" free_energy=-11276.709029669979 pbc="T T T"
In       9.17106479       4.95056999       3.41829901        0      -0.05944217      -0.03208708      -0.02215567
In       6.72494937       3.63014909       2.50656694        1       0.05944217       0.03208708       0.02215567
In       3.87239340       2.09033030       1.44334369        2      -0.05944217      -0.03208708      -0.02215567
In       1.42627798       0.76990940       0.53161162        3       0.05944217       0.03208708       0.02215567
O        5.24095152       1.95205896       0.05620989        4      -0.00000000      -0.00360527       0.00522134
O        6.08958716       4.49504728       0.87424452        5       0.00301402      -0.00558355      -0.00000000
O        7.09937144       1.74737122       2.14439834        6      -0.00301402       0.00197829       0.00522134
O        3.49797133       3.97310816       1.80551229        7       0.00301402      -0.00197829      -0.00522134
O        5.35639125       3.76842043       3.89370074        8       0.00000000       0.00360527      -0.00522134
O        4.50775561       1.22543211       3.07566611        9      -0.00301402       0.00558355      -0.00000000
10
Lattice="5.184906516338167 -0.16217069333246387 -0.11197658492801363 2.7094959659353246 4.423594299607751 -0.11197658492799989 2.7094959659353237 1.462594553073652 4.176307275143149" Properties=species:S:1:pos:R:3:spacegroup_kinds:I:1:forces:R:3 spacegroup="P 1" unit_cell=conventional occupancy="_JSON {\"0\": {\"In\": 1}, \"1\": {\"In\": 1}, \"2\": {\"In\": 1}, \"3\": {\"In\": 1}, \"4\": {\"O\": 1}, \"5\": {\"O\": 1}, \"6\": {\"O\": 1}, \"7\": {\"O\": 1}, \"8\": {\"O\": 1}, \"9\": {\"O\": 1}}" n_minim_iter=4 energy=-11276.709613644767 stress="-0.810441559979287 -1.3175688446483957e-05 -9.097624663286998e-06 -1.3175688446483957e-05 -0.810424263943002 -4.910927237233371e-06 -9.097624663286998e-06 -4.910927237233371e-06 -0.8104205425893038" free_energy=-11276.709613644767 pbc="T T T"
In       9.17365369       4.95196749       3.41926396        0       0.00006820       0.00003681       0.00002542
In       6.73219397       3.63405975       2.50926719        1      -0.00006820      -0.00003681      -0.00002542
In       3.87170447       2.08995841       1.44308691        2       0.00006820       0.00003681       0.00002542
In       1.43024474       0.77205067       0.53309014        3      -0.00006820      -0.00003681      -0.00002542
O        5.24342786       1.95293463       0.05877987        4      -0.00000000       0.00007521      -0.00010893
O        6.09405193       4.49561953       0.87611194        5      -0.00006288       0.00011649       0.00000000
O        7.10229976       1.75032872       2.14693350        6       0.00006288      -0.00004127      -0.00010893
O        3.50159867       3.97368943       1.80542060        7      -0.00006288       0.00004127       0.00010893
O        5.36047057       3.77108353       3.89357423        8      -0.00000000      -0.00007521       0.00010893
O        4.50984650       1.22839863       3.07624216        9       0.00006288      -0.00011649      -0.00000000
