10
Lattice="5.56866997726922 -0.05299980354144929 -0.03659561959360012 3.011342768723163 4.684518014072924 -0.036595619593593684 3.011342768723155 1.6255324187027598 4.393596774772758" Properties=species:S:1:pos:R:3:spacegroup_kinds:I:1:forces:R:3 spacegroup="P 1" unit_cell=conventional occupancy="_JSON {\"0\": {\"In\": 1}, \"1\": {\"In\": 1}, \"2\": {\"In\": 1}, \"3\": {\"In\": 1}, \"4\": {\"O\": 1}, \"5\": {\"O\": 1}, \"6\": {\"O\": 1}, \"7\": {\"O\": 1}, \"8\": {\"O\": 1}, \"9\": {\"O\": 1}}" n_minim_iter=1 energy=-11285.518210427508 stress="-0.29726460074883015 0.002544193435674081 0.0017567298148087299 0.002544193435674081 -0.30060442417443783 0.000948288349307946 0.0017567298148087299 0.000948288349307946 -0.3013230081170851" free_energy=-11285.518210427508 pbc="T T T"
In       9.98340265       5.38907256       3.72107887        0       0.16355216       0.08828598       0.06096023
In       7.40363063       3.99650340       2.75952944        1      -0.16355216      -0.08828598      -0.06096023
In       4.18772490       2.26054724       1.56087610        2       0.16355216       0.08828598       0.06096023
In       1.60795287       0.86797808       0.59932667        3      -0.16355216      -0.08828598      -0.06096023
O        5.68217387       2.17200167       0.14326365        4      -0.00000000      -0.00992346       0.01437170
O        6.65761837       4.86228142       1.04350577        5       0.00829606      -0.01536867       0.00000000
O        7.71807215       2.00250823       2.34006204        6      -0.00829606       0.00544522       0.01437170
O        3.87328338       4.25454241       1.98034350        7       0.00829606      -0.00544522      -0.01437170
O        5.90918165       4.08504897       4.17714189        8       0.00000000       0.00992346      -0.01437170
O        4.93373716       1.39476922       3.27689977        9      -0.00829606       0.01536867      -0.00000000
10
Lattice="5.546363605670633 -0.07645201699869296 -0.05278904343597836 2.9794966079527874 4.678738518063256 -0.05278904343597188 2.979496607952781 1.60834175967811 4.393929629339916" Properties=species:S:1:pos:R:3:spacegroup_kinds:I:1:forces:R:3 spacegroup="P 1" unit_cell=conventional occupancy="_JSON {\"0\": {\"In\": 1}, \"1\": {\"In\": 1}, \"2\": {\"In\": 1}, \"3\": {\"In\": 1}, \"4\": {\"O\": 1}, \"5\": {\"O\": 1}, \"6\": {\"O\": 1}, \"7\": {\"O\": 1}, \"8\": {\"O\": 1}, \"9\": {\"O\": 1}}" n_minim_iter=2 energy=-11285.521844856914 stress="-0.2981461282205604 -0.0013399299897789744 -0.0009252028329957155 -0.0013399299897789744 -0.29638717014705585 -0.0004994274346657483 -0.0009252028329957155 -0.0004994274346657483 -0.2960087192965606" free_energy=-11285.521844856914 pbc="T T T"
In       9.91165282       5.35034177       3.69433581        0       0.19437830       0.10492602       0.07244994
In       7.34638242       3.96560063       2.73819151        1      -0.19437830      -0.10492602      -0.07244994
In       4.15897441       2.24502764       1.55016004        2       0.19437830       0.10492602       0.07244994
In       1.59370401       0.86028650       0.59401574        3      -0.19437830      -0.10492602      -0.07244994
O        5.64952101       2.15089363       0.12393302        4      -0.00000000      -0.00959303       0.01389316
O        6.60718344       4.83950380       1.01929884        5       0.00801982      -0.01485694       0.00000000
O        7.67135519       1.96936103       2.32089784        6      -0.00801982       0.00526391       0.01389316
O        3.83400164       4.24126724       1.96745371        7       0.00801982      -0.00526391      -0.01389316
O        5.85583582       4.05973464       4.16441852        8       0.00000000       0.00959303      -0.01389316
O        4.89817339       1.37112447       3.26905270        9      -0.00801982       0.01485694      -0.00000000
10
Lattice="5.5449800010282155 -0.07791211918831914 -0.05379722348060001 2.9775167411495245 4.678383007652709 -0.05379722348059357 2.9775167411495183 1.6072730212711626 4.393954385589562" Properties=species:S:1:pos:R:3:spacegroup_kinds:I:1:forces:R:3 spacegroup="P 1" unit_cell=conventional occupancy="_JSON {\"0\": {\"In\": 1}, \"1\": {\"In\": 1}, \"2\": {\"In\": 1}, \"3\": {\"In\": 1}, \"4\": {\"O\": 1}, \"5\": {\"O\": 1}, \"6\": {\"O\": 1}, \"7\": {\"O\": 1}, \"8\": {\"O\": 1}, \"9\": {\"O\": 1}}" n_minim_iter=3 energy=-11285.528307001103 stress="-0.29281440803486514 0.0005589688438124383 0.0003859601312495776 0.0005589688438124383 -0.2935481797732063 0.0002083425085805267 0.0003859601312495776 0.0002083425085805267 -0.2937060553600299" free_energy=-11285.528307001103 pbc="T T T"
In       9.91882730       5.35421458       3.69700993        0       0.00662715       0.00357735       0.00247011
In       7.33119293       3.95740130       2.73252999        1      -0.00662715      -0.00357735      -0.00247011
In       4.16882056       2.25034262       1.55382996        2       0.00662715       0.00357735       0.00247011
In       1.58118619       0.85352935       0.58935002        3      -0.00662715      -0.00357735      -0.00247011
O        5.64749338       2.14895483       0.12363728        4       0.00000000       0.04557180      -0.06599961
O        6.60457355       4.83711966       1.01779276        5      -0.03809825       0.07057805       0.00000000
O        7.66792994       1.96764311       2.32061448        6       0.03809825      -0.02500624      -0.06599961
O        3.83208355       4.24010081       1.96574547        7      -0.03809825       0.02500624       0.06599961
O        5.85252012       4.05878909       4.16272266        8      -0.00000000      -0.04557180       0.06599961
O        4.89543994       1.37062426       3.26856718        9       0.03809825      -0.07057805       0.00000000
10
Lattice="5.5338884039842196 -0.08964019194629433 -0.061895292917431066 2.9616258122494843 4.675545826957615 -0.06189529291742465 2.961625812249478 1.5986950472329333 4.394170451088468" Properties=species:S:1:pos:R:3:spacegroup_kinds:I:1:forces:R:3 spacegroup="P 1" unit_cell=conventional occupancy="_JSON {\"0\": {\"In\": 1}, \"1\": {\"In\": 1}, \"2\": {\"In\": 1}, \"3\": {\"In\": 1}, \"4\": {\"O\": 1}, \"5\": {\"O\": 1}, \"6\": {\"O\": 1}, \"7\": {\"O\": 1}, \"8\": {\"O\": 1}, \"9\": {\"O\": 1}}" n_minim_iter=4 energy=-11285.529504836026 stress="-0.2923701622974294 -0.0008270927422471994 -0.0005710959173640964 -0.0008270927422471994 -0.2912844179188543 -0.0003082793952600244 -0.0005710959173640964 -0.0003082793952600244 -0.2910508132132864" free_energy=-11285.529504836026 pbc="T T T"
In       9.88568719       5.33632544       3.68465773        0       0.00787967       0.00425347       0.00293696
In       7.30002286       3.94057559       2.72091207        1      -0.00787967      -0.00425347      -0.00293696
In       4.15711718       2.24402510       1.54946780        2       0.00787967       0.00425347       0.00293696
In       1.57145284       0.84827525       0.58572214        3      -0.00787967      -0.00425347      -0.00293696
O        5.63122921       2.14044788       0.11104152        4      -0.00000000       0.02010429      -0.02911615
O        6.57773645       4.82891869       1.00569968        5      -0.01680729       0.03113596       0.00000000
O        7.64634779       1.94997970       2.30812675        6       0.01680729      -0.01103166      -0.02911615
O        3.81079225       4.23462099       1.96225312        7      -0.01680729       0.01103166       0.02911615
O        5.82591082       4.04415281       4.15933835        8      -0.00000000      -0.02010429       0.02911615
O        4.87940358       1.35568200       3.26468019        9       0.01680729      -0.03113596      -0.00000000
10
Lattice="5.539050804420046 -0.08417639812869085 -0.058122620063453936 2.969026293017212 4.676863516430718 -0.05812262006344757 2.9690262930172087 1.60268985032439 4.394065979699323" Properties=species:S:1:pos:R:3:spacegroup_kinds:I:1:forces:R:3 spacegroup="P 1" unit_cell=conventional occupancy="_JSON {\"0\": {\"In\": 1}, \"1\": {\"In\": 1}, \"2\": {\"In\": 1}, \"3\": {\"In\": 1}, \"4\": {\"O\": 1}, \"5\": {\"O\": 1}, \"6\": {\"O\": 1}, \"7\": {\"O\": 1}, \"8\": {\"O\": 1}, \"9\": {\"O\": 1}}" n_minim_iter=5 energy=-11285.529998478374 stress="-0.2921013131464694 5.0302515063732205e-05 3.473317873751451e-05 5.0302515063732205e-05 -0.29216734645921794 1.8749081091623203e-05 3.473317873751451e-05 1.8749081091623203e-05 -0.2921815539403492" free_energy=-11285.529998478374 pbc="T T T"
In       9.90358876       5.34598876       3.69133012        0      -0.00252215      -0.00136147      -0.00094007
In       7.31206633       3.94707670       2.72540100        1       0.00252215       0.00136147       0.00094007
In       4.16503707       2.24830028       1.55241975        2      -0.00252215      -0.00136147      -0.00094007
In       1.57351463       0.84938822       0.58649063        3       0.00252215       0.00136147       0.00094007
O        5.63880125       2.14670063       0.11359069        4       0.00000000       0.00105446      -0.00152713
O        6.58831754       4.83628396       1.01133257        5      -0.00088154       0.00163307       0.00000000
O        7.65831126       1.95694940       2.31062368        6       0.00088154      -0.00057861      -0.00152713
O        3.81879214       4.23842758       1.96719707        7      -0.00088154       0.00057861       0.00152713
O        5.83830215       4.04867635       4.16423006        8      -0.00000000      -0.00105446       0.00152713
O        4.88878586       1.35909302       3.26648818        9       0.00088154      -0.00163307      -0.00000000
