10
Lattice="5.87992424074282 0.0046296145923934015 0.003196683820835221 3.2303132635733074 4.913105609427572 0.0031966838208326116 3.2303132635733047 1.7437333893180262 4.593257103097278" Properties=species:S:1:pos:R:3:spacegroup_kinds:I:1:forces:R:3 spacegroup="P 1" unit_cell=conventional occupancy="_JSON {\"0\": {\"In\": 1}, \"1\": {\"In\": 1}, \"2\": {\"In\": 1}, \"3\": {\"In\": 1}, \"4\": {\"O\": 1}, \"5\": {\"O\": 1}, \"6\": {\"O\": 1}, \"7\": {\"O\": 1}, \"8\": {\"O\": 1}, \"9\": {\"O\": 1}}" n_minim_iter=1 energy=-11287.686572190247 stress="-9.149831221281688e-05 7.4928913881535065e-06 5.173735761810765e-06 7.4928913881535065e-06 -0.00010133441181752347 2.7928018612583222e-06 5.173735761810765e-06 2.7928018612583222e-06 -0.00010345071052607985" free_energy=-11287.686572190247 pbc="T T T"
In      10.57848909       5.71030211       3.94288336        0       0.00761196       0.00410896       0.00283718
In       7.93233707       4.28190082       2.95659235        1      -0.00761196      -0.00410896      -0.00283718
In       4.40821371       2.37956780       1.64305813        2       0.00761196       0.00410896       0.00283718
In       1.76206169       0.95116651       0.65676711        3      -0.00761196      -0.00410896      -0.00283718
O        6.02509982       2.31313814       0.21672558        4      -0.00000000       0.00058389      -0.00084561
O        7.10065187       5.12386685       1.15310930        5      -0.00048813       0.00090428      -0.00000000
O        8.17986103       2.18537276       2.51335413        6       0.00048813      -0.00032039      -0.00084561
O        4.16068975       4.47609587       2.08629635        7      -0.00048813       0.00032039       0.00084561
O        6.31545096       4.34833049       4.38292490        8      -0.00000000      -0.00058389       0.00084561
O        5.23989891       1.53760178       3.44654117        9       0.00048813      -0.00090428      -0.00000000
