10
Lattice="6.164073086609751 0.10078023472747116 0.0695873359182774 3.4666143405660135 5.0978955154613015 0.06958733591827723 3.466614340566012 1.8712894633776045 4.7425369611772785" Properties=species:S:1:pos:R:3:spacegroup_kinds:I:1:forces:R:3 spacegroup="P 1" unit_cell=conventional occupancy="_JSON {\"0\": {\"In\": 1}, \"1\": {\"In\": 1}, \"2\": {\"In\": 1}, \"3\": {\"In\": 1}, \"4\": {\"O\": 1}, \"5\": {\"O\": 1}, \"6\": {\"O\": 1}, \"7\": {\"O\": 1}, \"8\": {\"O\": 1}, \"9\": {\"O\": 1}}" n_minim_iter=1 energy=-11286.984342589194 stress="0.09829885703252572 0.001564099719221981 0.0010799888779828416 0.001564099719221981 0.09624562601365506 0.000582981436086609 0.0010799888779828416 0.000582981436086609 0.09580386049273801" free_energy=-11286.984342589194 pbc="T T T"
In      11.12076554       6.00302466       4.14500417        0      -0.02922375      -0.01577507      -0.01089247
In       8.52518712       4.60192317       3.17756328        1       0.02922375       0.01577507       0.01089247
In       4.57211465       2.46804206       1.70414836        2      -0.02922375      -0.01577507      -0.01089247
In       1.97653624       1.06694056       0.73670746        3       0.02922375       0.01577507       0.01089247
O        6.35636199       2.44976297       0.34009572        4       0.00000000      -0.05454916       0.07900111
O        7.56141304       5.34543794       1.29001525        5       0.04560337      -0.08448148       0.00000000
O        8.61792528       2.40679895       2.71136420        6      -0.04560337       0.02993232       0.07900111
O        4.47937649       4.66316628       2.17034744        7       0.04560337      -0.02993232      -0.07900111
O        6.74093979       4.62020225       4.54161592        8       0.00000000       0.05454916      -0.07900111
O        5.53588874       1.72452729       3.59169639        9      -0.04560337       0.08448148      -0.00000000
10
Lattice="6.153471749693159 0.09010961398945638 0.062219422241942865 3.4518764632687153 5.094887947652687 0.06221942224194264 3.451876463268713 1.863333910267395 4.742334993912634" Properties=species:S:1:pos:R:3:spacegroup_kinds:I:1:forces:R:3 spacegroup="P 1" unit_cell=conventional occupancy="_JSON {\"0\": {\"In\": 1}, \"1\": {\"In\": 1}, \"2\": {\"In\": 1}, \"3\": {\"In\": 1}, \"4\": {\"O\": 1}, \"5\": {\"O\": 1}, \"6\": {\"O\": 1}, \"7\": {\"O\": 1}, \"8\": {\"O\": 1}, \"9\": {\"O\": 1}}" n_minim_iter=2 energy=-11286.985496797168 stress="0.09562209991466099 -0.0003871468967104396 -0.0002673194946700748 -0.0003871468967104396 0.09613031688500227 -0.00014429991301096197 -0.0002673194946700748 -0.00014429991301096197 0.09623966294855901" free_energy=-11286.985496797168 pbc="T T T"
In      11.08651493       5.98453607       4.13223806        0      -0.01901553      -0.01026464      -0.00708759
In       8.49932210       4.58796115       3.16792270        1       0.01901553       0.01026464       0.00708759
In       4.55790259       2.46037034       1.69885114        2      -0.01901553      -0.01026464      -0.00708759
In       1.97070976       1.06379541       0.73453578        3       0.01901553       0.01026464       0.00708759
O        6.34104205       2.43957263       0.33187585        4      -0.00000000      -0.05622029       0.08142134
O        7.53826151       5.33404747       1.27891288        5       0.04700045      -0.08706960       0.00000000
O        8.59569905       2.39177376       2.70304335        6      -0.04700045       0.03084930       0.08142134
O        4.46152564       4.65655772       2.16373050        7       0.04700045      -0.03084930      -0.08142134
O        6.71618264       4.60875886       4.53489799        8       0.00000000       0.05622029      -0.08142134
O        5.51896317       1.71428401       3.58786096        9      -0.04700045       0.08706960      -0.00000000
10
Lattice="6.153230959398203 0.08986691648194119 0.062051843023382264 3.451541440047338 5.094819819189924 0.06205184302338203 3.4515414400473357 1.8631530636653326 4.742330659347523" Properties=species:S:1:pos:R:3:spacegroup_kinds:I:1:forces:R:3 spacegroup="P 1" unit_cell=conventional occupancy="_JSON {\"0\": {\"In\": 1}, \"1\": {\"In\": 1}, \"2\": {\"In\": 1}, \"3\": {\"In\": 1}, \"4\": {\"O\": 1}, \"5\": {\"O\": 1}, \"6\": {\"O\": 1}, \"7\": {\"O\": 1}, \"8\": {\"O\": 1}, \"9\": {\"O\": 1}}" n_minim_iter=3 energy=-11286.989203328714 stress="0.09396983911923519 -0.00016467014558219258 -0.00011370242073267377 -0.00016467014558219258 0.09418600554759862 -6.137692888683337e-05 -0.00011370242073267377 -6.137692888683337e-05 0.09423251510985038" free_energy=-11286.989203328714 pbc="T T T"
In      11.08387166       5.98310923       4.13125285        0      -0.01830651      -0.00988191      -0.00682332
In       8.50059911       4.58865048       3.16839868        1       0.01830651       0.00988191       0.00682332
In       4.55571474       2.45918933       1.69803568        2      -0.01830651      -0.00988191      -0.00682332
In       1.97244219       1.06473058       0.73518150        3       0.01830651       0.00988191       0.00682332
O        6.34069394       2.43434698       0.33892150        4       0.00000000      -0.01956850       0.02834018
O        7.54191035       5.32605437       1.27866043        5       0.01635936      -0.03030616       0.00000000
O        8.59101898       2.39417247       2.71008682        6      -0.01635936       0.01073766       0.02834018
O        4.46529487       4.65366735       2.15634753        7       0.01635936      -0.01073766      -0.02834018
O        6.71561991       4.61349283       4.52751286        8       0.00000000       0.01956850      -0.02834018
O        5.51440350       1.72178544       3.58777392        9      -0.01635936       0.03030616      -0.00000000
10
Lattice="6.153311154552933 0.08994774848515717 0.06210765638575387 3.4516530208383513 5.094842508453088 0.062107656385753635 3.4516530208383487 1.8632132953317433 4.742332101721822" Properties=species:S:1:pos:R:3:spacegroup_kinds:I:1:forces:R:3 spacegroup="P 1" unit_cell=conventional occupancy="_JSON {\"0\": {\"In\": 1}, \"1\": {\"In\": 1}, \"2\": {\"In\": 1}, \"3\": {\"In\": 1}, \"4\": {\"O\": 1}, \"5\": {\"O\": 1}, \"6\": {\"O\": 1}, \"7\": {\"O\": 1}, \"8\": {\"O\": 1}, \"9\": {\"O\": 1}}" n_minim_iter=4 energy=-11286.989835796241 stress="0.09296015067800131 -1.1902887515905322e-05 -8.218776719381414e-06 -1.1902887515905322e-05 0.09297577587979519 -4.436522434773694e-06 -8.218776719381414e-06 -4.436522434773694e-06 0.09297913774141318" free_energy=-11286.989835796241 pbc="T T T"
In      11.08276370       5.98251115       4.13083988        0      -0.01477591      -0.00797609      -0.00550738
In       8.50216210       4.58949419       3.16898124        1       0.01477591       0.00797609       0.00550738
In       4.55445510       2.45850938       1.69756617        2      -0.01477591      -0.00797609      -0.00550738
In       1.97385351       1.06549241       0.73570754        3       0.01477591       0.00797609       0.00550738
O        6.34080988       2.43147965       0.34324812        4       0.00000000       0.00110973      -0.00160717
O        7.54454720       5.32158038       1.27874451        5      -0.00092774       0.00171866       0.00000000
O        8.58872559       2.39590194       2.71441417        6       0.00092774      -0.00060893      -0.00160717
O        4.46789162       4.65210162       2.15213325        7      -0.00092774       0.00060893       0.00160717
O        6.71580732       4.61652391       4.52329930        8      -0.00000000      -0.00110973       0.00160717
O        5.51207001       1.72642319       3.58780291        9       0.00092774      -0.00171866       0.00000000
10
Lattice="6.1535947041390955 0.09023353657750953 0.062304989047636906 3.4520475309606815 5.094922739151228 0.06230498904763668 3.452047530960677 1.8634262531524244 4.74233721161231" Properties=species:S:1:pos:R:3:spacegroup_kinds:I:1:forces:R:3 spacegroup="P 1" unit_cell=conventional occupancy="_JSON {\"0\": {\"In\": 1}, \"1\": {\"In\": 1}, \"2\": {\"In\": 1}, \"3\": {\"In\": 1}, \"4\": {\"O\": 1}, \"5\": {\"O\": 1}, \"6\": {\"O\": 1}, \"7\": {\"O\": 1}, \"8\": {\"O\": 1}, \"9\": {\"O\": 1}}" n_minim_iter=5 energy=-11286.989873438308 stress="0.09279143047910603 1.574278209989123e-05 1.0870168339017167e-05 1.574278209989123e-05 0.09277076455461425 5.867752188686704e-06 1.0870168339017167e-05 5.867752188686704e-06 0.09276631815298328" free_energy=-11286.989873438308 pbc="T T T"
In      11.08267815       5.98246497       4.13080799        0      -0.00468003      -0.00252630      -0.00174437
In       8.50385651       4.59040884       3.16961280        1       0.00468003       0.00252630       0.00174437
In       4.55383326       2.45817370       1.69733440        2      -0.00468003      -0.00252630      -0.00174437
In       1.97501163       1.06611757       0.73613920        3       0.00468003       0.00252630       0.00174437
O        6.34121980       2.43129844       0.34412574        4       0.00000000       0.00320926      -0.00464783
O        7.54554633       5.32118201       1.27904179        5      -0.00268296       0.00497025       0.00000000
O        8.58894080       2.39655333       2.71529435        6       0.00268296      -0.00176099      -0.00464783
O        4.46874898       4.65202921       2.15165284        7      -0.00268296       0.00176099       0.00464783
O        6.71646998       4.61728410       4.52282145        8      -0.00000000      -0.00320926       0.00464783
O        5.51214345       1.72740053       3.58790541        9       0.00268296      -0.00497025      -0.00000000
