10
Lattice="5.830510776486815 0.00459070842867326 0.0031698196614942525 3.2031664905112947 4.871817055616757 0.0031698196614909765 3.203166490511292 1.729079474747491 4.554656478941301" Properties=species:S:1:pos:R:3:spacegroup_kinds:I:1:forces:R:3 spacegroup="P 1" unit_cell=conventional occupancy="_JSON {\"0\": {\"In\": 1}, \"1\": {\"In\": 1}, \"2\": {\"In\": 1}, \"3\": {\"In\": 1}, \"4\": {\"O\": 1}, \"5\": {\"O\": 1}, \"6\": {\"O\": 1}, \"7\": {\"O\": 1}, \"8\": {\"O\": 1}, \"9\": {\"O\": 1}}" n_minim_iter=1 energy=-11287.613976323402 stress="-0.04359828518895651 0.0010756913957867742 0.0007427497936545356 0.0010756913957867742 -0.045010370950813866 0.0004009387038484635 0.0007427497936545356 0.0004009387038484635 -0.045314190051195954" free_energy=-11287.613976323402 pbc="T T T"
In      10.48959002       5.66231411       3.90974832        0       0.06628724       0.03578207       0.02470701
In       7.86567562       4.24591676       2.93174586        1      -0.06628724      -0.03578207      -0.02470701
In       4.37116814       2.35957049       1.62925027        2       0.06628724       0.03578207       0.02470701
In       1.74725375       0.94317314       0.65124780        3      -0.06628724      -0.03578207      -0.02470701
O        5.97446633       2.29369908       0.21490427        4      -0.00000000       0.02614096      -0.03785879
O        7.04097971       5.08080711       1.14341885        5      -0.02185398       0.04048508      -0.00000000
O        8.11111945       2.16700741       2.49223251        6       0.02185398      -0.01434412      -0.03785879
O        4.12572432       4.43847984       2.06876362        7      -0.02185398       0.01434412       0.03785879
O        6.26237743       4.31178817       4.34609186        8       0.00000000      -0.02614096       0.03785879
O        5.19586406       1.52468014       3.41757727        9       0.02185398      -0.04048508      -0.00000000
10
Lattice="5.8193005910542555 -0.006978397591859063 -0.004818485476928582 3.187343386556831 4.8687935059159955 -0.004818485476931847 3.1873433865568286 1.7205381128309292 4.554659375117777" Properties=species:S:1:pos:R:3:spacegroup_kinds:I:1:forces:R:3 spacegroup="P 1" unit_cell=conventional occupancy="_JSON {\"0\": {\"In\": 1}, \"1\": {\"In\": 1}, \"2\": {\"In\": 1}, \"3\": {\"In\": 1}, \"4\": {\"O\": 1}, \"5\": {\"O\": 1}, \"6\": {\"O\": 1}, \"7\": {\"O\": 1}, \"8\": {\"O\": 1}, \"9\": {\"O\": 1}}" n_minim_iter=2 energy=-11287.614508890574 stress="-0.04495011317814205 -0.0011169604835790513 -0.0007712455148898343 -0.0011169604835790513 -0.04348385250320107 -0.0004163207860947781 -0.0007712455148898343 -0.0004163207860947781 -0.04316837733396412" free_energy=-11287.614508890574 pbc="T T T"
In      10.45379658       5.64299270       3.89640716        0       0.08604690       0.04644839       0.03207196
In       7.83718448       4.23053715       2.92112645        1      -0.08604690      -0.04644839      -0.03207196
In       4.35680290       2.35181608       1.62389596        2       0.08604690       0.04644839       0.03207196
In       1.74019079       0.93936054       0.64861525        3      -0.08604690      -0.04644839      -0.03207196
O        5.95814714       2.28362885       0.20474745        4       0.00000000       0.01455709      -0.02108239
O        7.01549677       5.07004699       1.13143712        5      -0.01216980       0.02254489       0.00000000
O        8.08814089       2.15034679       2.48207714        6       0.01216980      -0.00798779      -0.02108239
O        4.10584648       4.43200645       2.06294527        7      -0.01216980       0.00798779       0.02108239
O        6.23584023       4.29872438       4.34027495        8       0.00000000      -0.01455709       0.02108239
O        5.17849060       1.51230625       3.41358529        9       0.01216980      -0.02254489      -0.00000000
10
Lattice="5.828202174605532 0.0022112128941069635 0.001526811431481031 3.1999104400956573 4.871192734116144 0.0015268114314777594 3.199910440095655 1.727321848361507 4.554654785626681" Properties=species:S:1:pos:R:3:spacegroup_kinds:I:1:forces:R:3 spacegroup="P 1" unit_cell=conventional occupancy="_JSON {\"0\": {\"In\": 1}, \"1\": {\"In\": 1}, \"2\": {\"In\": 1}, \"3\": {\"In\": 1}, \"4\": {\"O\": 1}, \"5\": {\"O\": 1}, \"6\": {\"O\": 1}, \"7\": {\"O\": 1}, \"8\": {\"O\": 1}, \"9\": {\"O\": 1}}" n_minim_iter=3 energy=-11287.616117076019 stress="-0.042764513641107206 0.0010304977973726256 0.0007115442478584218 0.0010304977973726256 -0.0441172726878868 0.0003840938507149187 0.0007115442478584218 0.0003840938507149187 -0.04440832727563849" free_energy=-11287.616117076019 pbc="T T T"
In      10.48685686       5.66083874       3.90872960        0       0.02767677       0.01494001       0.01031587
In       7.85517773       4.24024996       2.92783301        1      -0.02767677      -0.01494001      -0.01031587
In       4.37284534       2.36047584       1.62987540        2       0.02767677       0.01494001       0.01031587
In       1.74116620       0.93988706       0.64897881        3      -0.02767677      -0.01494001      -0.01031587
O        5.97110686       2.29287871       0.21100194        4       0.00000000       0.02068839      -0.02996208
O        7.03468826       5.08053043       1.14095392        5      -0.01729560       0.03204057      -0.00000000
O        8.10743589       2.16289263       2.48832933        6       0.01729560      -0.01135217      -0.02996208
O        4.12058717       4.43783318       2.06937908        7      -0.01729560       0.01135217       0.02996208
O        6.25691621       4.30784710       4.34670647        8      -0.00000000      -0.02068839       0.02996208
O        5.19333481       1.52019537       3.41675450        9       0.01729560      -0.03204057       0.00000000
10
Lattice="5.820882566501693 -0.00534352541760278 -0.00368962921378276 3.1895782123328633 4.869218955199974 -0.0036896292137860273 3.189578212332859 1.7217444789035072 4.554657264428105" Properties=species:S:1:pos:R:3:spacegroup_kinds:I:1:forces:R:3 spacegroup="P 1" unit_cell=conventional occupancy="_JSON {\"0\": {\"In\": 1}, \"1\": {\"In\": 1}, \"2\": {\"In\": 1}, \"3\": {\"In\": 1}, \"4\": {\"O\": 1}, \"5\": {\"O\": 1}, \"6\": {\"O\": 1}, \"7\": {\"O\": 1}, \"8\": {\"O\": 1}, \"9\": {\"O\": 1}}" n_minim_iter=4 energy=-11287.617300457605 stress="-0.04254850798742724 -5.8109195080462955e-05 -4.012358027373416e-05 -5.8109195080462955e-05 -0.042472226660200625 -2.1658838465748195e-05 -4.012358027373416e-05 -2.1658838465748195e-05 -0.04245581425429761" free_energy=-11287.617300457605 pbc="T T T"
In      10.46850287       5.65093120       3.90188858        0      -0.00700767      -0.00378276      -0.00261194
In       7.83155563       4.22749868       2.91902843        1       0.00700767       0.00378276       0.00261194
In       4.36848337       2.35812124       1.62824958        2      -0.00700767      -0.00378276      -0.00261194
In       1.73153613       0.93468872       0.64538943        3       0.00700767       0.00378276       0.00261194
O        5.96045104       2.28782640       0.20216327        4       0.00000000       0.00692197      -0.01002478
O        7.01677503       5.07586388       1.13312987        5      -0.00578680       0.01072021       0.00000000
O        8.09370525       2.15117746       2.47949190        6       0.00578680      -0.00379824      -0.01002478
O        4.10633375       4.43444246       2.06778611        7      -0.00578680       0.00379824       0.01002478
O        6.23958796       4.29779352       4.34511474        8       0.00000000      -0.00692197       0.01002478
O        5.18326397       1.50975604       3.41414814        9       0.00578680      -0.01072021       0.00000000
10
Lattice="5.822187834492764 -0.00399517052870837 -0.0027586091100463843 3.191421672803667 4.869570293964568 -0.0027586091100496655 3.191421672803662 1.722739584737693 4.55465594539962" Properties=species:S:1:pos:R:3:spacegroup_kinds:I:1:forces:R:3 spacegroup="P 1" unit_cell=conventional occupancy="_JSON {\"0\": {\"In\": 1}, \"1\": {\"In\": 1}, \"2\": {\"In\": 1}, \"3\": {\"In\": 1}, \"4\": {\"O\": 1}, \"5\": {\"O\": 1}, \"6\": {\"O\": 1}, \"7\": {\"O\": 1}, \"8\": {\"O\": 1}, \"9\": {\"O\": 1}}" n_minim_iter=5 energy=-11287.61733693158 stress="-0.04248490173884623 9.597906462034865e-05 6.627219497595306e-05 9.597906462034865e-05 -0.042610895742469526 3.5773940507278324e-05 6.627219497595306e-05 3.5773940507278324e-05 -0.04263800414619924" free_energy=-11287.61733693158 pbc="T T T"
In      10.47225998       5.65295930       3.90328896        0      -0.00028995      -0.00015651      -0.00010807
In       7.83528680       4.22951277       2.92041914        1       0.00028995       0.00015651       0.00010807
In       4.36974439       2.35880194       1.62871960        2      -0.00028995      -0.00015651      -0.00010807
In       1.73277121       0.93535542       0.64584977        3       0.00028995       0.00015651       0.00010807
O        5.96235172       2.28938234       0.20279263        4      -0.00000000       0.00198604      -0.00287629
O        7.01942350       5.07770965       1.13452607        5      -0.00166034       0.00307582       0.00000000
O        8.09670160       2.15290872       2.48012060        6       0.00166034      -0.00108978      -0.00287629
O        4.10832959       4.43540600       2.06901813        7      -0.00166034       0.00108978       0.00287629
O        6.24267947       4.29893238       4.34634610        8       0.00000000      -0.00198604       0.00287629
O        5.18560769       1.51060507       3.41461266        9       0.00166034      -0.00307582      -0.00000000
