10
Lattice="5.933104374833335 0.009387579540243366 0.006481991758534686 3.2634720473303047 4.954953667352479 0.0064819917585328905 3.263472047330302 1.7616326064120018 4.631226448993083" Properties=species:S:1:pos:R:3:spacegroup_kinds:I:1:forces:R:3 spacegroup="P 1" unit_cell=conventional occupancy="_JSON {\"0\": {\"In\": 1}, \"1\": {\"In\": 1}, \"2\": {\"In\": 1}, \"3\": {\"In\": 1}, \"4\": {\"O\": 1}, \"5\": {\"O\": 1}, \"6\": {\"O\": 1}, \"7\": {\"O\": 1}, \"8\": {\"O\": 1}, \"9\": {\"O\": 1}}" n_minim_iter=6 energy=-11287.62433741355 stress="0.035220194202081 3.085333951371664e-05 2.1303795817693885e-05 3.085333951371664e-05 0.035179692291098554 1.1499857578656095e-05 2.1303795817693885e-05 1.1499857578656095e-05 0.03517097804936678" free_energy=-11287.62433741355 pbc="T T T"
In      10.66308511       5.75596731       3.97441454        0      -0.00115211      -0.00062191      -0.00042942
In       8.02698760       4.33299348       2.99187111        1       0.00115211       0.00062191       0.00042942
In       4.43306088       2.39298039       1.65231933        2      -0.00115211      -0.00062191      -0.00042942
In       1.79696337       0.97000655       0.66977589        3       0.00115211       0.00062191       0.00042942
O        6.08156431       2.33013045       0.23169440        4      -0.00000000      -0.00018376       0.00026613
O        7.17496061       5.16095298       1.16752960        5       0.00015363      -0.00028460       0.00000000
O        8.25164005       2.21365787       2.54730763        6      -0.00015363       0.00010083       0.00026613
O        4.20840843       4.51231600       2.09688281        7       0.00015363      -0.00010083      -0.00026613
O        6.37848417       4.39584341       4.41249603        8       0.00000000       0.00018376      -0.00026613
O        5.28508786       1.56502088       3.47666083        9      -0.00015363       0.00028460      -0.00000000
