10
Lattice="6.1535947041390955 0.09023353657750953 0.062304989047636906 3.4520475309606815 5.094922739151228 0.06230498904763668 3.452047530960677 1.8634262531524244 4.74233721161231" Properties=species:S:1:pos:R:3:spacegroup_kinds:I:1:forces:R:3 spacegroup="P 1" unit_cell=conventional occupancy="_JSON {\"0\": {\"In\": 1}, \"1\": {\"In\": 1}, \"2\": {\"In\": 1}, \"3\": {\"In\": 1}, \"4\": {\"O\": 1}, \"5\": {\"O\": 1}, \"6\": {\"O\": 1}, \"7\": {\"O\": 1}, \"8\": {\"O\": 1}, \"9\": {\"O\": 1}}" n_minim_iter=5 energy=-11286.989873438308 stress="0.09279143047910603 1.574278209989123e-05 1.0870168339017167e-05 1.574278209989123e-05 0.09277076455461425 5.867752188686704e-06 1.0870168339017167e-05 5.867752188686704e-06 0.09276631815298328" free_energy=-11286.989873438308 pbc="T T T"
In      11.08267815       5.98246497       4.13080799        0      -0.00468003      -0.00252630      -0.00174437
In       8.50385651       4.59040884       3.16961280        1       0.00468003       0.00252630       0.00174437
In       4.55383326       2.45817370       1.69733440        2      -0.00468003      -0.00252630      -0.00174437
In       1.97501163       1.06611757       0.73613920        3       0.00468003       0.00252630       0.00174437
O        6.34121980       2.43129844       0.34412574        4       0.00000000       0.00320926      -0.00464783
O        7.54554633       5.32118201       1.27904179        5      -0.00268296       0.00497025       0.00000000
O        8.58894080       2.39655333       2.71529435        6       0.00268296      -0.00176099      -0.00464783
O        4.46874898       4.65202921       2.15165284        7      -0.00268296       0.00176099       0.00464783
O        6.71646998       4.61728410       4.52282145        8      -0.00000000      -0.00320926       0.00464783
O        5.51214345       1.72740053       3.58790541        9       0.00268296      -0.00497025      -0.00000000
