10
Lattice="5.252719234918787 -0.15221074409532764 -0.10509937993669449 2.7550328532636854 4.4748208286971245 -0.10509937993668124 2.75503285326368 1.4871755099038941 4.221774073934657" Properties=species:S:1:pos:R:3:spacegroup_kinds:I:1:forces:R:3 spacegroup="P 1" unit_cell=conventional occupancy="_JSON {\"0\": {\"In\": 1}, \"1\": {\"In\": 1}, \"2\": {\"In\": 1}, \"3\": {\"In\": 1}, \"4\": {\"O\": 1}, \"5\": {\"O\": 1}, \"6\": {\"O\": 1}, \"7\": {\"O\": 1}, \"8\": {\"O\": 1}, \"9\": {\"O\": 1}}" n_minim_iter=4 energy=-11281.302247232796 stress="-0.5769766788280699 -1.1190106963572114e-06 -7.726596432865035e-07 -1.1190106963572114e-06 -0.5769752098819521 -4.1708607853291263e-07 -7.726596432865035e-07 -4.1708607853291263e-07 -0.5769748938286527" free_energy=-11281.302247232796 pbc="T T T"
In       9.31389451       5.02766993       3.47153544        0      -0.00476079      -0.00256989      -0.00177447
In       6.83028291       3.68700847       2.54582754        1       0.00476079       0.00256989       0.00177447
In       3.93250204       2.12277713       1.46574778        2      -0.00476079      -0.00256989      -0.00177447
In       1.44889043       0.78211567       0.54003988        3       0.00476079       0.00256989       0.00177447
O        5.31705586       1.99459878       0.05494902        4      -0.00000000      -0.00175869       0.00254703
O        6.17770572       4.57126073       0.89779445        5       0.00147027      -0.00272372      -0.00000000
O        7.21143884       1.78067725       2.16583606        6      -0.00147027       0.00096503       0.00254703
O        3.55134611       4.02910835       1.84573926        7       0.00147027      -0.00096503      -0.00254703
O        5.44572909       3.81518683       3.95662630        8       0.00000000       0.00175869      -0.00254703
O        4.58507923       1.23852488       3.11378087        9      -0.00147027       0.00272372       0.00000000
