10
Lattice="5.185618408821091 -0.16139752519293507 -0.1114427231922016 2.710532969311927 4.423765191024001 -0.11144272319218479 2.7105329693119256 1.4631543307995436 4.176277930182653" Properties=species:S:1:pos:R:3:spacegroup_kinds:I:1:forces:R:3 spacegroup="P 1" unit_cell=conventional occupancy="_JSON {\"0\": {\"In\": 1}, \"1\": {\"In\": 1}, \"2\": {\"In\": 1}, \"3\": {\"In\": 1}, \"4\": {\"O\": 1}, \"5\": {\"O\": 1}, \"6\": {\"O\": 1}, \"7\": {\"O\": 1}, \"8\": {\"O\": 1}, \"9\": {\"O\": 1}}" n_minim_iter=6 energy=-11279.199365253786 stress="-0.6929412256685238 4.314257528642774e-05 2.978934324326506e-05 4.314257528642774e-05 -0.6929978599617534 1.608038263208039e-05 2.978934324326506e-05 1.608038263208039e-05 -0.6930100451821534" free_energy=-11279.199365253786 pbc="T T T"
In       9.17859453       4.95463457       3.42110554        0      -0.00364367      -0.00196687      -0.00135809
In       6.73143198       3.63364843       2.50898318        1       0.00364367       0.00196687       0.00135809
In       3.87525236       2.09187357       1.44440930        2      -0.00364367      -0.00196687      -0.00135809
In       1.42808980       0.77088743       0.53228694        3       0.00364367       0.00196687       0.00135809
O        5.24448028       1.95903129       0.05158123        4      -0.00000000       0.00193656      -0.00280464
O        6.09116351       4.50472858       0.87690540        5      -0.00161898       0.00299920       0.00000000
O        7.10833003       1.74844421       2.13972019        6       0.00161898      -0.00106263      -0.00280464
O        3.49835430       3.97707779       1.81367229        7      -0.00161898       0.00106263       0.00280464
O        5.36220405       3.76649070       3.90181125        8      -0.00000000      -0.00193656       0.00280464
O        4.51552083       1.22079341       3.07648708        9       0.00161898      -0.00299920      -0.00000000
