10
Lattice="5.771994062372884 -0.003960727689556046 -0.0027348268136015365 3.163908047902366 4.827589150689019 -0.0027348268136047895 3.163908047902361 1.7078876423757623 4.515389716087428" Properties=species:S:1:pos:R:3:spacegroup_kinds:I:1:forces:R:3 spacegroup="P 1" unit_cell=conventional occupancy="_JSON {\"0\": {\"In\": 1}, \"1\": {\"In\": 1}, \"2\": {\"In\": 1}, \"3\": {\"In\": 1}, \"4\": {\"O\": 1}, \"5\": {\"O\": 1}, \"6\": {\"O\": 1}, \"7\": {\"O\": 1}, \"8\": {\"O\": 1}, \"9\": {\"O\": 1}}" n_minim_iter=5 energy=-11287.61733693158 stress="-0.04248490173884623 9.597906462034865e-05 6.627219497595306e-05 9.597906462034865e-05 -0.042610895742469526 3.5773940507278324e-05 6.627219497595306e-05 3.5773940507278324e-05 -0.04263800414619924" free_energy=-11287.61733693158 pbc="T T T"
In      10.38197739       5.60422447       3.86963824        0      -0.00028995      -0.00015651      -0.00010807
In       7.76773786       4.19304964       2.89524186        1       0.00028995       0.00015651       0.00010807
In       4.33207231       2.33846643       1.61467821        2      -0.00028995      -0.00015651      -0.00010807
In       1.71783278       0.92729161       0.64028183        3       0.00028995       0.00015651       0.00010807
O        5.91094958       2.26964530       0.20104433        4      -0.00000000       0.00198604      -0.00287629
O        6.95890822       5.03393411       1.12474519        5      -0.00166034       0.00307582       0.00000000
O        8.02689898       2.13434824       2.45873919        6       0.00166034      -0.00108978      -0.00287629
O        4.07291119       4.39716783       2.05118088        7      -0.00166034       0.00108978       0.00287629
O        6.18886059       4.26187077       4.30887574        8       0.00000000      -0.00198604       0.00287629
O        5.14090195       1.49758196       3.38517488        9       0.00166034      -0.00307582      -0.00000000
