20
Lattice="5.888126503265838 5.402437789646126e-58 -2.0170951051514615e-42 1.8390859116001193e-59 4.582234711347743 -1.284922420448764e-15 -2.7251410942271454e-43 -2.5654534076375187e-15 8.568802443989403" Properties=species:S:1:pos:R:3:spacegroup_kinds:I:1:forces:R:3 spacegroup="P 1" unit_cell=conventional occupancy="_JSON {\"0\": {\"In\": 1}, \"1\": {\"In\": 1}, \"2\": {\"In\": 1}, \"3\": {\"In\": 1}, \"4\": {\"In\": 1}, \"5\": {\"In\": 1}, \"6\": {\"In\": 1}, \"7\": {\"In\": 1}, \"8\": {\"O\": 1}, \"9\": {\"O\": 1}, \"10\": {\"O\": 1}, \"11\": {\"O\": 1}, \"12\": {\"O\": 1}, \"13\": {\"O\": 1}, \"14\": {\"O\": 1}, \"15\": {\"O\": 1}, \"16\": {\"O\": 1}, \"17\": {\"O\": 1}, \"18\": {\"O\": 1}, \"19\": {\"O\": 1}}" n_minim_iter=40 energy=-22581.29684746495 stress="0.49752369169857535 5.410793550738543e-13 5.714767634515927e-13 5.410793550738543e-13 0.49851916570849103 3.166615366703299e-12 5.714767634515927e-13 3.166615366703299e-12 0.49926672757147583" free_energy=-22581.29684746495 pbc="T T T"
In       1.91371156       2.08975766       1.69999159        0      -0.00807998       0.00593103       0.00018963
In       1.03035169      -0.20135970       2.58440963        1       0.00807998       0.00593103      -0.00018963
In       1.03035169       2.49247705       5.98439281        2       0.00807998      -0.00593103       0.00018963
In       1.91371156       4.78359441       6.86881086        3      -0.00807998      -0.00593103      -0.00018963
In       3.97441494       2.49247705       6.86881086        4       0.00807998      -0.00593103      -0.00018963
In       4.85777481       4.78359441       5.98439281        5      -0.00807998      -0.00593103       0.00018963
In       4.85777481       2.08975766       2.58440963        6      -0.00807998       0.00593103      -0.00018963
In       3.97441494      -0.20135970       1.69999159        7       0.00807998       0.00593103       0.00018963
O        2.13864306       3.03968701       7.44891014        8       0.00000728      -0.00324311       0.00010546
O        0.80542020       0.74856965       5.40429353        9      -0.00000728      -0.00324311      -0.00010546
O        0.80542020       1.54254770       3.16450891       10      -0.00000728       0.00324311       0.00010546
O        2.13864306       3.83366506       1.11989231       11       0.00000728       0.00324311      -0.00010546
O        3.74948345       1.54254770       1.11989231       12      -0.00000728       0.00324311      -0.00010546
O        5.08270631       3.83366506       3.16450891       13       0.00000728       0.00324311       0.00010546
O        5.08270631       3.03968701       5.40429353       14       0.00000728      -0.00324311      -0.00010546
O        3.74948345       0.74856965       7.44891014       15      -0.00000728      -0.00324311       0.00010546
O        4.92490389       3.43667603       0.00000000       16       0.00916100      -0.00000000       0.00000000
O        3.90728586       1.14555868       4.28440122       17      -0.00916100       0.00000000      -0.00000000
O        0.96322261       1.14555868       0.00000000       18      -0.00916100      -0.00000000      -0.00000000
O        1.98084064       3.43667603       4.28440122       19       0.00916100      -0.00000000       0.00000000
