20
Lattice="5.520061418076607 -1.6483549999140026e-58 1.8975236380654904e-43 1.5595027290269457e-58 5.563662282544203 2.963545139027452e-16 -2.6595761589115455e-43 -4.121164334095161e-16 7.7369385280550125" Properties=species:S:1:pos:R:3:spacegroup_kinds:I:1:forces:R:3 spacegroup="P 1" unit_cell=conventional occupancy="_JSON {\"0\": {\"In\": 1}, \"1\": {\"In\": 1}, \"2\": {\"In\": 1}, \"3\": {\"In\": 1}, \"4\": {\"In\": 1}, \"5\": {\"In\": 1}, \"6\": {\"In\": 1}, \"7\": {\"In\": 1}, \"8\": {\"O\": 1}, \"9\": {\"O\": 1}, \"10\": {\"O\": 1}, \"11\": {\"O\": 1}, \"12\": {\"O\": 1}, \"13\": {\"O\": 1}, \"14\": {\"O\": 1}, \"15\": {\"O\": 1}, \"16\": {\"O\": 1}, \"17\": {\"O\": 1}, \"18\": {\"O\": 1}, \"19\": {\"O\": 1}}" n_minim_iter=1 energy=-22575.11776712508 stress="0.0230029246906484 1.64614012291098e-12 -1.0397816823698331e-12 1.64614012291098e-12 0.02689274882863209 -1.128871446590258e-12 -1.0397816823698331e-12 -1.128871446590258e-12 0.027786764973271465" free_energy=-22575.11776712508 pbc="T T T"
In       1.36715304       2.94954036       0.90993280        0      -0.05691201      -0.07457047       0.17615449
In       1.39287767       0.16770922       2.95853646        1       0.05691201      -0.07457047      -0.17615449
In       1.39287767       2.61412192       4.77840206        2       0.05691201       0.07457047       0.17615449
In       1.36715304       5.39595306       6.82700573        3      -0.05691201       0.07457047      -0.17615449
In       4.15290838       2.61412192       6.82700573        4       0.05691201       0.07457047      -0.17615449
In       4.12718375       5.39595306       4.77840206        5      -0.05691201       0.07457047       0.17615449
In       4.12718375       2.94954036       2.95853646        6      -0.05691201      -0.07457047      -0.17615449
In       4.15290838       0.16770922       0.90993280        7       0.05691201      -0.07457047       0.17615449
O        2.16132673       3.35053169       6.58165256        8       0.04168820      -0.06226178      -0.05395210
O        0.59870398       0.56870055       5.02375524        9      -0.04168820      -0.06226178       0.05395210
O        0.59870398       2.21313059       2.71318329       10      -0.04168820       0.06226178      -0.05395210
O        2.16132673       4.99496173       1.15528597       11       0.04168820       0.06226178       0.05395210
O        3.35873468       2.21313059       1.15528597       12      -0.04168820       0.06226178       0.05395210
O        4.92135744       4.99496173       2.71318329       13       0.04168820       0.06226178      -0.05395210
O        4.92135744       3.35053169       5.02375524       14       0.04168820      -0.06226178       0.05395210
O        3.35873468       0.56870055       6.58165256       15      -0.04168820      -0.06226178      -0.05395210
O        5.27438732       4.17274671       0.00000000       16      -0.12804220       0.00000000       0.00000000
O        3.00570480       1.39091557       3.86846926       17       0.12804220      -0.00000000       0.00000000
O        0.24567409       1.39091557       0.00000000       18       0.12804220      -0.00000000      -0.00000000
O        2.51435662       4.17274671       3.86846926       19      -0.12804220       0.00000000       0.00000000
20
Lattice="5.534792219713676 -1.6199951719756012e-58 1.733980353230817e-43 1.4604790544382328e-58 5.558543391421897 3.1167428307866543e-16 -2.6475914371003694e-43 -3.8973599907476563e-16 7.723452756347101" Properties=species:S:1:pos:R:3:spacegroup_kinds:I:1:forces:R:3 spacegroup="P 1" unit_cell=conventional occupancy="_JSON {\"0\": {\"In\": 1}, \"1\": {\"In\": 1}, \"2\": {\"In\": 1}, \"3\": {\"In\": 1}, \"4\": {\"In\": 1}, \"5\": {\"In\": 1}, \"6\": {\"In\": 1}, \"7\": {\"In\": 1}, \"8\": {\"O\": 1}, \"9\": {\"O\": 1}, \"10\": {\"O\": 1}, \"11\": {\"O\": 1}, \"12\": {\"O\": 1}, \"13\": {\"O\": 1}, \"14\": {\"O\": 1}, \"15\": {\"O\": 1}, \"16\": {\"O\": 1}, \"17\": {\"O\": 1}, \"18\": {\"O\": 1}, \"19\": {\"O\": 1}}" n_minim_iter=2 energy=-22575.120071384048 stress="0.028138053993865694 1.1466380101169963e-13 9.71069114180217e-13 1.1466380101169963e-13 0.026260022885374396 -1.1847631663325575e-12 9.71069114180217e-13 -1.1847631663325575e-12 0.025092577468537308" free_energy=-22575.120071384048 pbc="T T T"
In       1.37058005       2.94653761       0.90902891        0      -0.03304351      -0.07116761       0.18278037
In       1.39681606       0.16726591       2.95269747        1       0.03304351      -0.07116761      -0.18278037
In       1.39681606       2.61200579       4.77075529        2       0.03304351       0.07116761       0.18278037
In       1.37058005       5.39127748       6.81442385        3      -0.03304351       0.07116761      -0.18278037
In       4.16421217       2.61200579       6.81442385        4       0.03304351       0.07116761      -0.18278037
In       4.13797616       5.39127748       4.77075529        5      -0.03304351       0.07116761       0.18278037
In       4.13797616       2.94653761       2.95269747        6      -0.03304351      -0.07116761      -0.18278037
In       4.16421217       0.16726591       0.90902891        7       0.03304351      -0.07116761       0.18278037
O        2.16725659       3.34720770       6.56997156        8       0.04843093      -0.06285826      -0.02963142
O        0.60013952       0.56793601       5.01520757        9      -0.04843093      -0.06285826       0.02963142
O        0.60013952       2.21133569       2.70824518       10      -0.04843093       0.06285826      -0.02963142
O        2.16725659       4.99060738       1.15348120       11       0.04843093       0.06285826       0.02963142
O        3.36753563       2.21133569       1.15348120       12      -0.04843093       0.06285826       0.02963142
O        4.93465270       4.99060738       2.70824518       13       0.04843093       0.06285826      -0.02963142
O        4.93465270       3.34720770       5.01520757       14       0.04843093      -0.06285826       0.02963142
O        3.36753563       0.56793601       6.56997156       15      -0.04843093      -0.06285826      -0.02963142
O        5.28796449       4.16890754       0.00000000       16      -0.11984883      -0.00000000       0.00000000
O        3.01422384       1.38963585       3.86172638       17       0.11984883      -0.00000000       0.00000000
O        0.24682773       1.38963585       0.00000000       18       0.11984883      -0.00000000      -0.00000000
O        2.52056838       4.16890754       3.86172638       19      -0.11984883       0.00000000      -0.00000000
20
Lattice="5.537566884762112 -1.550593404632865e-58 1.4992775350099616e-43 1.4607413782721681e-58 5.542637661054021 3.1289779821761283e-16 -7.08421962882449e-44 -3.879563828839174e-16 7.741735745643278" Properties=species:S:1:pos:R:3:spacegroup_kinds:I:1:forces:R:3 spacegroup="P 1" unit_cell=conventional occupancy="_JSON {\"0\": {\"In\": 1}, \"1\": {\"In\": 1}, \"2\": {\"In\": 1}, \"3\": {\"In\": 1}, \"4\": {\"In\": 1}, \"5\": {\"In\": 1}, \"6\": {\"In\": 1}, \"7\": {\"In\": 1}, \"8\": {\"O\": 1}, \"9\": {\"O\": 1}, \"10\": {\"O\": 1}, \"11\": {\"O\": 1}, \"12\": {\"O\": 1}, \"13\": {\"O\": 1}, \"14\": {\"O\": 1}, \"15\": {\"O\": 1}, \"16\": {\"O\": 1}, \"17\": {\"O\": 1}, \"18\": {\"O\": 1}, \"19\": {\"O\": 1}}" n_minim_iter=3 energy=-22575.131938449398 stress="0.0316239847095582 7.195262643736082e-13 -2.3444963053557027e-13 7.195262643736082e-13 0.02930815157792442 9.680926925680568e-13 -2.3444963053557027e-13 9.680926925680568e-13 0.032469854810517826" free_energy=-22575.131938449398 pbc="T T T"
In       1.36897132       2.93417152       0.92101456        0       0.01002916       0.02669705       0.04483579
In       1.39981212       0.16285269       2.94985332        1      -0.01002916       0.02669705      -0.04483579
In       1.39981212       2.60846614       4.79188243        2      -0.01002916      -0.02669705       0.04483579
In       1.36897132       5.37978497       6.82072119        3       0.01002916      -0.02669705      -0.04483579
In       4.16859557       2.60846614       6.82072119        4      -0.01002916      -0.02669705      -0.04483579
In       4.13775476       5.37978497       4.79188243        5       0.01002916      -0.02669705       0.04483579
In       4.13775476       2.93417152       2.94985332        6       0.01002916       0.02669705      -0.04483579
In       4.16859557       0.16285269       0.92101456        7      -0.01002916       0.02669705       0.04483579
O        2.17086154       3.33422706       6.58341598        8       0.01197214      -0.00114656       0.08348245
O        0.59792191       0.56290823       5.02918764        9      -0.01197214      -0.00114656      -0.08348245
O        0.59792191       2.20841060       2.71254810       10      -0.01197214       0.00114656       0.08348245
O        2.17086154       4.97972943       1.15831977       11       0.01197214       0.00114656      -0.08348245
O        3.36670535       2.20841060       1.15831977       12      -0.01197214       0.00114656      -0.08348245
O        4.93964498       4.97972943       2.71254810       13       0.01197214       0.00114656       0.08348245
O        4.93964498       3.33422706       5.02918764       14       0.01197214      -0.00114656      -0.08348245
O        3.36670535       0.56290823       6.58341598       15      -0.01197214      -0.00114656       0.08348245
O        5.28387842       4.15697825       0.00000000       16      -0.02646743       0.00000000      -0.00000000
O        3.02247191       1.38565942       3.87086787       17       0.02646743       0.00000000      -0.00000000
O        0.25368847       1.38565942       0.00000000       18       0.02646743       0.00000000       0.00000000
O        2.51509497       4.15697825       3.87086787       19      -0.02646743      -0.00000000      -0.00000000
20
Lattice="5.534782782154055 -1.5672433044199285e-58 1.5563317905296193e-43 1.4437064484293574e-58 5.553779862007124 3.191639759036596e-16 -6.655558963127889e-44 -3.7941161201091994e-16 7.730090415520969" Properties=species:S:1:pos:R:3:spacegroup_kinds:I:1:forces:R:3 spacegroup="P 1" unit_cell=conventional occupancy="_JSON {\"0\": {\"In\": 1}, \"1\": {\"In\": 1}, \"2\": {\"In\": 1}, \"3\": {\"In\": 1}, \"4\": {\"In\": 1}, \"5\": {\"In\": 1}, \"6\": {\"In\": 1}, \"7\": {\"In\": 1}, \"8\": {\"O\": 1}, \"9\": {\"O\": 1}, \"10\": {\"O\": 1}, \"11\": {\"O\": 1}, \"12\": {\"O\": 1}, \"13\": {\"O\": 1}, \"14\": {\"O\": 1}, \"15\": {\"O\": 1}, \"16\": {\"O\": 1}, \"17\": {\"O\": 1}, \"18\": {\"O\": 1}, \"19\": {\"O\": 1}}" n_minim_iter=4 energy=-22575.132941802218 stress="0.031296796655703056 1.3665259371337657e-12 -1.4957756998214052e-12 1.3665259371337657e-12 0.031991662063662864 -6.542707458088154e-13 -1.4957756998214052e-12 -6.542707458088154e-13 0.031010503677858917" free_energy=-22575.132941802218 pbc="T T T"
In       1.36814253       2.93987889       0.92068343        0       0.01977854       0.05528358       0.02974481
In       1.39924886       0.16298896       2.94436178        1      -0.01977854       0.05528358      -0.02974481
In       1.39924886       2.61390097       4.78572864        2      -0.01977853      -0.05528358       0.02974481
In       1.36814253       5.39079091       6.80940698        3       0.01977853      -0.05528358      -0.02974481
In       4.16664025       2.61390097       6.80940698        4      -0.01977854      -0.05528358      -0.02974481
In       4.13553392       5.39079091       4.78572864        5       0.01977854      -0.05528358       0.02974481
In       4.13553392       2.93987889       2.94436178        6       0.01977854       0.05528358      -0.02974481
In       4.16664025       0.16298896       0.92068343        7      -0.01977854       0.05528358       0.02974481
O        2.17004295       3.34063888       6.57377139        8       0.01597915       0.00997436       0.10104007
O        0.59734844       0.56374895       5.02136424        9      -0.01597915       0.00997436      -0.10104007
O        0.59734844       2.21314098       2.70872618       10      -0.01597915      -0.00997436       0.10104007
O        2.17004295       4.99003091       1.15631903       11       0.01597915      -0.00997436      -0.10104007
O        3.36473983       2.21314098       1.15631903       12      -0.01597915      -0.00997436      -0.10104007
O        4.93743434       4.99003091       2.70872618       13       0.01597915      -0.00997436       0.10104007
O        4.93743434       3.34063888       5.02136424       14       0.01597915       0.00997436      -0.10104007
O        3.36473983       0.56374895       6.57377139       15      -0.01597915       0.00997436       0.10104007
O        5.28051963       4.16533490       0.00000000       16      -0.02350691      -0.00000000       0.00000000
O        3.02165454       1.38844497       3.86504521       17       0.02350691      -0.00000000      -0.00000000
O        0.25426315       1.38844497       0.00000000       18       0.02350691      -0.00000000      -0.00000000
O        2.51312824       4.16533490       3.86504521       19      -0.02350691      -0.00000000       0.00000000
20
Lattice="5.538696230303892 -1.5678161453640472e-58 1.4978963191425513e-43 1.4494913176786165e-58 5.558281019366795 3.128189911421163e-16 -6.024823441838875e-44 -3.8786719439100677e-16 7.718373115674625" Properties=species:S:1:pos:R:3:spacegroup_kinds:I:1:forces:R:3 spacegroup="P 1" unit_cell=conventional occupancy="_JSON {\"0\": {\"In\": 1}, \"1\": {\"In\": 1}, \"2\": {\"In\": 1}, \"3\": {\"In\": 1}, \"4\": {\"In\": 1}, \"5\": {\"In\": 1}, \"6\": {\"In\": 1}, \"7\": {\"In\": 1}, \"8\": {\"O\": 1}, \"9\": {\"O\": 1}, \"10\": {\"O\": 1}, \"11\": {\"O\": 1}, \"12\": {\"O\": 1}, \"13\": {\"O\": 1}, \"14\": {\"O\": 1}, \"15\": {\"O\": 1}, \"16\": {\"O\": 1}, \"17\": {\"O\": 1}, \"18\": {\"O\": 1}, \"19\": {\"O\": 1}}" n_minim_iter=5 energy=-22575.138902913997 stress="0.03286046107071362 3.5395855744243186e-13 -4.789912865823715e-13 3.5395855744243186e-13 0.033573701761542535 -2.864241548626921e-13 -4.789912865823715e-13 -2.864241548626921e-13 0.033475115287773735" free_energy=-22575.138902913997 pbc="T T T"
In       1.36982887       2.94528943       0.92664860        0      -0.00000086       0.05158330       0.02938402
In       1.39951924       0.16614892       2.93253796        1       0.00000086       0.05158330      -0.02938401
In       1.39951924       2.61299159       4.78583516        2       0.00000086      -0.05158330       0.02938402
In       1.36982887       5.39213210       6.79172452        3      -0.00000086      -0.05158330      -0.02938402
In       4.16886736       2.61299159       6.79172452        4       0.00000086      -0.05158330      -0.02938402
In       4.13917699       5.39213210       4.78583516        5      -0.00000086      -0.05158330       0.02938402
In       4.13917699       2.94528943       2.93253796        6      -0.00000086       0.05158330      -0.02938402
In       4.16886736       0.16614892       0.92664860        7       0.00000086       0.05158330       0.02938402
O        2.17408003       3.34262113       6.57236471        8      -0.03341388       0.01182960      -0.02339459
O        0.59526808       0.56348062       5.00519496        9       0.03341388       0.01182960       0.02339459
O        0.59526808       2.21565989       2.71317815       10       0.03341388      -0.01182960      -0.02339459
O        2.17408003       4.99480040       1.14600840       11      -0.03341388      -0.01182960       0.02339459
O        3.36461620       2.21565989       1.14600840       12       0.03341388      -0.01182960       0.02339459
O        4.94342815       4.99480040       2.71317815       13      -0.03341388      -0.01182960      -0.02339459
O        4.94342815       3.34262113       5.00519496       14      -0.03341388       0.01182960       0.02339459
O        3.36461620       0.56348062       6.57236471       15       0.03341388       0.01182960      -0.02339459
O        5.27905769       4.16871076       0.00000000       16      -0.02011503      -0.00000000      -0.00000000
O        3.02898666       1.38957025       3.85918656       17       0.02011503       0.00000000       0.00000000
O        0.25963854       1.38957025       0.00000000       18       0.02011503       0.00000000      -0.00000000
O        2.50970957       4.16871076       3.85918656       19      -0.02011503      -0.00000000      -0.00000000
20
Lattice="5.545304763187644 -1.5134258130281285e-58 1.729294108897262e-43 1.3292648546003812e-58 5.557961842842716 3.0390624762797323e-16 3.733844666533348e-44 -3.997642966706316e-16 7.709617575546857" Properties=species:S:1:pos:R:3:spacegroup_kinds:I:1:forces:R:3 spacegroup="P 1" unit_cell=conventional occupancy="_JSON {\"0\": {\"In\": 1}, \"1\": {\"In\": 1}, \"2\": {\"In\": 1}, \"3\": {\"In\": 1}, \"4\": {\"In\": 1}, \"5\": {\"In\": 1}, \"6\": {\"In\": 1}, \"7\": {\"In\": 1}, \"8\": {\"O\": 1}, \"9\": {\"O\": 1}, \"10\": {\"O\": 1}, \"11\": {\"O\": 1}, \"12\": {\"O\": 1}, \"13\": {\"O\": 1}, \"14\": {\"O\": 1}, \"15\": {\"O\": 1}, \"16\": {\"O\": 1}, \"17\": {\"O\": 1}, \"18\": {\"O\": 1}, \"19\": {\"O\": 1}}" n_minim_iter=6 energy=-22575.140297166716 stress="0.03601753335946267 -1.5517440576223386e-12 2.0377795663595556e-12 -1.5517440576223386e-12 0.03468423044165179 4.985727174096407e-13 2.0377795663595556e-12 4.985727174096407e-13 0.0348445805430455" free_energy=-22575.140297166716 pbc="T T T"
In       1.37164297       2.94859415       0.93202343        0       0.00956855       0.03748581       0.00048315
In       1.40100941       0.16961323       2.92278536        1      -0.00956855       0.03748581      -0.00048315
In       1.40100941       2.60936769       4.78683221        2      -0.00956855      -0.03748581       0.00048315
In       1.37164297       5.38834861       6.77759415        3       0.00956855      -0.03748581      -0.00048315
In       4.17366179       2.60936769       6.77759415        4      -0.00956855      -0.03748581      -0.00048315
In       4.14429536       5.38834861       4.78683221        5       0.00956855      -0.03748581       0.00048315
In       4.14429536       2.94859415       2.92278536        6       0.00956855       0.03748581      -0.00048315
In       4.17366179       0.16961323       0.93202343        7      -0.00956855       0.03748581       0.00048315
O        2.17675163       3.34217119       6.56820226        8      -0.03607287       0.00801343      -0.04324083
O        0.59590075       0.56319027       4.99622410        9       0.03607287       0.00801343       0.04324083
O        0.59590075       2.21579065       2.71339347       10       0.03607287      -0.00801343      -0.04324083
O        2.17675163       4.99477157       1.14141531       11      -0.03607287      -0.00801343       0.04324083
O        3.36855313       2.21579065       1.14141531       12       0.03607287      -0.00801343       0.04324083
O        4.94940402       4.99477157       2.71339347       13      -0.03607287      -0.00801343      -0.04324083
O        4.94940402       3.34217119       4.99622410       14      -0.03607287       0.00801343       0.04324083
O        3.36855313       0.56319027       6.56820226       15       0.03607287       0.00801343      -0.04324083
O        5.28091401       4.16847138       0.00000000       16      -0.02112908      -0.00000000      -0.00000000
O        3.03704313       1.38949046       3.85480879       17       0.02112908       0.00000000       0.00000000
O        0.26439075       1.38949046       0.00000000       18       0.02112908      -0.00000000       0.00000000
O        2.50826163       4.16847138       3.85480879       19      -0.02112908       0.00000000       0.00000000
20
Lattice="5.540764300095529 -1.367132226076897e-58 8.024724517261578e-44 1.2787031436774724e-58 5.561752544506931 3.069452544934995e-16 -9.261853759990741e-44 -3.958668985940779e-16 7.7106764187494425" Properties=species:S:1:pos:R:3:spacegroup_kinds:I:1:forces:R:3 spacegroup="P 1" unit_cell=conventional occupancy="_JSON {\"0\": {\"In\": 1}, \"1\": {\"In\": 1}, \"2\": {\"In\": 1}, \"3\": {\"In\": 1}, \"4\": {\"In\": 1}, \"5\": {\"In\": 1}, \"6\": {\"In\": 1}, \"7\": {\"In\": 1}, \"8\": {\"O\": 1}, \"9\": {\"O\": 1}, \"10\": {\"O\": 1}, \"11\": {\"O\": 1}, \"12\": {\"O\": 1}, \"13\": {\"O\": 1}, \"14\": {\"O\": 1}, \"15\": {\"O\": 1}, \"16\": {\"O\": 1}, \"17\": {\"O\": 1}, \"18\": {\"O\": 1}, \"19\": {\"O\": 1}}" n_minim_iter=7 energy=-22575.141825815477 stress="0.03494162605634922 3.2579428182781952e-12 2.3306255747894167e-13 3.2579428182781952e-12 0.03487785823402236 9.400473114022848e-13 2.3306255747894167e-13 9.400473114022848e-13 0.03509416766816463" free_energy=-22575.141825815477 pbc="T T T"
In       1.37101336       2.95439145       0.93301062        0       0.00948763       0.00225264      -0.01579284
In       1.39936879       0.17351518       2.92232759        1      -0.00948763       0.00225264       0.01579284
In       1.39936879       2.60736109       4.78834883        2      -0.00948763      -0.00225264      -0.01579284
In       1.37101336       5.38823736       6.77766580        3       0.00948763      -0.00225264       0.01579284
In       4.16975094       2.60736109       6.77766580        4      -0.00948763      -0.00225264       0.01579284
In       4.14139551       5.38823736       4.78834883        5       0.00948763      -0.00225264      -0.01579284
In       4.14139551       2.95439145       2.92232759        6       0.00948763       0.00225264       0.01579284
In       4.16975094       0.17351518       0.93301062        7      -0.00948763       0.00225264      -0.01579284
O        2.17229011       3.34539650       6.56714857        8       0.00129570      -0.01144235       0.00482409
O        0.59809204       0.56452023       4.99886606        9      -0.00129570      -0.01144235      -0.00482409
O        0.59809204       2.21635604       2.71181036       10      -0.00129570       0.01144235       0.00482409
O        2.17229011       4.99723231       1.14352785       11       0.00129570       0.01144235      -0.00482409
O        3.36847419       2.21635604       1.14352785       12      -0.00129570       0.01144235      -0.00482409
O        4.94267226       4.99723231       2.71181036       13       0.00129570       0.01144235       0.00482409
O        4.94267226       3.34539650       4.99886606       14       0.00129570      -0.01144235      -0.00482409
O        3.36847419       0.56452023       6.56714857       15      -0.00129570      -0.01144235       0.00482409
O        5.27519375       4.17131441       0.00000000       16      -0.03286057      -0.00000000       0.00000000
O        3.03595270       1.39043814       3.85533821       17       0.03286057      -0.00000000       0.00000000
O        0.26557055       1.39043814       0.00000000       18       0.03286057       0.00000000       0.00000000
O        2.50481160       4.17131441       3.85533821       19      -0.03286057       0.00000000      -0.00000000
20
Lattice="5.540295381021772 -1.3457983959220973e-58 8.467172855459037e-44 1.2350633285130823e-58 5.5661090997636755 2.926536664017776e-16 -1.167951238312165e-43 -4.1575319280153263e-16 7.705293430233765" Properties=species:S:1:pos:R:3:spacegroup_kinds:I:1:forces:R:3 spacegroup="P 1" unit_cell=conventional occupancy="_JSON {\"0\": {\"In\": 1}, \"1\": {\"In\": 1}, \"2\": {\"In\": 1}, \"3\": {\"In\": 1}, \"4\": {\"In\": 1}, \"5\": {\"In\": 1}, \"6\": {\"In\": 1}, \"7\": {\"In\": 1}, \"8\": {\"O\": 1}, \"9\": {\"O\": 1}, \"10\": {\"O\": 1}, \"11\": {\"O\": 1}, \"12\": {\"O\": 1}, \"13\": {\"O\": 1}, \"14\": {\"O\": 1}, \"15\": {\"O\": 1}, \"16\": {\"O\": 1}, \"17\": {\"O\": 1}, \"18\": {\"O\": 1}, \"19\": {\"O\": 1}}" n_minim_iter=8 energy=-22575.142104924853 stress="0.0347150201364732 -6.903578427850592e-13 4.1782416713647644e-13 -6.903578427850592e-13 0.035269491016012705 -1.097573167522378e-12 4.1782416713647644e-13 -1.097573167522378e-12 0.034594121822492115" free_energy=-22575.142104924853 pbc="T T T"
In       1.37173890       2.95826987       0.93229205        0       0.00454868      -0.00843853       0.00076314
In       1.39840879       0.17521532       2.92035467        1      -0.00454868      -0.00843853      -0.00076314
In       1.39840879       2.60783923       4.78493876        2      -0.00454868       0.00843853       0.00076314
In       1.37173890       5.39089378       6.77300138        3       0.00454868       0.00843853      -0.00076314
In       4.16855648       2.60783923       6.77300138        4      -0.00454868       0.00843853      -0.00076314
In       4.14188659       5.39089378       4.78493876        5       0.00454868       0.00843853       0.00076314
In       4.14188659       2.95826987       2.92035467        6       0.00454868      -0.00843853      -0.00076314
In       4.16855648       0.17521532       0.93229205        7      -0.00454868      -0.00843853       0.00076314
O        2.17179088       3.34760603       6.56352279        8      -0.00427807      -0.01221112      -0.01177537
O        0.59835681       0.56455148       4.99441736        9       0.00427807      -0.01221112       0.01177537
O        0.59835681       2.21850307       2.71087607       10       0.00427807       0.01221112      -0.01177537
O        2.17179088       5.00155762       1.14177064       11      -0.00427807       0.01221112       0.01177537
O        3.36850450       2.21850307       1.14177064       12       0.00427807       0.01221112       0.01177537
O        4.94193857       5.00155762       2.71087607       13      -0.00427807       0.01221112      -0.01177537
O        4.94193857       3.34760603       4.99441736       14      -0.00427807      -0.01221112       0.01177537
O        3.36850450       0.56455148       6.56352279       15       0.00427807      -0.01221112      -0.01177537
O        5.27207260       4.17458182       0.00000000       16      -0.02183481      -0.00000000       0.00000000
O        3.03837047       1.39152727       3.85264672       17       0.02183481      -0.00000000      -0.00000000
O        0.26822278       1.39152727       0.00000000       18       0.02183481      -0.00000000       0.00000000
O        2.50192491       4.17458182       3.85264672       19      -0.02183481      -0.00000000       0.00000000
20
Lattice="5.541595583623349 -1.3481896987551535e-58 7.965967623720295e-44 1.2345236930602813e-58 5.563287571757027 2.9278947854925474e-16 -1.1677161085214569e-43 -4.1546443121973066e-16 7.707392538258099" Properties=species:S:1:pos:R:3:spacegroup_kinds:I:1:forces:R:3 spacegroup="P 1" unit_cell=conventional occupancy="_JSON {\"0\": {\"In\": 1}, \"1\": {\"In\": 1}, \"2\": {\"In\": 1}, \"3\": {\"In\": 1}, \"4\": {\"In\": 1}, \"5\": {\"In\": 1}, \"6\": {\"In\": 1}, \"7\": {\"In\": 1}, \"8\": {\"O\": 1}, \"9\": {\"O\": 1}, \"10\": {\"O\": 1}, \"11\": {\"O\": 1}, \"12\": {\"O\": 1}, \"13\": {\"O\": 1}, \"14\": {\"O\": 1}, \"15\": {\"O\": 1}, \"16\": {\"O\": 1}, \"17\": {\"O\": 1}, \"18\": {\"O\": 1}, \"19\": {\"O\": 1}}" n_minim_iter=9 energy=-22575.14237413629 stress="0.03512098788705644 -1.0554148510153143e-12 -5.205406311349346e-13 -1.0554148510153143e-12 0.035023632575372776 -2.341226775047356e-13 -5.205406311349346e-13 -2.341226775047356e-13 0.03514605409541915" free_energy=-22575.14237413629 pbc="T T T"
In       1.37265972       2.95679631       0.93228445        0       0.00652441      -0.00590684       0.00355030
In       1.39813807       0.17515253       2.92141182        1      -0.00652441      -0.00590684      -0.00355030
In       1.39813807       2.60649126       4.78598072        2      -0.00652441       0.00590684       0.00355030
In       1.37265972       5.38813505       6.77510809        3       0.00652441       0.00590684      -0.00355030
In       4.16893586       2.60649126       6.77510809        4      -0.00652441       0.00590684      -0.00355030
In       4.14345751       5.38813505       4.78598072        5       0.00652441       0.00590684       0.00355030
In       4.14345751       2.95679631       2.92141182        6       0.00652441      -0.00590684      -0.00355030
In       4.16893586       0.17515253       0.93228445        7      -0.00652441      -0.00590684       0.00355030
O        2.17195968       3.34480465       6.56463501        8      -0.01091891      -0.00230841       0.00305646
O        0.59883811       0.56316087       4.99645380        9       0.01091891      -0.00230841      -0.00305646
O        0.59883811       2.21848292       2.71093874       10       0.01091891       0.00230841       0.00305646
O        2.17195968       5.00012671       1.14275753       11      -0.01091891       0.00230841      -0.00305646
O        3.36963590       2.21848292       1.14275753       12       0.01091891       0.00230841      -0.00305646
O        4.94275748       5.00012671       2.71093874       13      -0.01091891       0.00230841       0.00305646
O        4.94275748       3.34480465       4.99645380       14      -0.01091891      -0.00230841      -0.00305646
O        3.36963590       0.56316087       6.56463501       15       0.01091891      -0.00230841       0.00305646
O        5.27028714       4.17246568       0.00000000       16       0.00354968      -0.00000000      -0.00000000
O        3.04210623       1.39082189       3.85369627       17      -0.00354968       0.00000000      -0.00000000
O        0.27130844       1.39082189       0.00000000       18      -0.00354968       0.00000000       0.00000000
O        2.49948935       4.17246568       3.85369627       19       0.00354968      -0.00000000       0.00000000
20