20
Lattice="5.520061418076609 -1.5331897886381454e-58 -2.645502031549446e-44 -6.661111808419016e-59 5.563662282544203 2.989230359311125e-16 -2.659576158911546e-43 -4.121164334095161e-16 7.7369385280550125" Properties=species:S:1:pos:R:3:spacegroup_kinds:I:1:forces:R:3 spacegroup="P 1" unit_cell=conventional occupancy="_JSON {\"0\": {\"In\": 1}, \"1\": {\"In\": 1}, \"2\": {\"In\": 1}, \"3\": {\"In\": 1}, \"4\": {\"In\": 1}, \"5\": {\"In\": 1}, \"6\": {\"In\": 1}, \"7\": {\"In\": 1}, \"8\": {\"O\": 1}, \"9\": {\"O\": 1}, \"10\": {\"O\": 1}, \"11\": {\"O\": 1}, \"12\": {\"O\": 1}, \"13\": {\"O\": 1}, \"14\": {\"O\": 1}, \"15\": {\"O\": 1}, \"16\": {\"O\": 1}, \"17\": {\"O\": 1}, \"18\": {\"O\": 1}, \"19\": {\"O\": 1}}" n_minim_iter=9 energy=-22575.002676926353 stress="0.01230105918754517 3.534256859657106e-13 1.1046612598634371e-12 3.534256859657106e-13 0.01204744678085655 -7.476718619765953e-13 1.1046612598634371e-12 -7.476718619765953e-13 0.011965859758677557" free_energy=-22575.002676926353 pbc="T T T"
In       1.36715304       2.94954036       0.90993280        0       0.00378192      -0.00404508       0.00629971
In       1.39287767       0.16770922       2.95853646        1      -0.00378192      -0.00404508      -0.00629971
In       1.39287767       2.61412192       4.77840206        2      -0.00378192       0.00404508       0.00629971
In       1.36715304       5.39595306       6.82700573        3       0.00378192       0.00404508      -0.00629971
In       4.15290838       2.61412192       6.82700573        4      -0.00378192       0.00404508      -0.00629971
In       4.12718375       5.39595306       4.77840206        5       0.00378192       0.00404508       0.00629971
In       4.12718375       2.94954036       2.95853646        6       0.00378192      -0.00404508      -0.00629971
In       4.15290838       0.16770922       0.90993280        7      -0.00378192      -0.00404508       0.00629971
O        2.16132673       3.35053169       6.58165256        8      -0.00321541      -0.00114406       0.00389966
O        0.59870398       0.56870055       5.02375524        9       0.00321541      -0.00114406      -0.00389966
O        0.59870398       2.21313059       2.71318329       10       0.00321541       0.00114406       0.00389966
O        2.16132673       4.99496173       1.15528597       11      -0.00321541       0.00114406      -0.00389966
O        3.35873468       2.21313059       1.15528597       12       0.00321541       0.00114406      -0.00389966
O        4.92135744       4.99496173       2.71318329       13      -0.00321541       0.00114406       0.00389966
O        4.92135744       3.35053169       5.02375524       14      -0.00321541      -0.00114406      -0.00389966
O        3.35873468       0.56870055       6.58165256       15       0.00321541      -0.00114406       0.00389966
O        5.27438732       4.17274671       0.00000000       16      -0.00447733       0.00000000      -0.00000000
O        3.00570480       1.39091557       3.86846926       17       0.00447733      -0.00000000      -0.00000000
O        0.24567409       1.39091557       0.00000000       18       0.00447733      -0.00000000       0.00000000
O        2.51435662       4.17274671       3.86846926       19      -0.00447733      -0.00000000      -0.00000000
