10
Lattice="5.79126366308026 0.013146542690795876 0.009077502993142104 3.1887834620984488 4.834311499970388 0.00907750299314588 3.1887834620984505 1.7213154701954252 4.517490800419236" Properties=species:S:1:pos:R:3:spacegroup_kinds:I:1:forces:R:3 spacegroup="P 1" unit_cell=conventional occupancy="_JSON {\"0\": {\"In\": 1}, \"1\": {\"In\": 1}, \"2\": {\"In\": 1}, \"3\": {\"In\": 1}, \"4\": {\"O\": 1}, \"5\": {\"O\": 1}, \"6\": {\"O\": 1}, \"7\": {\"O\": 1}, \"8\": {\"O\": 1}, \"9\": {\"O\": 1}}" n_minim_iter=1 energy=-11287.64827062343 stress="-0.014243998580695973 -0.0011583784710054313 -0.0007998440576249794 -0.0011583784710054313 -0.012723367520629945 -0.0004317583722640645 -0.0007998440576249794 -0.0004317583722640645 -0.012396194223720656" free_energy=-11287.64827062343 pbc="T T T"
In      10.42623075       5.62811257       3.88613264        0      -0.08248645      -0.04452645      -0.03074489
In       7.82701514       4.22504771       2.91733607        1       0.08248645       0.04452645       0.03074489
In       4.34181546       2.34372582       1.61830974        2      -0.08248645      -0.04452645      -0.03074489
In       1.74259985       0.94066095       0.64951317        3       0.08248645       0.04452645       0.03074489
O        5.93783948       2.28528269       0.21661242        4      -0.00000000       0.04891894      -0.07084711
O        7.00010064       5.05170869       1.14298896        5      -0.04089648       0.07576183       0.00000000
O        8.06436179       2.16015414       2.47535782        6       0.04089648      -0.02684289      -0.07084711
O        4.10446880       4.40861939       2.06028799        7      -0.04089648       0.02684289       0.07084711
O        6.23099111       4.28349083       4.31903339        8       0.00000000      -0.04891894       0.07084711
O        5.16872996       1.51706483       3.39265685        9       0.04089648      -0.07576183      -0.00000000
10
Lattice="5.803049021511222 0.02524075416654247 0.01742838606962322 3.2053611668207784 4.837527760330743 0.017428386069626975 3.2053611668207798 1.730264168010139 4.517539650020988" Properties=species:S:1:pos:R:3:spacegroup_kinds:I:1:forces:R:3 spacegroup="P 1" unit_cell=conventional occupancy="_JSON {\"0\": {\"In\": 1}, \"1\": {\"In\": 1}, \"2\": {\"In\": 1}, \"3\": {\"In\": 1}, \"4\": {\"O\": 1}, \"5\": {\"O\": 1}, \"6\": {\"O\": 1}, \"7\": {\"O\": 1}, \"8\": {\"O\": 1}, \"9\": {\"O\": 1}}" n_minim_iter=2 energy=-11287.649428790808 stress="-0.011109715700899721 0.0010887290077167375 0.0007517520806949727 0.0010887290077167375 -0.012538916237485992 0.00040579816489106876 0.0007517520806949727 0.00040579816489106876 -0.012846417693817341" free_energy=-11287.649428790808 pbc="T T T"
In      10.46355318       5.64825934       3.90004370        0      -0.09339584      -0.05041537      -0.03481111
In       7.85710386       4.24128969       2.92855093        1       0.09339584       0.05041537       0.03481111
In       4.35666751       2.35174300       1.62384549        2      -0.09339584      -0.05041537      -0.03481111
In       1.75021818       0.94477335       0.65235272        3       0.09339584       0.05041537       0.03481111
O        5.95496735       2.29692003       0.22566280        4       0.00000000       0.03802983      -0.05507690
O        7.02591409       5.06469376       1.15552749        5      -0.03179312       0.05889762       0.00000000
O        8.08938178       2.17700078       2.48443263        6       0.03179312      -0.02086780      -0.05507690
O        4.12438958       4.41603191       2.06796380        7      -0.03179312       0.02086780       0.05507690
O        6.25880401       4.29611267       4.32673362        8      -0.00000000      -0.03802983       0.05507690
O        5.18785727       1.52833893       3.39686893        9       0.03179312      -0.05889762      -0.00000000
10
Lattice="5.800736114405771 0.022870407069086735 0.01579169470688127 3.2021104021736244 4.836894819693964 0.015791694706885028 3.202110402173628 1.7285093948988204 4.517527658592757" Properties=species:S:1:pos:R:3:spacegroup_kinds:I:1:forces:R:3 spacegroup="P 1" unit_cell=conventional occupancy="_JSON {\"0\": {\"In\": 1}, \"1\": {\"In\": 1}, \"2\": {\"In\": 1}, \"3\": {\"In\": 1}, \"4\": {\"O\": 1}, \"5\": {\"O\": 1}, \"6\": {\"O\": 1}, \"7\": {\"O\": 1}, \"8\": {\"O\": 1}, \"9\": {\"O\": 1}}" n_minim_iter=3 energy=-11287.651314783887 stress="-0.011263249803177501 -0.00023262463187488815 -0.0001606240397178489 -0.00023262463187488815 -0.01095787790475402 -8.670536634399712e-05 -0.0001606240397178489 -8.670536634399712e-05 -0.010892175222442914" free_energy=-11287.651314783887 pbc="T T T"
In      10.45198397       5.64201424       3.89573155        0       0.00471931       0.00254750       0.00175901
In       7.85545142       4.24039770       2.92793503        1      -0.00471931      -0.00254750      -0.00175901
In       4.34950551       2.34787693       1.62117603        2       0.00471931       0.00254750       0.00175901
In       1.75297296       0.94626039       0.65337950        3      -0.00471931      -0.00254750      -0.00175901
O        5.95160729       2.29671165       0.22088574        4      -0.00000000       0.00385169      -0.00557823
O        7.01911760       5.06535762       1.15306946        5      -0.00322003       0.00596519       0.00000000
O        8.08620739       2.17256001       2.47964957        6       0.00322003      -0.00211351      -0.00557823
O        4.11874954       4.41571463       2.06946149        7      -0.00322003       0.00211351       0.00557823
O        6.25334964       4.29156298       4.32822532        8       0.00000000      -0.00385169       0.00557823
O        5.18583933       1.52291701       3.39604159        9       0.00322003      -0.00596519       0.00000000
