10
Lattice="6.023733416512999 0.002229264558973748 0.0015392758524036363 3.307217795353434 5.034647921844521 0.0015392758524090356 3.3072177953534365 1.785246700539902 4.707502127935247" Properties=species:S:1:pos:R:3:spacegroup_kinds:I:1:forces:R:3 spacegroup="P 1" unit_cell=conventional occupancy="_JSON {\"0\": {\"In\": 1}, \"1\": {\"In\": 1}, \"2\": {\"In\": 1}, \"3\": {\"In\": 1}, \"4\": {\"O\": 1}, \"5\": {\"O\": 1}, \"6\": {\"O\": 1}, \"7\": {\"O\": 1}, \"8\": {\"O\": 1}, \"9\": {\"O\": 1}}" n_minim_iter=5 energy=-11287.651552001771 stress="0.011739679651025313 0.00012766169572497497 8.814860586690451e-05 0.00012766169572497497 0.011572095093132393 4.758289724677268e-05 8.814860586690451e-05 4.758289724677268e-05 0.011536038227990382" free_energy=-11287.651552001771 pbc="T T T"
In      10.82529263       5.84352744       4.03487359        0      -0.00610731      -0.00329675      -0.00227636
In       8.13196090       4.38965840       3.03099744        1       0.00610731       0.00329675       0.00227636
In       4.50620812       2.43246550       1.67958325        2      -0.00610731      -0.00329675      -0.00227636
In       1.81287639       0.97859645       0.67570710        3       0.00610731       0.00329675       0.00227636
O        6.17140896       2.36277735       0.22816847        4      -0.00000000       0.00556729      -0.00806286
O        7.27648845       5.24013514       1.17918445        5      -0.00465428       0.00862219      -0.00000000
O        8.37354727       2.23923514       2.58191954        6       0.00465428      -0.00305490      -0.00806286
O        4.26462175       4.58288876       2.12866115        7      -0.00465428       0.00305490       0.00806286
O        6.46676005       4.45934655       4.48241221        8       0.00000000      -0.00556729       0.00806286
O        5.36168056       1.58198876       3.53139624        9       0.00465428      -0.00862219      -0.00000000
