10
Lattice="5.669046012219961 0.0479562598346963 0.03311312353583189 3.150821064204892 4.713036082281468 0.03311312353583346 3.1508210642048926 1.7008232468893987 4.395566615884465" Properties=species:S:1:pos:R:3:spacegroup_kinds:I:1:forces:R:3 spacegroup="P 1" unit_cell=conventional occupancy="_JSON {\"0\": {\"In\": 1}, \"1\": {\"In\": 1}, \"2\": {\"In\": 1}, \"3\": {\"In\": 1}, \"4\": {\"O\": 1}, \"5\": {\"O\": 1}, \"6\": {\"O\": 1}, \"7\": {\"O\": 1}, \"8\": {\"O\": 1}, \"9\": {\"O\": 1}}" n_minim_iter=5 energy=-11287.532477631621 stress="-0.02289220149998559 9.80901085969849e-06 6.772981874120848e-06 9.80901085969849e-06 -0.022905078028928792 3.656082238623678e-06 6.772981874120848e-06 3.656082238623678e-06 -0.022907848489614694" free_energy=-11287.532477631621 pbc="T T T"
In      10.25470336       5.53552154       3.82219984        0       0.00008697       0.00004695       0.00003242
In       7.70132886       4.15720185       2.87048946        1      -0.00008697      -0.00004695      -0.00003242
In       4.26935929       2.30461375       1.59130341        2       0.00008697       0.00004695       0.00003242
In       1.71598479       0.92629406       0.63959303        3      -0.00008697      -0.00004695      -0.00003242
O        5.82719505       2.26798781       0.22169549        4      -0.00000000      -0.00013553       0.00019629
O        6.87712982       4.96940813       1.14856134        5       0.00011331      -0.00020990       0.00000000
O        7.92808134       2.14494137       2.41947880        6      -0.00011331       0.00007437       0.00019629
O        4.04260681       4.31687423       2.04231407        7       0.00011331      -0.00007437      -0.00019629
O        6.14349310       4.19382779       4.24009738        8       0.00000000       0.00013553      -0.00019629
O        5.09355833       1.49240747       3.31323153        9      -0.00011331       0.00020990      -0.00000000
