10
Lattice="6.0826120099989485 -0.0320209270669293 -0.02211000018254113 3.3108924348943303 5.102664547911529 -0.022110000182536633 3.3108924348943285 1.7872302826690443 4.7794855640886675" Properties=species:S:1:pos:R:3:spacegroup_kinds:I:1:forces:R:3 spacegroup="P 1" unit_cell=conventional occupancy="_JSON {\"0\": {\"In\": 1}, \"1\": {\"In\": 1}, \"2\": {\"In\": 1}, \"3\": {\"In\": 1}, \"4\": {\"O\": 1}, \"5\": {\"O\": 1}, \"6\": {\"O\": 1}, \"7\": {\"O\": 1}, \"8\": {\"O\": 1}, \"9\": {\"O\": 1}}" n_minim_iter=1 energy=-11287.400788844052 stress="0.04197272728391141 -0.0008929073513727107 -0.0006165399799779294 -0.0008929073513727107 0.04314486807650552 -0.0003328102461663692 -0.0006165399799779294 -0.0003328102461663692 0.04339706150972554" free_energy=-11287.400788844052 pbc="T T T"
In      10.86941925       5.86734714       4.05132075        0      -0.09524893      -0.05141568      -0.03550180
In       8.18717608       4.41946373       3.05157760        1       0.09524893       0.05141567       0.03550180
In       4.51722081       2.43841018       1.68368797        2      -0.09524893      -0.05141568      -0.03550180
In       1.83497764       0.99052678       0.68394482        3       0.09524893       0.05141568       0.03550180
O        6.21740523       2.36514580       0.20722721        4      -0.00000000       0.03519483      -0.05097110
O        7.31549713       5.28230423       1.16170639        5      -0.02942305       0.05450700      -0.00000000
O        8.43020576       2.22624701       2.59696999        6       0.02942305      -0.01931217      -0.05097110
O        4.27419113       4.63162691       2.13829558        7      -0.02942305       0.01931217       0.05097110
O        6.48699166       4.49272811       4.52803836        8      -0.00000000      -0.03519483       0.05097110
O        5.38889976       1.57556968       3.57355918        9       0.02942305      -0.05450700       0.00000000
10
Lattice="6.093779539915117 -0.020419250016153606 -0.014099205205422448 3.326719362378772 5.105634564952088 -0.014099205205417957 3.32671936237877 1.7957737085392678 4.7794246396548665" Properties=species:S:1:pos:R:3:spacegroup_kinds:I:1:forces:R:3 spacegroup="P 1" unit_cell=conventional occupancy="_JSON {\"0\": {\"In\": 1}, \"1\": {\"In\": 1}, \"2\": {\"In\": 1}, \"3\": {\"In\": 1}, \"4\": {\"O\": 1}, \"5\": {\"O\": 1}, \"6\": {\"O\": 1}, \"7\": {\"O\": 1}, \"8\": {\"O\": 1}, \"9\": {\"O\": 1}}" n_minim_iter=2 energy=-11287.402101068861 stress="0.0419226857234484 0.0004027672937589965 0.00027810515459305814 0.0004027672937589965 0.04139396349101139 0.00015012205109091382 0.00027810515459305814 0.00015012205109091382 0.04128020558624964" free_energy=-11287.402101068861 pbc="T T T"
In      10.90469038       5.88638661       4.06446723        0      -0.10246969      -0.05531346      -0.03819317
In       8.21613703       4.43509694       3.06237211        1       0.10246969       0.05531346       0.03819317
In       4.53108125       2.44589209       1.68885412        2      -0.10246969      -0.05531346      -0.03819317
In       1.84252789       0.99460243       0.68675900        3       0.10246969       0.05531346       0.03819317
O        6.23369434       2.37610663       0.21611895        4      -0.00000000       0.02511625      -0.03637474
O        7.34021703       5.29441051       1.17370735        5      -0.02099731       0.03889808       0.00000000
O        8.45389102       2.24243789       2.60583127        6       0.02099731      -0.01378183      -0.03637474
O        4.29332726       4.63855115       2.14539496        7      -0.02099731       0.01378183       0.03637474
O        6.51352393       4.50488241       4.53510728        8      -0.00000000      -0.02511625       0.03637474
O        5.40700125       1.58657852       3.57751888        9       0.02099731      -0.03889808      -0.00000000
10
Lattice="6.103979866916078 -0.009853610709165635 -0.006803779732015736 3.3411494317752406 5.108364492076583 -0.006803779732011225 3.3411494317752393 1.8035631059641373 4.779392659965542" Properties=species:S:1:pos:R:3:spacegroup_kinds:I:1:forces:R:3 spacegroup="P 1" unit_cell=conventional occupancy="_JSON {\"0\": {\"In\": 1}, \"1\": {\"In\": 1}, \"2\": {\"In\": 1}, \"3\": {\"In\": 1}, \"4\": {\"O\": 1}, \"5\": {\"O\": 1}, \"6\": {\"O\": 1}, \"7\": {\"O\": 1}, \"8\": {\"O\": 1}, \"9\": {\"O\": 1}}" n_minim_iter=3 energy=-11287.40556669247 stress="0.03860358907707704 0.0007449059880025226 0.0005143471158380419 0.0007449059880025226 0.037625733220192976 0.0002776462127243021 0.0005143471158380419 0.0002776462127243021 0.03741534140082555" free_energy=-11287.40556669247 pbc="T T T"
In      10.92775524       5.89883709       4.07306412        0      -0.03456562      -0.01865863      -0.01288352
In       8.25166287       4.45427390       3.07561354        1       0.03456562       0.01865863       0.01288352
In       4.53461587       2.44780010       1.69017157        2      -0.03456562      -0.01865863      -0.01288352
In       1.85852350       1.00323691       0.69272099        3       0.03456562       0.01865863       0.01288352
O        6.24855962       2.38863114       0.22055265        4       0.00000000      -0.02074848       0.03004909
O        7.36065003       5.30938123       1.18464250        5       0.01734583      -0.03213362       0.00000000
O        8.47761865       2.25580541       2.61024898        6      -0.01734583       0.01138514       0.03004909
O        4.30866009       4.64626859       2.15553612        7       0.01734583      -0.01138514      -0.03004909
O        6.53771912       4.51344285       4.54523245        8      -0.00000000       0.02074848      -0.03004909
O        5.42562871       1.59269277       3.58114261        9      -0.01734583       0.03213362       0.00000000
10
Lattice="6.099427030216648 -0.014565840329536232 -0.01005750806876258 3.3347117433619613 5.107144001232569 -0.010057508068758114 3.33471174336196 1.8000880212524322 4.77940415936316" Properties=species:S:1:pos:R:3:spacegroup_kinds:I:1:forces:R:3 spacegroup="P 1" unit_cell=conventional occupancy="_JSON {\"0\": {\"In\": 1}, \"1\": {\"In\": 1}, \"2\": {\"In\": 1}, \"3\": {\"In\": 1}, \"4\": {\"O\": 1}, \"5\": {\"O\": 1}, \"6\": {\"O\": 1}, \"7\": {\"O\": 1}, \"8\": {\"O\": 1}, \"9\": {\"O\": 1}}" n_minim_iter=4 energy=-11287.4059969777 stress="0.03848224578862107 0.00018575847659958232 0.00012826362135307502 0.00018575847659958232 0.03823839620222752 6.923710965437304e-05 0.00012826362135307502 6.923710965437304e-05 0.038185930431654545" free_energy=-11287.4059969777 pbc="T T T"
In      10.91205559       5.89036237       4.06721244        0      -0.01919577      -0.01036194      -0.00715477
In       8.24122019       4.44863691       3.07172128        1       0.01919577       0.01036194       0.00715477
In       4.52763034       2.44402928       1.68756787        2      -0.01919577      -0.01036194      -0.00715477
In       1.85679493       1.00230382       0.69207670        3       0.01919577       0.01036194       0.00715477
O        6.24192615       2.38422113       0.21687014        4       0.00000000      -0.01686637       0.02442681
O        7.35054854       5.30452452       1.17976478        5       0.01410037      -0.02612131      -0.00000000
O        8.46801550       2.24919626       2.60657222        6      -0.01410037       0.00925494       0.02442681
O        4.30083502       4.64346994       2.15271692        7       0.01410037      -0.00925494      -0.02442681
O        6.52692438       4.50844506       4.54241900        8      -0.00000000       0.01686637      -0.02442681
O        5.41830199       1.58814168       3.57952437        9      -0.01410037       0.02612131      -0.00000000
10
Lattice="6.097255731803091 -0.016815231337461573 -0.01161068095135539 3.331639802391493 5.106563074919504 -0.01161068095135093 3.331639802391491 1.7984297777314018 4.779411216940062" Properties=species:S:1:pos:R:3:spacegroup_kinds:I:1:forces:R:3 spacegroup="P 1" unit_cell=conventional occupancy="_JSON {\"0\": {\"In\": 1}, \"1\": {\"In\": 1}, \"2\": {\"In\": 1}, \"3\": {\"In\": 1}, \"4\": {\"O\": 1}, \"5\": {\"O\": 1}, \"6\": {\"O\": 1}, \"7\": {\"O\": 1}, \"8\": {\"O\": 1}, \"9\": {\"O\": 1}}" n_minim_iter=5 energy=-11287.406152023581 stress="0.0383306410193436 -0.00013852190227601403 -9.564742714324387e-05 -0.00013852190227601403 0.03851248202547106 -5.163078632098586e-05 -9.564742714324387e-05 -5.163078632098586e-05 0.038551606258106344" free_energy=-11287.406152023581 pbc="T T T"
In      10.90414287       5.88609106       4.06426316        0      -0.00855373      -0.00461733      -0.00318820
In       8.23666015       4.44617539       3.07002163        1       0.00855373       0.00461733       0.00318820
In       4.52387520       2.44200225       1.68616823        2      -0.00855373      -0.00461733      -0.00318820
In       1.85639248       1.00208658       0.69192670        3       0.00855373       0.00461733       0.00318820
O        6.23876170       2.38187570       0.21546152        4      -0.00000000      -0.01202800       0.01741962
O        7.34593055       5.30183453       1.17743679        5       0.01005547      -0.01862803      -0.00000000
O        8.46323266       2.24617440       2.60516713        6      -0.01005547       0.00660003       0.01741962
O        4.29730268       4.64200324       2.15102273        7       0.01005547      -0.00660003      -0.01741962
O        6.52177364       4.50630193       4.54072834        8      -0.00000000       0.01202800      -0.01741962
O        5.41460480       1.58634311       3.57875307        9      -0.01005547       0.01862803       0.00000000
10
Lattice="6.097488074595929 -0.016574467914959992 -0.011444437191318933 3.331968573379198 5.106625202503072 -0.011444437191314473 3.331968573379197 1.7986072493578125 4.779410413067679" Properties=species:S:1:pos:R:3:spacegroup_kinds:I:1:forces:R:3 spacegroup="P 1" unit_cell=conventional occupancy="_JSON {\"0\": {\"In\": 1}, \"1\": {\"In\": 1}, \"2\": {\"In\": 1}, \"3\": {\"In\": 1}, \"4\": {\"O\": 1}, \"5\": {\"O\": 1}, \"6\": {\"O\": 1}, \"7\": {\"O\": 1}, \"8\": {\"O\": 1}, \"9\": {\"O\": 1}}" n_minim_iter=6 energy=-11287.406284951185 stress="0.037961086275178205 -0.00032534907246749593 -0.0002246489634795953 -0.00032534907246749593 0.03838817976802898 -0.00012126622737222465 -0.0002246489634795953 -0.00012126622737222465 0.038480071606682605" free_energy=-11287.406284951185 pbc="T T T"
In      10.90322155       5.88559373       4.06391976        0       0.00421650       0.00227608       0.00157160
In       8.23891629       4.44739326       3.07086255        1      -0.00421650      -0.00227608      -0.00157160
In       4.52250894       2.44126474       1.68565899        2       0.00421650       0.00227608       0.00157160
In       1.85820368       1.00306427       0.69260178        3      -0.00421650      -0.00227608      -0.00157160
O        6.23910035       2.38128820       0.21682669        4       0.00000000      -0.00211942       0.00306947
O        7.34712577       5.30082376       1.17768595        5       0.00177185      -0.00328240       0.00000000
O        8.46304350       2.24695793       2.60653189        6      -0.00177185       0.00116297       0.00306947
O        4.29838173       4.64170006       2.14998965        7       0.00177185      -0.00116297      -0.00306947
O        6.52232488       4.50736980       4.53969486        8       0.00000000       0.00211942      -0.00306947
O        5.41429946       1.58783424       3.57883559        9      -0.00177185       0.00328240       0.00000000
