10
Lattice="5.974104363924704 -0.0004355359666260292 -0.0003007314648204163 3.277757463485655 4.994620020714276 -0.00030073146481503243 3.2777574634856577 1.7693439195565457 4.6707227851894135" Properties=species:S:1:pos:R:3:spacegroup_kinds:I:1:forces:R:3 spacegroup="P 1" unit_cell=conventional occupancy="_JSON {\"0\": {\"In\": 1}, \"1\": {\"In\": 1}, \"2\": {\"In\": 1}, \"3\": {\"In\": 1}, \"4\": {\"O\": 1}, \"5\": {\"O\": 1}, \"6\": {\"O\": 1}, \"7\": {\"O\": 1}, \"8\": {\"O\": 1}, \"9\": {\"O\": 1}}" n_minim_iter=1 energy=-11287.649059622137 stress="0.012627839139949136 0.0008492053564004594 0.0005863643703126372 0.0008492053564004594 0.011513067007521216 0.0003165213501761398 0.0005863643703126372 0.0003165213501761398 0.011273216796086106" free_energy=-11287.649059622137 pbc="T T T"
In      10.74086304       5.79795209       4.00340444        0      -0.07119661      -0.03843216      -0.02653686
In       8.05356591       4.34734053       3.00177755        1       0.07119661       0.03843216       0.02653686
In       4.47605340       2.41618788       1.66834378        2      -0.07119661      -0.03843216      -0.02653686
In       1.78875626       0.96557633       0.66671689        3       0.07119661       0.03843216       0.02653686
O        6.11945701       2.34526554       0.21935025        4       0.00000000      -0.02969159       0.04300100
O        7.21108588       5.20176953       1.16722960        5       0.02482232      -0.04598401      -0.00000000
O        8.30558561       2.21614232       2.55471164        6      -0.02482232       0.01629242       0.04300100
O        4.22403369       4.54738610       2.11540969        7       0.02482232      -0.01629242      -0.04300100
O        6.41016229       4.41826288       4.45077108        8       0.00000000       0.02969159      -0.04300100
O        5.31853343       1.56175889       3.50289173        9      -0.02482232       0.04598401       0.00000000
10
Lattice="5.96433468862435 -0.010529604866891648 -0.007270544198879511 3.2639579372963228 4.991991359574525 -0.007270544198874129 3.263957937296326 1.7618948913633832 4.670734095050505" Properties=species:S:1:pos:R:3:spacegroup_kinds:I:1:forces:R:3 spacegroup="P 1" unit_cell=conventional occupancy="_JSON {\"0\": {\"In\": 1}, \"1\": {\"In\": 1}, \"2\": {\"In\": 1}, \"3\": {\"In\": 1}, \"4\": {\"O\": 1}, \"5\": {\"O\": 1}, \"6\": {\"O\": 1}, \"7\": {\"O\": 1}, \"8\": {\"O\": 1}, \"9\": {\"O\": 1}}" n_minim_iter=2 energy=-11287.64953513936 stress="0.01002590632961401 -0.000911967388823244 -0.0006297006655982363 -0.000911967388823244 0.011223067680627344 -0.0003399144238507257 -0.0006297006655982363 -0.0003399144238507257 0.011480644449275651" free_energy=-11287.64953513936 pbc="T T T"
In      10.70781509       5.78011270       3.99108660        0      -0.04052175      -0.02187377      -0.01510353
In       8.03056076       4.33492228       2.99320292        1       0.04052175       0.02187377       0.01510353
In       4.46168981       2.40843438       1.66299009        2      -0.04052175      -0.02187377      -0.01510353
In       1.78443548       0.96324396       0.66510642        3       0.04052175       0.02187377       0.01510353
O        6.10522999       2.33572910       0.21158159        4       0.00000000      -0.02325996       0.03368636
O        7.18949633       5.19122250       1.15677771        5       0.01944544      -0.03602321      -0.00000000
O        8.28492159       2.20202409       2.54694864        6      -0.01944544       0.01276325       0.03368636
O        4.20732899       4.54133257       2.10924437        7       0.01944544      -0.01276325      -0.03368636
O        6.38702058       4.40762755       4.44461142        8       0.00000000       0.02325996      -0.03368636
O        5.30275424       1.55213415       3.49941530        9      -0.01944544       0.03602321       0.00000000
10
Lattice="5.976506541256837 0.002042197622496905 0.001410108761425776 3.2811469882987856 4.995268666391696 0.0014101087614311373 3.2811469882987883 1.7711735958474584 4.670723191456989" Properties=species:S:1:pos:R:3:spacegroup_kinds:I:1:forces:R:3 spacegroup="P 1" unit_cell=conventional occupancy="_JSON {\"0\": {\"In\": 1}, \"1\": {\"In\": 1}, \"2\": {\"In\": 1}, \"3\": {\"In\": 1}, \"4\": {\"O\": 1}, \"5\": {\"O\": 1}, \"6\": {\"O\": 1}, \"7\": {\"O\": 1}, \"8\": {\"O\": 1}, \"9\": {\"O\": 1}}" n_minim_iter=3 energy=-11287.650689162312 stress="0.01259840788136013 0.0007806756382853815 0.0005390455571394877 0.0007806756382853815 0.01157359634513692 0.00029097850794193553 0.0005390455571394877 0.00029097850794193553 0.011353101717832851" free_energy=-11287.650689162312 pbc="T T T"
In      10.74519398       5.80028994       4.00501870        0      -0.04866818      -0.02627124      -0.01813992
In       8.06300681       4.35243676       3.00529642        1       0.04866818       0.02627124       0.01813992
In       4.47579372       2.41604771       1.66824699        2      -0.04866818      -0.02627124      -0.01813992
In       1.79360655       0.96819453       0.66852472        3       0.04866818       0.02627124       0.01813992
O        6.12295340       2.34582043       0.22384617        4      -0.00000000      -0.01110247       0.01607921
O        7.21788466       5.20159355       1.16979596        5       0.00928172      -0.01719463      -0.00000000
O        8.30916914       2.22059023       2.55920777        6      -0.00928172       0.00609217       0.01607921
O        4.22963139       4.54789425       2.11433565        7       0.00928172      -0.00609217      -0.01607921
O        6.41584712       4.42266404       4.44969724        8       0.00000000       0.01110247      -0.01607921
O        5.32091587       1.56689092       3.50374745        9      -0.00928172       0.01719463       0.00000000
10
Lattice="5.974354900146542 -0.00017704232116474517 -0.00012224523497487673 3.278111040160093 4.994687629134527 -0.00012224523496951687 3.278111040160095 1.7695347813716693 4.670722769025076" Properties=species:S:1:pos:R:3:spacegroup_kinds:I:1:forces:R:3 spacegroup="P 1" unit_cell=conventional occupancy="_JSON {\"0\": {\"In\": 1}, \"1\": {\"In\": 1}, \"2\": {\"In\": 1}, \"3\": {\"In\": 1}, \"4\": {\"O\": 1}, \"5\": {\"O\": 1}, \"6\": {\"O\": 1}, \"7\": {\"O\": 1}, \"8\": {\"O\": 1}, \"9\": {\"O\": 1}}" n_minim_iter=4 energy=-11287.651505333517 stress="0.011317641008496767 -0.0001297374851339131 -8.958191030071363e-05 -0.0001297374851339131 0.011487950504802901 -4.835659846942834e-05 -8.958191030071363e-05 -4.835659846942834e-05 0.011524593660090782" free_energy=-11287.651505333517 pbc="T T T"
In      10.73417182       5.79434014       4.00091044        0      -0.01066686      -0.00575800      -0.00397582
In       8.06169366       4.35172792       3.00480698        1       0.01066686       0.00575800       0.00397582
In       4.46888333       2.41231746       1.66567131        2      -0.01066686      -0.00575800      -0.00397582
In       1.79640517       0.96970524       0.66956784        3       0.01066686       0.00575800       0.00397582
O        6.11982170       2.34218627       0.22436265        4       0.00000000       0.00700469      -0.01014457
O        7.21441773       5.19689257       1.16749733        5      -0.00585595       0.01084831       0.00000000
O        8.30333671       2.21832774       2.55972404        6       0.00585595      -0.00384362      -0.01014457
O        4.22724028       4.54571764       2.11075425        7      -0.00585595       0.00384362       0.01014457
O        6.41075529       4.42185911       4.44611563        8      -0.00000000      -0.00700469       0.01014457
O        5.31615926       1.56715281       3.50298096        9       0.00585595      -0.01084831       0.00000000
10
Lattice="5.9766710766463005 0.002211847718108977 0.001527249768527508 3.28137910078713 4.995313128083981 0.0015272497685328652 3.2813791007871327 1.7712988909080232 4.670723265102313" Properties=species:S:1:pos:R:3:spacegroup_kinds:I:1:forces:R:3 spacegroup="P 1" unit_cell=conventional occupancy="_JSON {\"0\": {\"In\": 1}, \"1\": {\"In\": 1}, \"2\": {\"In\": 1}, \"3\": {\"In\": 1}, \"4\": {\"O\": 1}, \"5\": {\"O\": 1}, \"6\": {\"O\": 1}, \"7\": {\"O\": 1}, \"8\": {\"O\": 1}, \"9\": {\"O\": 1}}" n_minim_iter=5 energy=-11287.651552001771 stress="0.011739679651025313 0.00012766169572497497 8.814860586690451e-05 0.00012766169572497497 0.011572095093132393 4.758289724677268e-05 8.814860586690451e-05 4.758289724677268e-05 0.011536038227990382" free_energy=-11287.651552001771 pbc="T T T"
In      10.74071657       5.79787302       4.00334985        0      -0.00610731      -0.00329675      -0.00227636
In       8.06842736       4.35536279       3.00731680        1       0.00610731       0.00329675       0.00227636
In       4.47100193       2.41346109       1.66646097        2      -0.00610731      -0.00329675      -0.00227636
In       1.79871272       0.97095086       0.67042792        3       0.00610731       0.00329675       0.00227636
O        6.12319286       2.34431740       0.22638583        4      -0.00000000       0.00556729      -0.00806286
O        7.21963857       5.19919491       1.16997169        5      -0.00465428       0.00862219      -0.00000000
O        8.30812626       2.22174040       2.56174747        6       0.00465428      -0.00305490      -0.00806286
O        4.23130303       4.54708348       2.11203030        7      -0.00465428       0.00305490       0.00806286
O        6.41623643       4.42450648       4.44739194        8       0.00000000      -0.00556729       0.00806286
O        5.31979072       1.56962897       3.50380608        9       0.00465428      -0.00862219      -0.00000000
