10
Lattice="5.92630948149818 -0.00043205152962109093 -0.00029832551002979086 3.2515342803862803 4.9546613487338 -0.0002983255100257854 3.251534280386283 1.755188561789793 4.633355402102994" Properties=species:S:1:pos:R:3:spacegroup_kinds:I:1:forces:R:3 spacegroup="P 1" unit_cell=conventional occupancy="_JSON {\"0\": {\"In\": 1}, \"1\": {\"In\": 1}, \"2\": {\"In\": 1}, \"3\": {\"In\": 1}, \"4\": {\"O\": 1}, \"5\": {\"O\": 1}, \"6\": {\"O\": 1}, \"7\": {\"O\": 1}, \"8\": {\"O\": 1}, \"9\": {\"O\": 1}}" n_minim_iter=4 energy=-11287.676408986566 stress="0.005613313588486532 3.0042693054500716e-05 2.0744061288522454e-05 3.0042693054500716e-05 0.0055738758315199465 1.1197706481072038e-05 2.0744061288522454e-05 1.1197706481072038e-05 0.005565390550231205" free_energy=-11287.676408986566 pbc="T T T"
In      10.65493246       5.75156648       3.97137583        0      -0.00635512      -0.00343051      -0.00236872
In       7.98913462       4.31256032       2.97776230        1       0.00635512       0.00343051       0.00236872
In       4.44024343       2.39685755       1.65499646        2      -0.00635512      -0.00343051      -0.00236872
In       1.77444560       0.95785139       0.66138292        3       0.00635512       0.00343051       0.00236872
O        6.07049926       2.32650261       0.21759537        4       0.00000000      -0.00184323       0.00266947
O        7.15339472       5.16015359       1.15789136        5       0.00154095      -0.00285466       0.00000000
O        8.23913808       2.19841242       2.53427307        6      -0.00154095       0.00101142       0.00266947
O        4.19023998       4.51100545       2.09848568        7       0.00154095      -0.00101142      -0.00266947
O        6.35887880       4.38291526       4.41516338        8      -0.00000000       0.00184323      -0.00266947
O        5.27598333       1.54926428       3.47486739        9      -0.00154095       0.00285466      -0.00000000
