10
Lattice="6.3961678317991995 0.1085109820323675 0.07492530830006001 3.6004327408418484 5.287685849635798 0.07492530830006047 3.600432740841848 1.9435250621034001 4.9181242134820495" Properties=species:S:1:pos:R:3:spacegroup_kinds:I:1:forces:R:3 spacegroup="P 1" unit_cell=conventional occupancy="_JSON {\"0\": {\"In\": 1}, \"1\": {\"In\": 1}, \"2\": {\"In\": 1}, \"3\": {\"In\": 1}, \"4\": {\"O\": 1}, \"5\": {\"O\": 1}, \"6\": {\"O\": 1}, \"7\": {\"O\": 1}, \"8\": {\"O\": 1}, \"9\": {\"O\": 1}}" n_minim_iter=4 energy=-11287.025520176534 stress="0.0474870729174317 -6.23655027772668e-06 -4.3062486125683575e-06 -6.23655027772668e-06 0.047495259777772844 -2.3245277258129547e-06 -4.3062486125683575e-06 -2.3245277258129547e-06 0.04749702123822243" free_energy=-11287.025520176534 pbc="T T T"
In      11.57048480       6.24578455       4.31262647        0       0.00459674       0.00248133       0.00171333
In       8.82506518       4.76379830       3.28933578        1      -0.00459674      -0.00248133      -0.00171333
In       4.77196814       2.57592361       1.77863905        2       0.00459674       0.00248133       0.00171333
In       2.02654853       1.09393735       0.75534837        3      -0.00459674      -0.00248133      -0.00171333
O        6.59734225       2.57045462       0.31780536        4       0.00000000       0.00269395      -0.00390153
O        7.82801463       5.58812454       1.34191902        5      -0.00225216       0.00417218      -0.00000000
O        8.96710261       2.48712151       2.77686747        6       0.00225216      -0.00147823      -0.00390153
O        4.62993071       4.85260040       2.29110737        7      -0.00225216       0.00147823       0.00390153
O        6.99969107       4.76926728       4.75016947        8       0.00000000      -0.00269395       0.00390153
O        5.76901869       1.75159737       3.72605582        9       0.00225216      -0.00417218      -0.00000000
