10
Lattice="6.482194086445552 0.15201365898521324 0.10496329543760247 3.684005680899467 5.3357333582149975 0.10496329543760315 3.6840056808994643 1.9886380013546014 4.952412206483405" Properties=species:S:1:pos:R:3:spacegroup_kinds:I:1:forces:R:3 spacegroup="P 1" unit_cell=conventional occupancy="_JSON {\"0\": {\"In\": 1}, \"1\": {\"In\": 1}, \"2\": {\"In\": 1}, \"3\": {\"In\": 1}, \"4\": {\"O\": 1}, \"5\": {\"O\": 1}, \"6\": {\"O\": 1}, \"7\": {\"O\": 1}, \"8\": {\"O\": 1}, \"9\": {\"O\": 1}}" n_minim_iter=7 energy=-11286.631556398666 stress="0.06804611709131983 0.00012293405553609504 8.488423844124588e-05 0.00012293405553609504 0.06788473862575302 4.582078351223562e-05 8.488423844124588e-05 4.582078351223562e-05 0.067850017037221" free_energy=-11286.631556398666 pbc="T T T"
In      11.75435543       6.34503851       4.38115993        0      -0.00760734      -0.00410647      -0.00283546
In       9.02095275       4.86953903       3.36234828        1       0.00760734       0.00410647       0.00283546
In       4.82925270       2.60684600       1.79999053        2      -0.00760734      -0.00410647      -0.00283546
In       2.09585003       1.13134653       0.78117888        3       0.00760734       0.00410647       0.00283546
O        6.70364841       2.63700904       0.34100983        4      -0.00000000      -0.00357582       0.00517871
O        7.96721443       5.68453963       1.39554800        5       0.00298941      -0.00553796       0.00000000
O        9.12408807       2.55975818       2.81721593        6      -0.00298941       0.00196213       0.00517871
O        4.72611739       4.91662685       2.34512287        7       0.00298941      -0.00196213      -0.00517871
O        7.14655705       4.83937599       4.82132898        8      -0.00000000       0.00357582      -0.00517871
O        5.88299103       1.79184540       3.76679081        9      -0.00298941       0.00553796       0.00000000
