10
Lattice="5.586946432090601 0.07541651562921192 0.05207404429119966 3.1287281418043382 4.629332381732937 0.05207404429119448 3.128728141804338 1.6888974170041495 4.3105748481480575" Properties=species:S:1:pos:R:3:spacegroup_kinds:I:1:forces:R:3 spacegroup="P 1" unit_cell=conventional occupancy="_JSON {\"0\": {\"In\": 1}, \"1\": {\"In\": 1}, \"2\": {\"In\": 1}, \"3\": {\"In\": 1}, \"4\": {\"O\": 1}, \"5\": {\"O\": 1}, \"6\": {\"O\": 1}, \"7\": {\"O\": 1}, \"8\": {\"O\": 1}, \"9\": {\"O\": 1}}" n_minim_iter=5 energy=-11287.39521697767 stress="-0.016699467905207738 3.2138308282016634e-06 2.2191050903803124e-06 3.2138308282016634e-06 -0.016703686781983113 1.1978782462264012e-06 2.2191050903803124e-06 1.1978782462264012e-06 -0.016704594499763192" free_energy=-11287.39521697767 pbc="T T T"
In      10.16777839       5.48859917       3.78980060        0       0.00087065       0.00046998       0.00032451
In       7.59882569       4.10187031       2.83228381        1      -0.00087065      -0.00046998      -0.00032451
In       4.24557704       2.29177601       1.58243913        2       0.00087065       0.00046998       0.00032451
In       1.67662433       0.90504716       0.62492234        3      -0.00087065      -0.00046998      -0.00032451
O        5.75457390       2.25474102       0.23379630        4      -0.00000000      -0.00012252       0.00017745
O        6.80176758       4.90885816       1.15575478        5       0.00010243      -0.00018976       0.00000000
O        7.83610836       2.14111760       2.38908373        6      -0.00010243       0.00006723       0.00017745
O        4.00829437       4.25252873       2.02563921        7       0.00010243      -0.00006723      -0.00017745
O        6.08982883       4.13890531       4.18092664        8      -0.00000000       0.00012252      -0.00017745
O        5.04263514       1.48478817       3.25896816        9      -0.00010243       0.00018976      -0.00000000
