10
Lattice="5.841625005356356 0.01326086619162082 0.00915644176399211 3.216513405807087 4.876351101391291 0.00915644176399567 3.216513405807089 1.7362841821386041 4.556775300947049" Properties=species:S:1:pos:R:3:spacegroup_kinds:I:1:forces:R:3 spacegroup="P 1" unit_cell=conventional occupancy="_JSON {\"0\": {\"In\": 1}, \"1\": {\"In\": 1}, \"2\": {\"In\": 1}, \"3\": {\"In\": 1}, \"4\": {\"O\": 1}, \"5\": {\"O\": 1}, \"6\": {\"O\": 1}, \"7\": {\"O\": 1}, \"8\": {\"O\": 1}, \"9\": {\"O\": 1}}" n_minim_iter=3 energy=-11287.676852300881 stress="-0.004969945133757976 7.089610764796696e-05 4.895276577744568e-05 7.089610764796696e-05 -0.005063012142412187 2.6424859390496944e-05 4.895276577744568e-05 2.6424859390496944e-05 -0.005083036089673447" free_energy=-11287.676852300881 pbc="T T T"
In      10.51689818       5.67705514       3.91992680        0      -0.00262677      -0.00141794      -0.00097907
In       7.89507956       4.26178910       2.94270548        1       0.00262677       0.00141794       0.00097907
In       4.37957227       2.36410706       1.63238271        2      -0.00262677      -0.00141794      -0.00097907
In       1.75775365       0.94884102       0.65516139        3       0.00262677       0.00141794       0.00097907
O        5.98947546       2.30515571       0.21849610        4      -0.00000000      -0.00194337       0.00281449
O        7.06097413       5.09563880       1.15292849        5       0.00162467      -0.00300974       0.00000000
O        8.13449020       2.17893903       2.49688375        6      -0.00162467       0.00106637       0.00281449
O        4.14016163       4.44695713       2.07820443        7       0.00162467      -0.00106637      -0.00281449
O        6.28517636       4.32074045       4.35659209        8      -0.00000000       0.00194337      -0.00281449
O        5.21367770       1.53025736       3.42215970        9      -0.00162467       0.00300974      -0.00000000
