10
Lattice="5.7067068054890395 0.03226702200796557 0.02227992528120607 3.1583700831596495 4.753129720755188 0.022279925281207678 3.158370083159652 1.704898231367357 4.436897627630965" Properties=species:S:1:pos:R:3:spacegroup_kinds:I:1:forces:R:3 spacegroup="P 1" unit_cell=conventional occupancy="_JSON {\"0\": {\"In\": 1}, \"1\": {\"In\": 1}, \"2\": {\"In\": 1}, \"3\": {\"In\": 1}, \"4\": {\"O\": 1}, \"5\": {\"O\": 1}, \"6\": {\"O\": 1}, \"7\": {\"O\": 1}, \"8\": {\"O\": 1}, \"9\": {\"O\": 1}}" n_minim_iter=1 energy=-11287.528322494914 stress="-0.029244489225430992 -0.003955889421284724 -0.002731486061362131 -0.003955889421284724 -0.02405149879110013 -0.0014744648756672613 -0.002731486061362131 -0.0014744648756672613 -0.0229341943548638" free_energy=-11287.528322494914 pbc="T T T"
In      10.29830291       5.55905672       3.83845055        0       0.03992246       0.02155027       0.01488016
In       7.73686756       4.17638576       2.88373568        1      -0.03992246      -0.02155027      -0.01488016
In       4.28657942       2.31390923       1.59772181        2       0.03992246       0.02155027       0.01488016
In       1.72514407       0.93123827       0.64300694        3      -0.03992246      -0.02155027      -0.01488016
O        5.85921515       2.27217005       0.21408843        4      -0.00000000       0.03199726      -0.04634020
O        6.90882214       4.99632979       1.14264430        5      -0.02674987       0.04955485       0.00000000
O        7.96797825       2.14356150       2.43253724        6       0.02674987      -0.01755760      -0.04634020
O        4.05546874       4.34673348       2.04892024        7      -0.02674987       0.01755760       0.04634020
O        6.16423183       4.21812493       4.26736906        8       0.00000000      -0.03199726       0.04634020
O        5.11462484       1.49396520       3.33881319        9       0.02674987      -0.04955485      -0.00000000
10
Lattice="5.723694653368072 0.04959315369661604 0.03424337574590053 3.1821764188769524 4.757824419315121 0.034243375745902166 3.182176418876954 1.7177489672187947 4.437049053079367" Properties=species:S:1:pos:R:3:spacegroup_kinds:I:1:forces:R:3 spacegroup="P 1" unit_cell=conventional occupancy="_JSON {\"0\": {\"In\": 1}, \"1\": {\"In\": 1}, \"2\": {\"In\": 1}, \"3\": {\"In\": 1}, \"4\": {\"O\": 1}, \"5\": {\"O\": 1}, \"6\": {\"O\": 1}, \"7\": {\"O\": 1}, \"8\": {\"O\": 1}, \"9\": {\"O\": 1}}" n_minim_iter=2 energy=-11287.531926859865 stress="-0.023127659175632826 -8.628437925606579e-05 -5.9578146057225794e-05 -8.628437925606579e-05 -0.02301439161880325 -3.216047607933736e-05 -5.9578146057225794e-05 -3.216047607933736e-05 -0.02299002139131967" free_energy=-11287.531926859865 pbc="T T T"
In      10.35389206       5.58906392       3.85917010        0      -0.01425919      -0.00769716      -0.00531478
In       7.77817918       4.19868590       2.89913361        1       0.01425919       0.00769716       0.00531478
In       4.30986832       2.32648065       1.60640219        2      -0.01425919      -0.00769716      -0.00531478
In       1.73415544       0.93610263       0.64636571        3       0.01425919       0.00769716       0.00531478
O        5.88385920       2.28806091       0.22824778        4      -0.00000000       0.02724307      -0.03945493
O        6.94661509       5.01375034       1.16062733        5      -0.02277535       0.04219194      -0.00000000
O        8.00327973       2.16818548       2.44677231        6       0.02277535      -0.01494887      -0.03945493
O        4.08476777       4.35698107       2.05876350        7      -0.02277535       0.01494887       0.03945493
O        6.20418830       4.23710564       4.27728803        8      -0.00000000      -0.02724307       0.03945493
O        5.14143241       1.51141621       3.34490848        9       0.02277535      -0.04219194       0.00000000
10
Lattice="5.725787628490896 0.05172208074907147 0.035713369959997535 3.1851046736794024 4.758405968170643 0.035713369959999144 3.1851046736794038 1.7193296484886407 4.437072048383243" Properties=species:S:1:pos:R:3:spacegroup_kinds:I:1:forces:R:3 spacegroup="P 1" unit_cell=conventional occupancy="_JSON {\"0\": {\"In\": 1}, \"1\": {\"In\": 1}, \"2\": {\"In\": 1}, \"3\": {\"In\": 1}, \"4\": {\"O\": 1}, \"5\": {\"O\": 1}, \"6\": {\"O\": 1}, \"7\": {\"O\": 1}, \"8\": {\"O\": 1}, \"9\": {\"O\": 1}}" n_minim_iter=3 energy=-11287.532273660878 stress="-0.022524467508930408 0.0003740087001576528 0.00025824775024952236 0.0003740087001576528 -0.02301543764965226 0.00013940295780118892 0.00025824775024952236 0.00013940295780118892 -0.023121072958096157" free_energy=-11287.532273660878 pbc="T T T"
In      10.36003211       5.59237834       3.86145866        0       0.01461552       0.00788950       0.00544759
In       7.78396336       4.20180822       2.90128953        1      -0.01461552      -0.00788950      -0.00544759
In       4.31203362       2.32764949       1.60720926        2       0.01461552       0.00788950       0.00544759
In       1.73596488       0.93707937       0.64704014        3      -0.01461552      -0.00788950      -0.00544759
O        5.88689306       2.29122431       0.22823740        4      -0.00000000       0.00550655      -0.00797490
O        6.95025521       5.01776759       1.16283807        5      -0.00460351       0.00852812       0.00000000
O        8.00863559       2.17055000       2.44677342        6       0.00460351      -0.00302157      -0.00797490
O        4.08736140       4.35890771       2.06172537        7      -0.00460351       0.00302157       0.00797490
O        6.20910392       4.23823340       4.28026140        8       0.00000000      -0.00550655       0.00797490
O        5.14574177       1.51169012       3.34566072        9       0.00460351      -0.00852812      -0.00000000
10
Lattice="5.723007718139208 0.04889414661265925 0.033760721176856426 3.181215109103064 4.757633698496368 0.033760721176858036 3.181215109103065 1.7172300491407533 4.437041711962006" Properties=species:S:1:pos:R:3:spacegroup_kinds:I:1:forces:R:3 spacegroup="P 1" unit_cell=conventional occupancy="_JSON {\"0\": {\"In\": 1}, \"1\": {\"In\": 1}, \"2\": {\"In\": 1}, \"3\": {\"In\": 1}, \"4\": {\"O\": 1}, \"5\": {\"O\": 1}, \"6\": {\"O\": 1}, \"7\": {\"O\": 1}, \"8\": {\"O\": 1}, \"9\": {\"O\": 1}}" n_minim_iter=4 energy=-11287.532359831113 stress="-0.023309532437191118 -0.00020737919340689732 -0.00014319241591722665 -0.00020737919340689732 -0.023037300831619797 -7.72957251855498e-05 -0.00014319241591722665 -7.72957251855498e-05 -0.022978728491912067" free_energy=-11287.532359831113 pbc="T T T"
In      10.35131146       5.58767090       3.85820824        0       0.02243124       0.01210845       0.00836072
In       7.77684545       4.19796595       2.89863650        1      -0.02243124      -0.01210845      -0.00836072
In       4.30859249       2.32579195       1.60592666        2       0.02243124       0.01210845       0.00836072
In       1.73412649       0.93608700       0.64635492        3      -0.02243124      -0.01210845      -0.00836072
O        5.88286335       2.28907417       0.22527965        4      -0.00000000       0.00207055      -0.00299868
O        6.94370490       5.01560925       1.15990151        5      -0.00173099       0.00320670       0.00000000
O        8.00323691       2.16628334       2.44380050        6       0.00173099      -0.00113615      -0.00299868
O        4.08220104       4.35747457       2.06076266        7      -0.00173099       0.00113615       0.00299868
O        6.20257460       4.23468374       4.27928351        8       0.00000000      -0.00207055       0.00299868
O        5.14173305       1.50814865       3.34466165        9       0.00173099      -0.00320670      -0.00000000
10
Lattice="5.7225307370510885 0.04840870410056748 0.03342552994368173 3.1805475467996467 4.757501312839949 0.03342552994368332 3.180547546799647 1.7168696968829564 4.437036674589353" Properties=species:S:1:pos:R:3:spacegroup_kinds:I:1:forces:R:3 spacegroup="P 1" unit_cell=conventional occupancy="_JSON {\"0\": {\"In\": 1}, \"1\": {\"In\": 1}, \"2\": {\"In\": 1}, \"3\": {\"In\": 1}, \"4\": {\"O\": 1}, \"5\": {\"O\": 1}, \"6\": {\"O\": 1}, \"7\": {\"O\": 1}, \"8\": {\"O\": 1}, \"9\": {\"O\": 1}}" n_minim_iter=5 energy=-11287.532477631621 stress="-0.02289220149998559 9.80901085969849e-06 6.772981874120848e-06 9.80901085969849e-06 -0.022905078028928792 3.656082238623678e-06 6.772981874120848e-06 3.656082238623678e-06 -0.022907848489614694" free_energy=-11287.532477631621 pbc="T T T"
In      10.35145156       5.58774653       3.85826046        0       0.00008697       0.00004695       0.00003242
In       7.77398720       4.19642305       2.89757115        1      -0.00008697      -0.00004695      -0.00003242
In       4.30963864       2.32635667       1.60631659        2       0.00008697       0.00004695       0.00003242
In       1.73217428       0.93503320       0.64562728        3      -0.00008697      -0.00004695      -0.00003242
O        5.88217183       2.28938518       0.22378708        4      -0.00000000      -0.00013553       0.00019629
O        6.94201223       5.01629211       1.15939747        5       0.00011331      -0.00020990       0.00000000
O        8.00287898       2.16517786       2.44230542        6      -0.00011331       0.00007437       0.00019629
O        4.08074686       4.35760186       2.06158232        7       0.00011331      -0.00007437      -0.00019629
O        6.20145401       4.23339454       4.28010066        8       0.00000000       0.00013553      -0.00019629
O        5.14161361       1.50648762       3.34449027        9      -0.00011331       0.00020990      -0.00000000
