10
Lattice="5.660176806289355 0.09365439339066495 0.06466704260733586 3.1841582046401173 4.680545817709761 0.06466704260733278 3.1841582046401173 1.7188187414864142 4.354004261825545" Properties=species:S:1:pos:R:3:spacegroup_kinds:I:1:forces:R:3 spacegroup="P 1" unit_cell=conventional occupancy="_JSON {\"0\": {\"In\": 1}, \"1\": {\"In\": 1}, \"2\": {\"In\": 1}, \"3\": {\"In\": 1}, \"4\": {\"O\": 1}, \"5\": {\"O\": 1}, \"6\": {\"O\": 1}, \"7\": {\"O\": 1}, \"8\": {\"O\": 1}, \"9\": {\"O\": 1}}" n_minim_iter=4 energy=-11287.447521999218 stress="-0.013703317190394027 -8.023221016050881e-05 -5.5399214440749265e-05 -8.023221016050881e-05 -0.013597994455465376 -2.9904673822863948e-05 -5.5399214440749265e-05 -2.9904673822863948e-05 -0.01357533361287687" free_energy=-11287.447521999218 pbc="T T T"
In      10.30602769       5.56322658       3.84132978        0       0.00124108       0.00066994       0.00046258
In       7.73671214       4.17630186       2.88367775        1      -0.00124108      -0.00066994      -0.00046258
In       4.29178108       2.31671710       1.59966060        2       0.00124108       0.00066994       0.00046258
In       1.72246554       0.92979239       0.64200858        3      -0.00124108      -0.00066994      -0.00046258
O        5.83721171       2.28809508       0.25812724        4      -0.00000000      -0.00055686       0.00080647
O        6.91262875       4.96748530       1.18550163        5       0.00046553      -0.00086242      -0.00000000
O        7.94595288       2.19037400       2.43512937        6      -0.00046553       0.00030556       0.00080647
O        4.08254034       4.30264497       2.04820898        7       0.00046553      -0.00030556      -0.00080647
O        6.19128151       4.20492388       4.22521111        8      -0.00000000       0.00055686      -0.00080647
O        5.11586448       1.52553366       3.29783672        9      -0.00046553       0.00086241      -0.00000000
