10
Lattice="6.408844856518611 0.12122194227621612 0.08370204773437906 3.6180153273808195 5.291309123936308 0.08370204773438428 3.618015327380818 1.95301619832362 4.918402790228971" Properties=species:S:1:pos:R:3:spacegroup_kinds:I:1:forces:R:3 spacegroup="P 1" unit_cell=conventional occupancy="_JSON {\"0\": {\"In\": 1}, \"1\": {\"In\": 1}, \"2\": {\"In\": 1}, \"3\": {\"In\": 1}, \"4\": {\"O\": 1}, \"5\": {\"O\": 1}, \"6\": {\"O\": 1}, \"7\": {\"O\": 1}, \"8\": {\"O\": 1}, \"9\": {\"O\": 1}}" n_minim_iter=4 energy=-11286.847513000923 stress="0.05986579212717417 -1.0212491303948169e-05 -7.0515889474991025e-06 -1.0212491303948169e-05 0.059879198309319835 -3.806469175629797e-06 -7.0515889474991025e-06 -3.806469175629797e-06 0.059882082737170904" free_energy=-11286.847513000923 pbc="T T T"
In      11.60254181       6.26308903       4.32457497        0       0.00048989       0.00026444       0.00018259
In       8.86477147       4.78523188       3.30413537        1      -0.00048989      -0.00026444      -0.00018259
In       4.78010406       2.58031540       1.78167152        2       0.00048989       0.00026444       0.00018259
In       2.04233371       1.10245825       0.76123193        3      -0.00048989      -0.00026444      -0.00018259
O        6.61564131       2.58674599       0.32161248        4      -0.00000000      -0.00071517       0.00103575
O        7.85219607       5.60813684       1.35515377        5       0.00059788      -0.00110760       0.00000000
O        8.99710188       2.50276960       2.78081388        6      -0.00059788       0.00039243       0.00103575
O        4.64777364       4.86277768       2.30499301        7       0.00059788      -0.00039243      -0.00103575
O        7.02923421       4.77880129       4.76419441        8      -0.00000000       0.00071517      -0.00103575
O        5.79267945       1.75741044       3.73065312        9      -0.00059788       0.00110760       0.00000000
