10
Lattice="6.051092568979178 -0.017373286721320158 -0.011996010352137418 3.3058425293944755 5.068276657828899 -0.011996010352132921 3.3058425293944786 1.7845043275945731 4.743744985699997" Properties=species:S:1:pos:R:3:spacegroup_kinds:I:1:forces:R:3 spacegroup="P 1" unit_cell=conventional occupancy="_JSON {\"0\": {\"In\": 1}, \"1\": {\"In\": 1}, \"2\": {\"In\": 1}, \"3\": {\"In\": 1}, \"4\": {\"O\": 1}, \"5\": {\"O\": 1}, \"6\": {\"O\": 1}, \"7\": {\"O\": 1}, \"8\": {\"O\": 1}, \"9\": {\"O\": 1}}" n_minim_iter=1 energy=-11287.510095160811 stress="0.03234001310327364 0.0023377843833893856 0.0016142072655177494 0.0023377843833893856 0.02927114776949186 0.0008713542234102408 0.0016142072655177494 0.0008713542234102408 0.02861086216104717" free_energy=-11287.510095160811 pbc="T T T"
In      10.84488155       5.85410161       4.04217490        0      -0.11066117      -0.05973525      -0.04124635
In       8.14928490       4.39900995       3.03745456        1       0.11066117       0.05973525       0.04124635
In       4.51349273       2.43639776       1.68229841        2      -0.11066117      -0.05973525      -0.04124635
In       1.81789609       0.98130610       0.67757807        3       0.11066117       0.05973525       0.04124635
O        6.19124070       2.36305071       0.21391285        4       0.00000000      -0.01695255       0.02455163
O        7.28998645       5.26092875       1.16794223        5       0.01417242      -0.02625479      -0.00000000
O        8.39833748       2.22867774       2.58578535        6      -0.01417242       0.00930224       0.02455163
O        4.26444016       4.60672997       2.13396762        7       0.01417242      -0.00930224      -0.02455163
O        6.47153694       4.47235700       4.50584012        8       0.00000000       0.01695255      -0.02455163
O        5.37279119       1.57447897       3.55181074        9      -0.01417242       0.02625479       0.00000000
10
Lattice="6.0227886001959785 -0.046825865955471266 -0.03233260244649782 3.2656890203216484 5.060775672456127 -0.03233260244649336 3.265689020321651 1.762829335494543 4.743935975329409" Properties=species:S:1:pos:R:3:spacegroup_kinds:I:1:forces:R:3 spacegroup="P 1" unit_cell=conventional occupancy="_JSON {\"0\": {\"In\": 1}, \"1\": {\"In\": 1}, \"2\": {\"In\": 1}, \"3\": {\"In\": 1}, \"4\": {\"O\": 1}, \"5\": {\"O\": 1}, \"6\": {\"O\": 1}, \"7\": {\"O\": 1}, \"8\": {\"O\": 1}, \"9\": {\"O\": 1}}" n_minim_iter=2 energy=-11287.51377801702 stress="0.02750834667091498 -0.0011476788229909665 -0.0007924560999963766 -0.0011476788229909665 0.02901493204837214 -0.00042777032588910217 -0.0007924560999963766 -0.00042777032588910217 0.02933908333832283" free_energy=-11287.51377801702 pbc="T T T"
In      10.75029568       5.80304385       4.00692024        0      -0.04488156      -0.02422721      -0.01672855
In       8.08095429       4.36212487       3.01198593        1       0.04488156       0.02422721       0.01672855
In       4.47321236       2.41465428       1.66728485        2      -0.04488156      -0.02422721      -0.01672855
In       1.80387097       0.97373530       0.67235054        3       0.04488156       0.02422721       0.01672855
O        6.14993597       2.33628532       0.18983242        4      -0.00000000      -0.02275099       0.03294924
O        7.22641627       5.23184944       1.13748509        5       0.01901994      -0.03523495       0.00000000
O        8.33914468       2.18702024       2.56180041        6      -0.01901994       0.01248396       0.03294924
O        4.21502197       4.58975891       2.11747037        7       0.01901994      -0.01248396      -0.03294924
O        6.40423069       4.44049384       4.48943836        8      -0.00000000       0.02275099      -0.03294924
O        5.32775038       1.54492971       3.54178568        9      -0.01901994       0.03523495       0.00000000
10
Lattice="6.03128187054217 -0.03796327408489091 -0.026213107296755564 3.277758634292065 5.063012991039399 -0.026213107296751054 3.2777586342920686 1.7693445515615804 4.743859982365333" Properties=species:S:1:pos:R:3:spacegroup_kinds:I:1:forces:R:3 spacegroup="P 1" unit_cell=conventional occupancy="_JSON {\"0\": {\"In\": 1}, \"1\": {\"In\": 1}, \"2\": {\"In\": 1}, \"3\": {\"In\": 1}, \"4\": {\"O\": 1}, \"5\": {\"O\": 1}, \"6\": {\"O\": 1}, \"7\": {\"O\": 1}, \"8\": {\"O\": 1}, \"9\": {\"O\": 1}}" n_minim_iter=3 energy=-11287.514552403185 stress="0.028415395643798136 0.00013367509613917752 9.23007734177792e-05 0.00013367509613917752 0.028239917157968593 4.9824252352642854e-05 9.23007734177792e-05 4.9824252352642854e-05 0.028202161860269487" free_energy=-11287.514552403185 pbc="T T T"
In      10.77769179       5.81783236       4.01713149        0      -0.05889887      -0.03179380      -0.02195317
In       8.10250693       4.37375905       3.02001917        1       0.05889887       0.03179380       0.02195317
In       4.48429222       2.42063523       1.67141461        2      -0.05889887      -0.03179380      -0.02195317
In       1.80910736       0.97656192       0.67430228        3       0.05889887       0.03179380       0.02195317
O        6.16234072       2.34400535       0.19754779        4      -0.00000000      -0.02177220       0.03153170
O        7.24578802       5.24007628       1.14664534        5       0.01820167      -0.03371908       0.00000000
O        8.35665207       2.19972478       2.56947778        6      -0.01820167       0.01194688       0.03153170
O        4.23014708       4.59466951       2.12195600        7       0.01820167      -0.01194688      -0.03153170
O        6.42445842       4.45038893       4.49388599        8      -0.00000000       0.02177220      -0.03153170
O        5.34101113       1.55431800       3.54478844        9      -0.01820167       0.03371908      -0.00000000
10
Lattice="6.039541276059486 -0.02936507987169168 -0.020276175014126457 3.289478883762166 5.065199878230374 -0.02027617501412195 3.289478883762168 1.7756711795585023 4.743801512688267" Properties=species:S:1:pos:R:3:spacegroup_kinds:I:1:forces:R:3 spacegroup="P 1" unit_cell=conventional occupancy="_JSON {\"0\": {\"In\": 1}, \"1\": {\"In\": 1}, \"2\": {\"In\": 1}, \"3\": {\"In\": 1}, \"4\": {\"O\": 1}, \"5\": {\"O\": 1}, \"6\": {\"O\": 1}, \"7\": {\"O\": 1}, \"8\": {\"O\": 1}, \"9\": {\"O\": 1}}" n_minim_iter=4 energy=-11287.516142968814 stress="0.027810181222640475 0.0005875531913597671 0.0004056972271038477 0.0005875531913597671 0.027038886130482456 0.00021899665308336194 0.0004056972271038477 0.00021899665308336194 0.026872937156751535" free_energy=-11287.516142968814 pbc="T T T"
In      10.79821778       5.82891236       4.02478207        0      -0.02583800      -0.01394744      -0.00963051
In       8.12953080       4.38834662       3.03009168        1       0.02583800       0.01394744       0.00963051
In       4.48896826       2.42315937       1.67315749        2      -0.02583800      -0.01394744      -0.00963051
In       1.82028127       0.98259363       0.67846709        3       0.02583800       0.01394744       0.00963051
O        6.17439540       2.34922087       0.20833842        4       0.00000000       0.00665503      -0.00963818
O        7.26651305       5.24454071       1.15553612        5      -0.00556364       0.01030679      -0.00000000
O        8.37175664       2.21330964       2.58023917        6       0.00556364      -0.00365176      -0.00963818
O        4.24674242       4.59819635       2.12300999        7      -0.00556364       0.00365176       0.00963818
O        6.44410365       4.46228512       4.49491075        8       0.00000000      -0.00665503       0.00963818
O        5.35198600       1.56696528       3.54771305        9       0.00556364      -0.01030679      -0.00000000
10
Lattice="6.036917137011015 -0.03209469267794696 -0.02216093430040284 3.285756991425054 5.064503883080435 -0.02216093430039833 3.2857569914250555 1.7736620902194433 4.7438184491466595" Properties=species:S:1:pos:R:3:spacegroup_kinds:I:1:forces:R:3 spacegroup="P 1" unit_cell=conventional occupancy="_JSON {\"0\": {\"In\": 1}, \"1\": {\"In\": 1}, \"2\": {\"In\": 1}, \"3\": {\"In\": 1}, \"4\": {\"O\": 1}, \"5\": {\"O\": 1}, \"6\": {\"O\": 1}, \"7\": {\"O\": 1}, \"8\": {\"O\": 1}, \"9\": {\"O\": 1}}" n_minim_iter=5 energy=-11287.516327098489 stress="0.02725258338290575 8.03473289424556e-05 5.547870439121128e-05 8.03473289424556e-05 0.02714710953028915 2.9947579251245653e-05 5.547870439121128e-05 2.9947579251245653e-05 0.02712441616730765" free_energy=-11287.516327098489 pbc="T T T"
In      10.78870562       5.82377767       4.02123664        0      -0.01251892      -0.00675775      -0.00466613
In       8.12394107       4.38532927       3.02800824        1       0.01251892       0.00675775       0.00466613
In       4.48449006       2.42074202       1.67148835        2      -0.01251892      -0.00675775      -0.00466613
In       1.81972551       0.98229363       0.67825994        3       0.01251892       0.00675775       0.00466613
O        6.17056635       2.34663793       0.20625436        4       0.00000000       0.00858439      -0.01243239
O        7.26070557       5.24168689       1.15271321        5      -0.00717659       0.01329483      -0.00000000
O        8.36618413       2.20950450       2.57816358        6       0.00717659      -0.00471044      -0.01243239
O        4.24224700       4.59656679       2.12133300        7      -0.00717659       0.00471044       0.01243239
O        6.43786478       4.45943337       4.49324223        8       0.00000000      -0.00858439       0.01243239
O        5.34772556       1.56438440       3.54678337        9       0.00717659      -0.01329483      -0.00000000
10
Lattice="6.035668720136654 -0.03339399448114115 -0.023058083937755793 3.283985735028153 5.064173155633121 -0.02305808393775128 3.2839857350281534 1.772705960374346 4.743827041906487" Properties=species:S:1:pos:R:3:spacegroup_kinds:I:1:forces:R:3 spacegroup="P 1" unit_cell=conventional occupancy="_JSON {\"0\": {\"In\": 1}, \"1\": {\"In\": 1}, \"2\": {\"In\": 1}, \"3\": {\"In\": 1}, \"4\": {\"O\": 1}, \"5\": {\"O\": 1}, \"6\": {\"O\": 1}, \"7\": {\"O\": 1}, \"8\": {\"O\": 1}, \"9\": {\"O\": 1}}" n_minim_iter=6 energy=-11287.516379116198 stress="0.02682680738183057 -0.0002002965535010301 -0.0001383019597148255 -0.0002002965535010301 0.027089741451890765 -7.465583617839276e-05 -0.0001383019597148255 -7.465583617839276e-05 0.02714631336468592" free_energy=-11287.516379116198 pbc="T T T"
In      10.78373139       5.82109256       4.01938261        0      -0.00175650      -0.00094817      -0.00065470
In       8.12172890       4.38413513       3.02718370        1       0.00175650       0.00094817       0.00065469
In       4.48191130       2.41935000       1.67052718        2      -0.00175650      -0.00094817      -0.00065469
In       1.81990881       0.98239257       0.67832827        3       0.00175650       0.00094817       0.00065469
O        6.16874441       2.34565283       0.20490881        4       0.00000000       0.00595406      -0.00862300
O        7.25773792       5.24070714       1.15136964        5      -0.00497762       0.00922118       0.00000000
O        8.36373664       2.20755954       2.57682233        6       0.00497762      -0.00326712      -0.00862300
O        4.23990356       4.59592559       2.12088855        7      -0.00497762       0.00326712       0.00862300
O        6.43489579       4.45783230       4.49280207        8       0.00000000      -0.00595406       0.00862300
O        5.34590228       1.56277800       3.54634124        9       0.00497762      -0.00922118      -0.00000000
10
Lattice="6.037217691300034 -0.03178195601863836 -0.02194499403171708 3.286183361535654 5.064583542527543 -0.02194499403171257 3.2861833615356533 1.7738922461632796 4.743816432051905" Properties=species:S:1:pos:R:3:spacegroup_kinds:I:1:forces:R:3 spacegroup="P 1" unit_cell=conventional occupancy="_JSON {\"0\": {\"In\": 1}, \"1\": {\"In\": 1}, \"2\": {\"In\": 1}, \"3\": {\"In\": 1}, \"4\": {\"O\": 1}, \"5\": {\"O\": 1}, \"6\": {\"O\": 1}, \"7\": {\"O\": 1}, \"8\": {\"O\": 1}, \"9\": {\"O\": 1}}" n_minim_iter=7 energy=-11287.516421519304 stress="0.026799495861384096 -1.6419293439154166e-06 -1.1337303711697964e-06 -1.6419293439154166e-06 0.026801651255653626 -6.119925323775593e-07 -1.1337303711697964e-06 -6.119925323775593e-07 0.02680211500614122" free_energy=-11287.516421519304 pbc="T T T"
In      10.78830116       5.82355933       4.02108588        0      -0.00018742      -0.00010117      -0.00006986
In       8.12607547       4.38648143       3.02880379        1       0.00018742       0.00010117       0.00006986
In       4.48350895       2.42021242       1.67112266        2      -0.00018742      -0.00010117      -0.00006986
In       1.82128327       0.98313451       0.67884056        3       0.00018742       0.00010117       0.00006986
O        6.17100495       2.34749480       0.20568068        4      -0.00000000      -0.00013220       0.00019146
O        7.26090184       5.24288258       1.15303662        5       0.00011052      -0.00020474      -0.00000000
O        8.36729143       2.20963260       2.57758890        6      -0.00011052       0.00007254       0.00019146
O        4.24229299       4.59706124       2.12233755        7       0.00011052      -0.00007254      -0.00019146
O        6.43857947       4.45919904       4.49424577        8      -0.00000000       0.00013220      -0.00019146
O        5.34868259       1.56381126       3.54688983        9      -0.00011052       0.00020474       0.00000000
