80
Lattice="11.755483960318193 0.003804752864529521 0.002627128388677982 6.453671649638002 9.825555447713965 0.002627128388678433 6.4536716496380055 3.483712513603263 9.187235377439135" Properties=species:S:1:pos:R:3:spacegroup_kinds:I:1:forces:R:3 spacegroup="P 1" unit_cell=conventional occupancy="_JSON {\"0\": {\"In\": 1}, \"1\": {\"In\": 1}, \"2\": {\"In\": 1}, \"3\": {\"In\": 1}, \"4\": {\"O\": 1}, \"5\": {\"O\": 1}, \"6\": {\"O\": 1}, \"7\": {\"O\": 1}, \"8\": {\"O\": 1}, \"9\": {\"O\": 1}}" n_minim_iter=3 energy=-90301.47406980774 stress="0.0005874753143384222 -0.0006092056102648245 -0.00041651565022691073 -0.0006092056102648245 0.0013667795543782688 -0.00038231247911589414 -0.00041651565022691073 -0.00038231247911589414 0.0014887548276852197" free_energy=-11287.686850907627 pbc="T T T"
In      10.52869265       5.70626026       3.94009252        0       0.54201006      -0.03808150      -0.03284293
In      16.44876880       5.70817634       3.94141554        0      -0.02595778       0.00048514       0.00145724
In      13.79786264      10.61905168       3.94141554        0      -0.00551957      -0.01189702      -0.00125020
In      19.67560462      10.62095406       3.94272911        0       0.00548430       0.02042327       0.00570093
In      13.79786264       7.44813022       8.53371967        0       0.00021640      -0.00906238      -0.01425875
In      19.67560462       7.45003259       8.53503323        0       0.00702124       0.01249581       0.01643749
In      17.02469847      12.36090794       8.53503323        0       0.01601788       0.00581124       0.00469428
In      22.90244045      12.36281032       8.53634680        0      -0.00467975       0.00006369       0.00010833
In       7.92609363       4.27853059       2.95426525        1      -0.09516731      -0.08540946      -0.05942316
In      13.80383561       4.28043297       2.95557881        1      -0.06960321       0.02194551       0.03517755
In      11.15292945       9.19130831       2.95557881        1       0.01161279      -0.03252326      -0.00905583
In      17.03067143       9.19321069       2.95689238        1      -0.01045479       0.00402572      -0.00043011
In      11.15292945       6.02038685       7.54788294        1       0.01069831      -0.00959013      -0.01086226
In      17.03067143       6.02228922       7.54919650        1      -0.01042298      -0.00137455       0.00009353
In      14.37976528      10.93316457       7.54919650        1      -0.00268955      -0.00639947      -0.00183725
In      20.25750726      10.93506695       7.55051007        1      -0.00848499       0.00400297      -0.00158317
In       4.40532001       2.37800578       1.64197957        2      -0.00217633      -0.00053901       0.00229999
In      10.28306199       2.37990816       1.64329313        2       0.00947226      -0.00902670       0.00022626
In       7.63215583       7.29078350       1.64329313        2      -0.01956037       0.02396977      -0.04658527
In      13.50989781       7.29268588       1.64460670        2      -0.02193776      -0.01243238       0.02288628
In       7.63215583       4.11986204       6.23559726        2      -0.02388747      -0.00886336       0.02702239
In      13.50989781       4.12176441       6.23691082        2      -0.02645134       0.01384667      -0.04077603
In      10.85899166       9.03263976       6.23691082        2       0.00945929       0.00386151      -0.00224970
In      16.73673364       9.03454214       6.23822439        2      -0.00229595      -0.00050539       0.00254293
In       1.76038681       0.95026241       0.65614284        3       0.00565687       0.00589285       0.00384942
In       7.63812879       0.95216479       0.65745640        3      -0.00843888      -0.00823732      -0.00547735
In       4.98722263       5.86304013       0.65745640        3      -0.01562008      -0.00336325      -0.00405879
In      10.86496461       5.86494251       0.65876997        3       0.03315570       0.01687698       0.02242040
In       4.98722263       2.69211867       5.24976053        3      -0.01748023      -0.00362027      -0.00092122
In      10.86496461       2.69402104       5.25107409        3       0.06544122       0.02207107      -0.01293333
In       8.21405846       7.60489639       5.25107409        3      -0.03465800       0.06950945       0.06602487
In      14.09180044       7.60679877       5.25238766        3      -0.02190582      -0.01956089      -0.01357503
O        6.02172440       2.31046160       0.21504826        4       0.00210235       0.00488380       0.00097383
O       11.89946638       2.31236398       0.21636182        4      -0.00369885       0.00113084      -0.00439311
O        9.24856022       7.22323932       0.21636182        4      -0.01319452      -0.00087927       0.00417441
O       15.12630220       7.22514170       0.21767539        4       0.00657085       0.00237635      -0.00456698
O        9.24856022       4.05231786       4.80866595        4      -0.06568582      -0.02388196       0.01086766
O       15.12630220       4.05422023       4.80997951        4       0.02532924      -0.00153083      -0.00021704
O       12.47539605       8.96509558       4.80997951        4       0.00067370       0.01253793       0.00391836
O       18.35313803       8.96699796       4.81129308        4       0.00840948      -0.01023236      -0.00620802
O        7.09560450       5.12098255       1.15037477        5       0.00834338       0.01113481       0.01795153
O       12.97334648       5.12288493       1.15168833        5       0.00111349      -0.00301518      -0.02158809
O       10.32244032      10.03376027       1.15168833        5      -0.00723615       0.00701791      -0.00438366
O       16.20018230      10.03566265       1.15300190        5       0.00083559       0.00321354       0.00191973
O       10.32244032       6.86283881       5.74399246        5      -0.03999115       0.02189337       0.02420578
O       16.20018230       6.86474118       5.74530602        5       0.00657390       0.00371479       0.00270443
O       13.54927615      11.77561653       5.74530602        5       0.00443464       0.01195744       0.00027699
O       19.42701813      11.77751891       5.74661959        5       0.00361579      -0.01700662       0.00680194
O        8.17468013       2.18188133       2.51185710        6       0.00519261       0.01141946       0.00356635
O       14.05242211       2.18378371       2.51317066        6       0.00528015      -0.01445032      -0.00947680
O       11.40151595       7.09465905       2.51317066        6      -0.05727901      -0.04406682       0.03959910
O       17.27925793       7.09656143       2.51448423        6       0.02152455      -0.00131302      -0.00229631
O       11.40151595       3.92373759       7.10547479        6      -0.01331414      -0.00426362       0.00899949
O       17.27925793       3.92563996       7.10678835        6       0.00714052       0.00102035      -0.00438405
O       14.62835178       8.83651531       7.10678835        6       0.00342793       0.00343154       0.00141251
O       20.50609376       8.83841769       7.10810192        6       0.00185160      -0.00448578      -0.00670955
O        4.15673351       4.47465504       2.08438772        7       0.00767915       0.00251488      -0.00070275
O       10.03447549       4.47655742       2.08570128        7      -0.04755839      -0.01183635      -0.01035418
O        7.38356933       9.38743276       2.08570128        7      -0.00001731      -0.01424668       0.00541165
O       13.26131131       9.38933514       2.08701485        7       0.00638696       0.01294147       0.00178135
O        7.38356933       6.21651130       6.67800541        7       0.00480746      -0.00286125      -0.01224049
O       13.26131131       6.21841367       6.67931897        7       0.00297505       0.01348492       0.02008842
O       10.61040516      11.12928902       6.67931897        7       0.00147916       0.00033116       0.00323712
O       16.48814714      11.13119140       6.68063254        7      -0.00610446       0.00497728      -0.00139845
O        6.30968924       4.34607477       4.38119657        8       0.02399616       0.00510849      -0.00309544
O       12.18743122       4.34797715       4.38251013        8      -0.12586217       0.06775353      -0.01065647
O        9.53652506       9.25885249       4.38251013        8      -0.01068985      -0.01196243       0.00423420
O       15.41426704       9.26075487       4.38382370        8       0.00510418       0.00120236       0.00308255
O        9.53652506       6.08793103       8.97481426        8      -0.00122525      -0.00205014      -0.00161515
O       15.41426704       6.08983340       8.97612782        8       0.00354516      -0.00023559       0.00818242
O       12.76336089      11.00070875       8.97612782        8       0.00286983      -0.00308488       0.00493801
O       18.64110287      11.00261113       8.97744139        8      -0.00001298       0.00004417      -0.00678407
O        5.23580914       1.53555382       3.44587005        9       0.00416450       0.00004320       0.00190195
O       11.11355112       1.53745620       3.44718361        9      -0.00772786      -0.01066605      -0.00580036
O        8.46264496       6.44833154       3.44718361        9      -0.09517896       0.01987493      -0.00989169
O       14.34038694       6.45023392       3.44849718        9       0.02591702       0.00487366      -0.00055772
O        8.46264496       3.27741008       8.03948774        9      -0.00162971      -0.00135949      -0.00781756
O       14.34038694       3.27931245       8.04080130        9       0.00554376      -0.00243561       0.00305372
O       11.68948079       8.19018780       8.04080130        9       0.00131019      -0.00220931       0.00075248
O       17.56722277       8.19209018       8.04211487        9      -0.00064596      -0.00560396      -0.00171953
