80
Lattice="11.755483960318193 0.003804752864529521 0.002627128388677982 6.453671649638002 9.825555447713965 0.002627128388678433 6.4536716496380055 3.483712513603263 9.187235377439135" Properties=species:S:1:pos:R:3:spacegroup_kinds:I:1:forces:R:3 spacegroup="P 1" unit_cell=conventional occupancy="_JSON {\"0\": {\"In\": 1}, \"1\": {\"In\": 1}, \"2\": {\"In\": 1}, \"3\": {\"In\": 1}, \"4\": {\"O\": 1}, \"5\": {\"O\": 1}, \"6\": {\"O\": 1}, \"7\": {\"O\": 1}, \"8\": {\"O\": 1}, \"9\": {\"O\": 1}}" n_minim_iter=3 energy=-90301.4738660403 stress="0.0006906708995333358 -0.00036982758544330634 -0.0005062915282317635 -0.00036982758544330634 0.0012386224992740839 -0.00013051402487545326 -0.0005062915282317635 -0.00013051402487545326 0.0016106543475130717" free_energy=-11287.686850907627 pbc="T T T"
In      10.57102682       5.70627396       3.94010198        0       0.00042210      -0.00176818      -0.00425158
In      16.44876880       5.70817634       3.94141554        0       0.00623796       0.00773741       0.01101848
In      13.79786264      10.61905168       3.94141554        0       0.01570026       0.00756163      -0.01126105
In      19.67560462      10.62095406       3.94272911        0      -0.00388854       0.00000416       0.00454832
In      13.79786264       7.44813022       8.53371967        0       0.06852700       0.01633660      -0.00421178
In      19.67560462       7.45003259       8.53503323        0      -0.02265202       0.01708606      -0.00544602
In      17.02469847      12.36090794       8.53503323        0       0.00184953      -0.01652446      -0.00844065
In      22.90244045      12.36281032       8.53634680        0      -0.00636434       0.01130265       0.00260130
In       7.92609363       4.27853059       2.95426525        1      -0.00288541      -0.01641907      -0.01391697
In      13.80383561       4.28043297       2.95557881        1      -0.00983432       0.00239104       0.00668817
In      11.15292945       9.19130831       2.95557881        1       0.01043753      -0.01000721       0.00863421
In      17.03067143       9.19321069       2.95689238        1      -0.00902421       0.00182297      -0.00368852
In      11.15292945       6.02038685       7.54788294        1       0.05374303       0.00129950       0.00308686
In      17.03067143       6.02228922       7.54919650        1      -0.02678841      -0.00169520       0.01646283
In      14.37976528      10.93316457       7.54919650        1      -0.00457236      -0.00734941      -0.00190179
In      20.25750726      10.93506695       7.55051007        1       0.00123157       0.01025805       0.00156391
In       4.40532001       2.37800578       1.64197957        2       0.12925831      -0.00590918      -0.08481765
In      10.28306199       2.37990816       1.64329313        2      -0.02165219       0.00176226      -0.01058870
In       7.63215583       7.29078350       1.64329313        2      -0.00116030      -0.00905905      -0.00048480
In      13.50989781       7.29268588       1.64460670        2       0.00365744       0.01151811       0.00294164
In       7.63215583       4.11986204       6.23559726        2      -0.00256039      -0.00095985      -0.00340416
In      13.50989781       4.12176441       6.23691082        2       0.01340839       0.00703915       0.01235176
In      10.85899166       9.03263976       6.23691082        2       0.00238718       0.00475079      -0.00351888
In      16.73673364       9.03454214       6.23822439        2      -0.00037034      -0.00259670       0.00088436
In       1.76038681       0.95026241       0.65614284        3      -0.02504146      -0.01095030       0.00365887
In       7.63812879       0.95216479       0.65745640        3       0.15667502      -0.11429257       0.03247540
In       4.98722263       5.86304013       0.65745640        3       0.00787935       0.01289814       0.00078443
In      10.86496461       5.86494251       0.65876997        3      -0.00816457      -0.00669803      -0.00180635
In       4.98722263       2.69211867       5.24976053        3      -0.00129006       0.00425816       0.00781782
In      10.86496461       2.69402104       5.25107409        3      -0.00626002      -0.00653457      -0.01041950
In       8.21405846       7.60489639       5.25107409        3      -0.00537695      -0.00294601      -0.00426792
In      14.09180044       7.60679877       5.25238766        3      -0.00247611      -0.00404941       0.00378433
O        6.06405857       2.31047530       0.21505772        4      -0.55224413       0.11193942       0.05121877
O       11.89946638       2.31236398       0.21636182        4       0.02478294       0.00097013      -0.00283736
O        9.24856022       7.22323932       0.21636182        4       0.00371906       0.00794212      -0.00247488
O       15.12630220       7.22514170       0.21767539        4       0.00082035      -0.00476878      -0.00129694
O        9.24856022       4.05231786       4.80866595        4       0.00372666       0.00430632       0.00303724
O       15.12630220       4.05422023       4.80997951        4       0.00090372       0.00075630      -0.00964840
O       12.47539605       8.96509558       4.80997951        4      -0.00465638       0.00375321      -0.00141514
O       18.35313803       8.96699796       4.81129308        4       0.00336871       0.00172212      -0.00281377
O        7.09560450       5.12098255       1.15037477        5      -0.00644218       0.02888291       0.00994199
O       12.97334648       5.12288493       1.15168833        5       0.00387565      -0.00176098      -0.00086903
O       10.32244032      10.03376027       1.15168833        5       0.01431555       0.03597144      -0.00775083
O       16.20018230      10.03566265       1.15300190        5       0.00362960      -0.00371059       0.00245829
O       10.32244032       6.86283881       5.74399246        5      -0.00243391       0.00283314       0.00481911
O       16.20018230       6.86474118       5.74530602        5      -0.00030444       0.00358608      -0.00529049
O       13.54927615      11.77561653       5.74530602        5      -0.00308280       0.00357515       0.00192338
O       19.42701813      11.77751891       5.74661959        5      -0.00443599       0.00284957      -0.00183833
O        8.17468013       2.18188133       2.51185710        6       0.02027264       0.00325930       0.03560427
O       14.05242211       2.18378371       2.51317066        6       0.00734670      -0.00089474      -0.01016648
O       11.40151595       7.09465905       2.51317066        6       0.00003731       0.00088188      -0.00264926
O       17.27925793       7.09656143       2.51448423        6      -0.00128347      -0.00277317      -0.00201856
O       11.40151595       3.92373759       7.10547479        6      -0.00289127       0.01825529       0.01793433
O       17.27925793       3.92563996       7.10678835        6       0.00736358      -0.00402782      -0.00718069
O       14.62835178       8.83651531       7.10678835        6       0.00020225       0.00319726      -0.00413037
O       20.50609376       8.83841769       7.10810192        6       0.00299040      -0.00535958      -0.00047430
O        4.15673351       4.47465504       2.08438772        7       0.00465899      -0.02473566      -0.01360794
O       10.03447549       4.47655742       2.08570128        7       0.00377771       0.00908072       0.00563937
O        7.38356933       9.38743276       2.08570128        7       0.00454162       0.00338641       0.00114329
O       13.26131131       9.38933514       2.08701485        7      -0.01084894      -0.01571895       0.01436173
O        7.38356933       6.21651130       6.67800541        7       0.00500264       0.00238908       0.00742096
O       13.26131131       6.21841367       6.67931897        7      -0.01599624       0.00067549      -0.02537719
O       10.61040516      11.12928902       6.67931897        7       0.00064367      -0.00545920      -0.00158158
O       16.48814714      11.13119140       6.68063254        7       0.00033081       0.00565619       0.00382958
O        6.30968924       4.34607477       4.38119657        8      -0.00385985      -0.00107345       0.00364928
O       12.18743122       4.34797715       4.38251013        8      -0.00025504      -0.00379856       0.00351316
O        9.53652506       9.25885249       4.38251013        8       0.00147258      -0.00019167      -0.00061221
O       15.41426704       9.26075487       4.38382370        8       0.00148933      -0.00444285       0.00553634
O        9.53652506       6.08793103       8.97481426        8       0.07875706      -0.01445936       0.01535279
O       15.41426704       6.08983340       8.97612782        8       0.08343028       0.00651824      -0.01526917
O       12.76336089      11.00070875       8.97612782        8      -0.00013839      -0.00192890       0.00058256
O       18.64110287      11.00261113       8.97744139        8      -0.00381466      -0.00085830       0.00305843
O        5.23580914       1.53555382       3.44587005        9      -0.00784719       0.00183858      -0.01838489
O       11.11355112       1.53745620       3.44718361        9       0.00777495      -0.00354262       0.00290405
O        8.46264496       6.44833154       3.44718361        9       0.00341457      -0.00017718       0.00387136
O       14.34038694       6.45023392       3.44849718        9       0.00356287      -0.00901888      -0.00441161
O        8.46264496       3.27741008       8.03948774        9       0.00705090       0.00250784       0.00633084
O       14.34038694       3.27931245       8.04080130        9       0.00784788      -0.02870053      -0.01910500
O       11.68948079       8.19018780       8.04080130        9      -0.01029339      -0.03267845       0.01100642
O       17.56722277       8.19209018       8.04211487        9       0.00866466       0.00307856      -0.00080947
