40
Lattice="8.769109825073656 6.872977742489184e-10 2.6645352591003757e-15 -2.9230366090058744 8.26759602947645 -1.190439746778793e-09 -2.923036608033892 -4.133798014050924 7.1599481905475875" Properties=species:S:1:pos:R:3:spacegroup_kinds:I:1:forces:R:3 spacegroup="P 1" unit_cell=conventional occupancy="_JSON {\"0\": {\"In\": 1}, \"1\": {\"In\": 1}, \"2\": {\"In\": 1}, \"3\": {\"In\": 1}, \"4\": {\"In\": 1}, \"5\": {\"In\": 1}, \"6\": {\"In\": 1}, \"7\": {\"In\": 1}, \"8\": {\"In\": 1}, \"9\": {\"In\": 1}, \"10\": {\"In\": 1}, \"11\": {\"In\": 1}, \"12\": {\"In\": 1}, \"13\": {\"In\": 1}, \"14\": {\"In\": 1}, \"15\": {\"In\": 1}, \"16\": {\"O\": 1}, \"17\": {\"O\": 1}, \"18\": {\"O\": 1}, \"19\": {\"O\": 1}, \"20\": {\"O\": 1}, \"21\": {\"O\": 1}, \"22\": {\"O\": 1}, \"23\": {\"O\": 1}, \"24\": {\"O\": 1}, \"25\": {\"O\": 1}, \"26\": {\"O\": 1}, \"27\": {\"O\": 1}, \"28\": {\"O\": 1}, \"29\": {\"O\": 1}, \"30\": {\"O\": 1}, \"31\": {\"O\": 1}, \"32\": {\"O\": 1}, \"33\": {\"O\": 1}, \"34\": {\"O\": 1}, \"35\": {\"O\": 1}, \"36\": {\"O\": 1}, \"37\": {\"O\": 1}, \"38\": {\"O\": 1}, \"39\": {\"O\": 1}}" n_minim_iter=1 energy=-45151.35170277246 stress="-0.041881410531566715 -5.748508025065922e-12 -3.096256890967591e-12 -5.748508025065922e-12 -0.04188141053370105 -8.740263689288866e-13 -3.096256890967591e-12 -8.740263689288866e-13 -0.04188141054235155" free_energy=-45151.35170277246 pbc="T T T"
In      -4.19372859       2.96541393       5.60367470        0      -0.05914033       0.04181853      -0.07243182
In       7.11676520       1.16838409       1.55627348        1       0.05914033      -0.04181853       0.07243182
In       1.27069198      -0.89851491       5.13624758        2       0.05914033      -0.04181853       0.07243182
In      -1.46151831      -2.06689901       3.57997409        3      -0.00000000      -0.00000000       0.00000000
In      -1.27069198       3.99886343       3.34626053        4      -0.05914033       0.04181853       0.07243182
In       4.57538123      -2.83047933       5.36996114        5      -0.05914033      -0.08363706      -0.00000000
In      -1.27069198       1.30331868       5.36996114        6      -0.05914033      -0.08363706      -0.00000000
In      -1.65234463       6.96427735       1.78998704        7       0.05914033       0.08363706       0.00000000
In       4.19372859       0.13493459       3.81368765        8       0.05914033      -0.04181853      -0.07243182
In      -1.46151831       4.13379802      -0.00000000        9       0.00000000      -0.00000000      -0.00000000
In       4.19372859       6.33563161       0.23371356       10       0.05914033      -0.04181853      -0.07243182
In      -1.27069198      -2.20183359       6.92623463       11      -0.05914033       0.04181853       0.07243182
In       4.19372859       2.83047934       1.78998704       12       0.05914033       0.08363706      -0.00000000
In       1.65234463       5.03231293       2.02370061       13      -0.05914033       0.04181853      -0.07243182
In       4.38455491       0.00000000      -0.00000000       14       0.00000000       0.00000000       0.00000000
In       1.46151830       2.06689901       3.57997409       15       0.00000000      -0.00000000      -0.00000000
O        0.84600623       4.13223767       3.90149312       16       0.00416297       0.00933371       0.12562839
O       -2.07703037       3.37957233       5.21055293       17       0.00416297       0.10413052      -0.07089742
O       -0.43055983       2.21534184       0.06711109       18       0.10836276       0.03045014       0.05672073
O       -0.84600624      -0.75578603       1.95209786       19      -0.00416297       0.11346423       0.05473096
O        3.87863480       4.92833066       1.88498676       20       0.09678754      -0.08071650      -0.00198977
O        1.96743841       2.89861791       1.63057883       21      -0.09678754      -0.03863506      -0.07089742
O        1.96743841       6.16351076       0.25440793       22      -0.09678754      -0.04208144       0.06890765
O       -2.23216426       5.86818544       3.64708519       23       0.00741225      -0.11231544       0.05672073
O        3.35359643       1.91845618       7.09283709       24      -0.10836276      -0.03045014      -0.05672073
O        5.15520087      -1.73438742       3.51286300       25      -0.00741225       0.11231544      -0.05672073
O        6.27663304       3.23268985       1.69498733       26      -0.10836276       0.06434667       0.00198977
O        3.61390895       2.29127472       3.83438202       27       0.00741225       0.10527931       0.06890765
O        0.69087234       4.24193389       6.83842916       28       0.00741225       0.00703612      -0.12562839
O        2.23216426      -0.10813588       0.32151902       29      -0.00741225      -0.00703612       0.12562839
O       -3.35359644       0.90110817       5.46496086       30       0.10836276      -0.06434667      -0.00198977
O        5.00006698       0.75422569       1.94939526       31      -0.00416297      -0.10413052       0.07089742
O        0.95559820       1.23518011       5.52936935       32       0.09678754       0.03863506       0.07089742
O        3.35359643      -1.01734800       5.53207195       33      -0.10836276      -0.03389653       0.05473096
O        2.07703037       0.00156035       3.25845507       34      -0.00416297      -0.00933371      -0.12562839
O        0.95559820      -2.02971274       6.90554026       35       0.09678754       0.04208144      -0.06890765
O       -0.69087235       1.84252330       3.32556616       36      -0.00741225      -0.10527932      -0.06890765
O       -0.95559820      -0.79453264       5.27496142       37      -0.09678754       0.08071650       0.00198977
O       -0.43055983       5.15114602       1.62787623       38       0.10836276       0.03389653      -0.05473096
O        3.76904284       4.88958405       5.20785032       39       0.00416297      -0.11346423      -0.05473096
40
Lattice="8.769109825073656 6.872977742489185e-10 2.6645352591003757e-15 -2.923036609005875 8.26759602947645 -1.1904397467787933e-09 -2.9230366080338923 -4.133798014050924 7.159948190547588" Properties=species:S:1:pos:R:3:spacegroup_kinds:I:1:forces:R:3 spacegroup="P 1" unit_cell=conventional occupancy="_JSON {\"0\": {\"In\": 1}, \"1\": {\"In\": 1}, \"2\": {\"In\": 1}, \"3\": {\"In\": 1}, \"4\": {\"In\": 1}, \"5\": {\"In\": 1}, \"6\": {\"In\": 1}, \"7\": {\"In\": 1}, \"8\": {\"In\": 1}, \"9\": {\"In\": 1}, \"10\": {\"In\": 1}, \"11\": {\"In\": 1}, \"12\": {\"In\": 1}, \"13\": {\"In\": 1}, \"14\": {\"In\": 1}, \"15\": {\"In\": 1}, \"16\": {\"O\": 1}, \"17\": {\"O\": 1}, \"18\": {\"O\": 1}, \"19\": {\"O\": 1}, \"20\": {\"O\": 1}, \"21\": {\"O\": 1}, \"22\": {\"O\": 1}, \"23\": {\"O\": 1}, \"24\": {\"O\": 1}, \"25\": {\"O\": 1}, \"26\": {\"O\": 1}, \"27\": {\"O\": 1}, \"28\": {\"O\": 1}, \"29\": {\"O\": 1}, \"30\": {\"O\": 1}, \"31\": {\"O\": 1}, \"32\": {\"O\": 1}, \"33\": {\"O\": 1}, \"34\": {\"O\": 1}, \"35\": {\"O\": 1}, \"36\": {\"O\": 1}, \"37\": {\"O\": 1}, \"38\": {\"O\": 1}, \"39\": {\"O\": 1}}" n_minim_iter=2 energy=-45151.36279866696 stress="-0.040107917932189555 -6.8231594166922174e-12 -6.843444972060317e-12 -6.8231594166922174e-12 -0.040107917934259024 -4.068598661083562e-12 -6.843444972060317e-12 -4.068598661083562e-12 -0.04010791792941233" free_energy=-45151.36279866696 pbc="T T T"
In      -4.19632876       2.96725252       5.60049015        0       0.01942635      -0.01373650       0.02379232
In       7.11936537       1.16654549       1.55945803        1      -0.01942635       0.01373650      -0.02379232
In       1.27329215      -0.90035351       5.13943213        2      -0.01942635       0.01373650      -0.02379232
In      -1.46151831      -2.06689901       3.57997409        3       0.00000000       0.00000000       0.00000000
In      -1.27329215       4.00070203       3.34944508        4       0.01942635      -0.01373650      -0.02379232
In       4.57278106      -2.83415653       5.36996114        5       0.01942635       0.02747300       0.00000000
In      -1.27329215       1.29964148       5.36996114        6       0.01942635       0.02747300       0.00000000
In      -1.64974446       6.96795455       1.78998704        7      -0.01942635      -0.02747300      -0.00000000
In       4.19632876       0.13309599       3.81050311        8      -0.01942635       0.01373650       0.02379232
In      -1.46151831       4.13379802      -0.00000000        9       0.00000000      -0.00000000      -0.00000000
In       4.19632876       6.33379301       0.23052901       10      -0.01942635       0.01373650       0.02379232
In      -1.27329215      -2.19999499       6.92941917       11       0.01942635      -0.01373650      -0.02379232
In       4.19632876       2.83415654       1.78998704       12      -0.01942635      -0.02747300       0.00000000
In       1.64974445       5.03415153       2.02051606       13       0.01942635      -0.01373650       0.02379232
In       4.38455491       0.00000000      -0.00000000       14       0.00000000      -0.00000000      -0.00000000
In       1.46151830       2.06689901       3.57997409       15      -0.00000000       0.00000000      -0.00000000
O        0.84618926       4.13264804       3.90701651       16      -0.03066980      -0.02872044       0.01530161
O       -2.07684734       3.38415055       5.20743584       17      -0.03066980       0.02761180       0.01722182
O       -0.42579554       2.21668062       0.06960489       18      -0.01126850       0.01389301       0.04098347
O       -0.84618927      -0.75079745       1.95450417       19       0.03066980      -0.00110863       0.03252343
O        3.88289018       4.92478187       1.88489928       20       0.03625592       0.02477045      -0.00846004
O        1.96318303       2.89691928       1.62746175       21      -0.03625592       0.01971183       0.01722182
O        1.96318303       6.16166060       0.25743753       22      -0.03625592       0.00505862      -0.02568186
O       -2.23183838       5.86324737       3.64957898       23      -0.01685462       0.00599304       0.04098347
O        3.34883214       1.91711740       7.09034330       24       0.01126850      -0.01389301      -0.04098347
O        5.15487498      -1.72944935       3.51036920       25       0.01685462      -0.00599304      -0.04098347
O        6.27186875       3.23551892       1.69507481       26       0.01126850       0.04243923       0.00846004
O        3.61423484       2.29590344       3.83741162       27      -0.01685462       0.03249621      -0.02568186
O        0.69119823       4.24224325       6.83290577       28      -0.01685462      -0.03848925      -0.01530161
O        2.23183837      -0.10844523       0.32704242       29       0.01685462       0.03848925       0.01530161
O       -3.34883215       0.89827910       5.46487338       30      -0.01126850      -0.04243923      -0.00846004
O        4.99988395       0.74964747       1.95251234       31       0.03066980      -0.02761180      -0.01722182
O        0.95985357       1.23687874       5.53248644       32       0.03625592      -0.01971183      -0.01722182
O        3.34883214      -1.01883830       5.53447826       33       0.01126850      -0.02854622       0.03252343
O        2.07684734       0.00114998       3.25293167       34       0.03066980       0.02872044      -0.01530161
O        0.95985357      -2.02786259       6.90251066       35       0.03625592      -0.00505862       0.02568186
O       -0.69119824       1.83789458       3.32253656       36       0.01685462      -0.03249621       0.02568186
O       -0.95985357      -0.79098385       5.27504891       37      -0.03625592      -0.02477045       0.00846004
O       -0.42579554       5.15263632       1.62546992       38      -0.01126850       0.02854622      -0.03252343
O        3.76922587       4.88459547       5.20544402       39      -0.03066980       0.00110863      -0.03252343
40
Lattice="8.769109825073658 6.872977742489186e-10 2.6645352591003785e-15 -2.9230366090058753 8.267596029476453 -1.1904397467787935e-09 -2.9230366080338928 -4.1337980140509245 7.15994819054759" Properties=species:S:1:pos:R:3:spacegroup_kinds:I:1:forces:R:3 spacegroup="P 1" unit_cell=conventional occupancy="_JSON {\"0\": {\"In\": 1}, \"1\": {\"In\": 1}, \"2\": {\"In\": 1}, \"3\": {\"In\": 1}, \"4\": {\"In\": 1}, \"5\": {\"In\": 1}, \"6\": {\"In\": 1}, \"7\": {\"In\": 1}, \"8\": {\"In\": 1}, \"9\": {\"In\": 1}, \"10\": {\"In\": 1}, \"11\": {\"In\": 1}, \"12\": {\"In\": 1}, \"13\": {\"In\": 1}, \"14\": {\"In\": 1}, \"15\": {\"In\": 1}, \"16\": {\"O\": 1}, \"17\": {\"O\": 1}, \"18\": {\"O\": 1}, \"19\": {\"O\": 1}, \"20\": {\"O\": 1}, \"21\": {\"O\": 1}, \"22\": {\"O\": 1}, \"23\": {\"O\": 1}, \"24\": {\"O\": 1}, \"25\": {\"O\": 1}, \"26\": {\"O\": 1}, \"27\": {\"O\": 1}, \"28\": {\"O\": 1}, \"29\": {\"O\": 1}, \"30\": {\"O\": 1}, \"31\": {\"O\": 1}, \"32\": {\"O\": 1}, \"33\": {\"O\": 1}, \"34\": {\"O\": 1}, \"35\": {\"O\": 1}, \"36\": {\"O\": 1}, \"37\": {\"O\": 1}, \"38\": {\"O\": 1}, \"39\": {\"O\": 1}}" n_minim_iter=3 energy=-45151.36582992661 stress="-0.039825205504494476 -4.3369196254176715e-12 -4.426943842012816e-12 -4.3369196254176715e-12 -0.03982520550512643 -4.384817332124091e-12 -4.426943842012816e-12 -4.384817332124091e-12 -0.039825205499963164" free_energy=-45151.36582992661 pbc="T T T"
In      -4.19537609       2.96657888       5.60165693        0       0.00802700      -0.00567595       0.00983103
In       7.11841270       1.16721914       1.55829125        1      -0.00802700       0.00567595      -0.00983103
In       1.27233948      -0.89967987       5.13826535        2      -0.00802700       0.00567595      -0.00983103
In      -1.46151831      -2.06689901       3.57997409        3      -0.00000000       0.00000000      -0.00000000
In      -1.27233948       4.00002839       3.34827830        4       0.00802700      -0.00567595      -0.00983103
In       4.57373374      -2.83280925       5.36996114        5       0.00802700       0.01135190       0.00000000
In      -1.27233948       1.30098876       5.36996114        6       0.00802700       0.01135190      -0.00000000
In      -1.65069713       6.96660727       1.78998704        7      -0.00802700      -0.01135190       0.00000000
In       4.19537609       0.13376963       3.81166989        8      -0.00802700       0.00567595       0.00983103
In      -1.46151831       4.13379802      -0.00000000        9       0.00000000      -0.00000000      -0.00000000
In       4.19537609       6.33446665       0.23169579       10      -0.00802700       0.00567595       0.00983103
In      -1.27233948      -2.20066863       6.92825239       11       0.00802700      -0.00567595      -0.00983103
In       4.19537609       2.83280925       1.78998704       12      -0.00802700      -0.01135190       0.00000000
In       1.65069713       5.03347789       2.02168284       13       0.00802700      -0.00567595       0.00983103
In       4.38455491       0.00000000      -0.00000000       14      -0.00000000      -0.00000000      -0.00000000
In       1.46151830       2.06689901       3.57997409       15       0.00000000      -0.00000000       0.00000000
O        0.84404848       4.13068212       3.90899610       16      -0.02184539       0.00570458       0.01285543
O       -2.07898812       3.38684788       5.20814858       17      -0.02184539       0.00828084      -0.01136803
O       -0.42581955       2.21788117       0.07291013       18       0.00590379      -0.01134079       0.02261763
O       -0.84404849      -0.75006603       1.95719649       19       0.02184539       0.01398542       0.00148741
O        3.88614684       4.92595874       1.88428636       20       0.01508905      -0.00092713      -0.02113023
O        1.95992637       2.89803852       1.62817449       21      -0.01508905       0.01783575      -0.01136803
O        1.95992637       6.16171824       0.25611187       22      -0.01508905      -0.01876288      -0.00976220
O       -2.23297827       5.86286982       3.65288422       23       0.01266012      -0.00178588       0.02261763
O        3.34885615       1.91591685       7.08703806       24      -0.00590379       0.01134079      -0.02261763
O        5.15601487      -1.72907180       3.50706396       25      -0.01266013       0.00178588      -0.02261763
O        6.27189276       3.23898162       1.69568773       26      -0.00590379       0.01391705       0.02113023
O        3.61309495       2.29895464       3.83608597       27       0.01266013       0.02048038      -0.00976220
O        0.69005834       4.23956959       6.83092618       28       0.01266013      -0.01869450      -0.01285543
O        2.23297826      -0.10577157       0.32902200       29      -0.01266013       0.01869450       0.01285543
O       -3.34885616       0.89481640       5.46426046       30       0.00590379      -0.01391705      -0.02113023
O        5.00202473       0.74695014       1.95179960       31       0.02184539      -0.00828084       0.01136803
O        0.96311023       1.23575950       5.53177370       32       0.01508905      -0.01783575       0.01136803
O        3.34885615      -1.02110045       5.53717059       33      -0.00590379      -0.02525784       0.00148741
O        2.07898812       0.00311590       3.25095209       34       0.02184539      -0.00570458      -0.01285543
O        0.96311023      -2.02792022       6.90383631       35       0.01508905       0.01876287       0.00976220
O       -0.69005835       1.83484338       3.32386222       36      -0.01266013      -0.02048038       0.00976220
O       -0.96311023      -0.79216072       5.27566182       37      -0.01508905       0.00092713       0.02113023
O       -0.42581955       5.15489847       1.62277760       38       0.00590379       0.02525784      -0.00148741
O        3.76708509       4.88386405       5.20275169       39      -0.02184539      -0.01398542      -0.00148741
40
Lattice="8.769109825073665 6.872977742489191e-10 2.6645352591003792e-15 -2.9230366090058775 8.267596029476458 -1.1904397467787943e-09 -2.923036608033895 -4.133798014050927 7.1599481905475955" Properties=species:S:1:pos:R:3:spacegroup_kinds:I:1:forces:R:3 spacegroup="P 1" unit_cell=conventional occupancy="_JSON {\"0\": {\"In\": 1}, \"1\": {\"In\": 1}, \"2\": {\"In\": 1}, \"3\": {\"In\": 1}, \"4\": {\"In\": 1}, \"5\": {\"In\": 1}, \"6\": {\"In\": 1}, \"7\": {\"In\": 1}, \"8\": {\"In\": 1}, \"9\": {\"In\": 1}, \"10\": {\"In\": 1}, \"11\": {\"In\": 1}, \"12\": {\"In\": 1}, \"13\": {\"In\": 1}, \"14\": {\"In\": 1}, \"15\": {\"In\": 1}, \"16\": {\"O\": 1}, \"17\": {\"O\": 1}, \"18\": {\"O\": 1}, \"19\": {\"O\": 1}, \"20\": {\"O\": 1}, \"21\": {\"O\": 1}, \"22\": {\"O\": 1}, \"23\": {\"O\": 1}, \"24\": {\"O\": 1}, \"25\": {\"O\": 1}, \"26\": {\"O\": 1}, \"27\": {\"O\": 1}, \"28\": {\"O\": 1}, \"29\": {\"O\": 1}, \"30\": {\"O\": 1}, \"31\": {\"O\": 1}, \"32\": {\"O\": 1}, \"33\": {\"O\": 1}, \"34\": {\"O\": 1}, \"35\": {\"O\": 1}, \"36\": {\"O\": 1}, \"37\": {\"O\": 1}, \"38\": {\"O\": 1}, \"39\": {\"O\": 1}}" n_minim_iter=4 energy=-45151.36682723561 stress="-0.03948633156145077 1.0533433081558508e-11 1.6995807159414845e-12 1.0533433081558508e-11 -0.03948633155390714 -3.73305335553645e-12 1.6995807159414845e-12 -3.73305335553645e-12 -0.03948633156101722" free_energy=-45151.36682723561 pbc="T T T"
In      -4.19473190       2.96612337       5.60244590        0       0.00403523      -0.00285334       0.00494213
In       7.11776850       1.16767465       1.55750228        1      -0.00403523       0.00285334      -0.00494213
In       1.27169529      -0.89922436       5.13747638        2      -0.00403523       0.00285334      -0.00494213
In      -1.46151831      -2.06689901       3.57997409        3      -0.00000000       0.00000000      -0.00000000
In      -1.27169529       3.99957288       3.34748933        4       0.00403523      -0.00285334      -0.00494213
In       4.57437793      -2.83189823       5.36996114        5       0.00403523       0.00570668      -0.00000000
In      -1.27169529       1.30189979       5.36996114        6       0.00403523       0.00570668       0.00000000
In      -1.65134132       6.96569625       1.78998704        7      -0.00403523      -0.00570668       0.00000000
In       4.19473190       0.13422514       3.81245886        8      -0.00403523       0.00285334       0.00494213
In      -1.46151831       4.13379802      -0.00000000        9      -0.00000000      -0.00000000       0.00000000
In       4.19473190       6.33492217       0.23248476       10      -0.00403523       0.00285334       0.00494213
In      -1.27169529      -2.20112415       6.92746342       11       0.00403523      -0.00285334      -0.00494213
In       4.19473190       2.83189823       1.78998704       12      -0.00403523      -0.00570668      -0.00000000
In       1.65134132       5.03302238       2.02247181       13       0.00403523      -0.00285334       0.00494213
In       4.38455491       0.00000000      -0.00000000       14       0.00000000      -0.00000000      -0.00000000
In       1.46151830       2.06689901       3.57997409       15       0.00000000      -0.00000000      -0.00000000
O        0.84211194       4.12953655       3.91101157       16      -0.01569805       0.02280141       0.00270653
O       -2.08092467       3.38916611       5.20813294       17      -0.01569805      -0.00905678      -0.02109987
O       -0.42535947       2.21850473       0.07582975       18       0.00772588      -0.02562000       0.00758847
O       -0.84211194      -0.74889337       1.95919632       19       0.01569805       0.01374463      -0.01839334
O        3.88897801       4.92647172       1.88336657       20      -0.00330613      -0.00936343      -0.02598181
O        1.95709521       2.89909157       1.62815885       21       0.00330613       0.01781919      -0.02109987
O        1.95709521       6.16117817       0.25520772       22       0.00330613      -0.02718262      -0.00488194
O       -2.23341281       5.86222820       3.65580384       23       0.02673006       0.00125597       0.00758847
O        3.34839607       1.91529329       7.08411844       24      -0.00772588       0.02562000      -0.00758847
O        5.15644941      -1.72843018       3.50414434       25      -0.02673006      -0.00125597      -0.00758847
O        6.27143268       3.24182186       1.69660751       26      -0.00772588      -0.00623819       0.02598181
O        3.61266041       2.30180391       3.83518182       27       0.02673006       0.00594382      -0.00488194
O        0.68962380       4.23736194       6.82891071       28       0.02673006      -0.00719980      -0.00270653
O        2.23341280      -0.10356392       0.33103747       29      -0.02673006       0.00719980       0.00270653
O       -3.34839608       0.89197616       5.46334067       30       0.00772588       0.00623819      -0.02598181
O        5.00396128       0.74463191       1.95181524       31       0.01569805       0.00905678       0.02109987
O        0.96594140       1.23470645       5.53178934       32      -0.00330613      -0.01781919       0.02109987
O        3.34839607      -1.02331713       5.53917042       33      -0.00772588      -0.01938181      -0.01839334
O        2.08092467       0.00426147       3.24893662       34       0.01569805      -0.02280141      -0.00270653
O        0.96594140      -2.02738015       6.90474046       35      -0.00330613       0.02718262       0.00488194
O       -0.68962381       1.83199411       3.32476637       36      -0.02673006      -0.00594382       0.00488194
O       -0.96594140      -0.79267370       5.27658161       37       0.00330613       0.00936343       0.02598181
O       -0.42535947       5.15711515       1.62077777       38       0.00772588       0.01938181       0.01839334
O        3.76514854       4.88269139       5.20075186       39      -0.01569805      -0.01374463       0.01839334
40
Lattice="8.769109825073667 6.872977742489192e-10 2.6645352591003934e-15 -2.923036609005878 8.267596029476458 -1.190439746778795e-09 -2.9230366080338954 -4.133798014050927 7.159948190547598" Properties=species:S:1:pos:R:3:spacegroup_kinds:I:1:forces:R:3 spacegroup="P 1" unit_cell=conventional occupancy="_JSON {\"0\": {\"In\": 1}, \"1\": {\"In\": 1}, \"2\": {\"In\": 1}, \"3\": {\"In\": 1}, \"4\": {\"In\": 1}, \"5\": {\"In\": 1}, \"6\": {\"In\": 1}, \"7\": {\"In\": 1}, \"8\": {\"In\": 1}, \"9\": {\"In\": 1}, \"10\": {\"In\": 1}, \"11\": {\"In\": 1}, \"12\": {\"In\": 1}, \"13\": {\"In\": 1}, \"14\": {\"In\": 1}, \"15\": {\"In\": 1}, \"16\": {\"O\": 1}, \"17\": {\"O\": 1}, \"18\": {\"O\": 1}, \"19\": {\"O\": 1}, \"20\": {\"O\": 1}, \"21\": {\"O\": 1}, \"22\": {\"O\": 1}, \"23\": {\"O\": 1}, \"24\": {\"O\": 1}, \"25\": {\"O\": 1}, \"26\": {\"O\": 1}, \"27\": {\"O\": 1}, \"28\": {\"O\": 1}, \"29\": {\"O\": 1}, \"30\": {\"O\": 1}, \"31\": {\"O\": 1}, \"32\": {\"O\": 1}, \"33\": {\"O\": 1}, \"34\": {\"O\": 1}, \"35\": {\"O\": 1}, \"36\": {\"O\": 1}, \"37\": {\"O\": 1}, \"38\": {\"O\": 1}, \"39\": {\"O\": 1}}" n_minim_iter=5 energy=-45151.367401426825 stress="-0.03918894948228753 -1.7952666774192527e-12 -1.9499137065635552e-12 -1.7952666774192527e-12 -0.039188949466979296 5.436474941459312e-13 -1.9499137065635552e-12 5.436474941459312e-13 -0.03918894947421405" free_energy=-45151.367401426825 pbc="T T T"
In      -4.19394729       2.96556857       5.60340685        0      -0.00167161       0.00118200      -0.00204729
In       7.11698389       1.16822945       1.55654133        1       0.00167161      -0.00118200       0.00204729
In       1.27091068      -0.89866956       5.13651543        2       0.00167161      -0.00118200       0.00204729
In      -1.46151831      -2.06689901       3.57997409        3      -0.00000000       0.00000000      -0.00000000
In      -1.27091068       3.99901807       3.34652838        4      -0.00167161       0.00118200       0.00204729
In       4.57516254      -2.83078862       5.36996114        5      -0.00167161      -0.00236401      -0.00000000
In      -1.27091068       1.30300940       5.36996114        6      -0.00167161      -0.00236401      -0.00000000
In      -1.65212593       6.96458664       1.78998704        7       0.00167161       0.00236401       0.00000000
In       4.19394728       0.13477995       3.81341981        8       0.00167161      -0.00118201      -0.00204729
In      -1.46151831       4.13379802      -0.00000000        9       0.00000000      -0.00000000       0.00000000
In       4.19394728       6.33547697       0.23344571       10       0.00167161      -0.00118200      -0.00204729
In      -1.27091068      -2.20167895       6.92650247       11      -0.00167161       0.00118200       0.00204729
In       4.19394728       2.83078862       1.78998704       12       0.00167161       0.00236401       0.00000000
In       1.65212593       5.03246757       2.02343276       13      -0.00167161       0.00118201      -0.00204729
In       4.38455491       0.00000000      -0.00000000       14      -0.00000000       0.00000000       0.00000000
In       1.46151830       2.06689901       3.57997409       15       0.00000000      -0.00000000      -0.00000000
O        0.83966309       4.12952780       3.91288127       16      -0.00541414       0.01969579      -0.00617081
O       -2.08337351       3.39078970       5.20720567       17      -0.00541414      -0.01519197      -0.01397165
O       -0.42465327       2.21789736       0.07876659       18       0.00244153      -0.02074676      -0.00435046
O       -0.83966310      -0.74727854       1.96013875       19       0.00541414       0.00450382      -0.02014246
O        3.89132502       4.92655247       1.88137215       20      -0.01251842      -0.00701556      -0.01579199
O        1.95474820       2.90085916       1.62723157       21       0.01251842       0.01016849      -0.01397165
O        1.95474820       6.15949132       0.25414058       22       0.01251841      -0.01718405      -0.00182034
O       -2.23260477       5.86176484       3.65874069       23       0.02037408       0.00461369      -0.00435046
O        3.34768987       1.91590066       7.08118159       24      -0.00244153       0.02074676       0.00435046
O        5.15564138      -1.72796682       3.50120750       25      -0.02037408      -0.00461369       0.00435046
O        6.27072648       3.24406156       1.69860194       26      -0.00244153      -0.01414099       0.01579199
O        3.61346845       2.30457897       3.83411467       27       0.02037408      -0.00607446      -0.00182034
O        0.69043184       4.23505024       6.82704101       28       0.02037408       0.00146077       0.00617081
O        2.23260477      -0.10125222       0.33290718       29      -0.02037408      -0.00146077      -0.00617081
O       -3.34768987       0.88973646       5.46134625       30       0.00244153       0.01414099      -0.01579199
O        5.00641012       0.74300832       1.95274252       31       0.00541414       0.01519197       0.01397165
O        0.96828841       1.23293886       5.53271661       32      -0.01251841      -0.01016849       0.01397165
O        3.34768987      -1.02616420       5.54011285       33      -0.00244153      -0.00660577      -0.02014246
O        2.08337351       0.00427022       3.24706691       34       0.00541414      -0.01969579       0.00617081
O        0.96828841      -2.02569331       6.90580761       35      -0.01251842       0.01718405       0.00182034
O       -0.69043184       1.82921904       3.32583351       36      -0.02037408       0.00607446       0.00182034
O       -0.96828841      -0.79275445       5.27857603       37       0.01251841       0.00701556       0.01579199
O       -0.42465327       5.15996222       1.61983534       38       0.00244153       0.00660577       0.02014246
O        3.76269970       4.88107656       5.19980943       39      -0.00541414      -0.00450382       0.02014246
40