40
Lattice="9.544642590132241 7.480838171147752e-10 1.9095836023552692e-14 -3.181547530749381 8.998775332396558 -1.2957377393263414e-09 -3.181547529691446 -4.499387665450185 7.79316804166799" Properties=species:S:1:pos:R:3:spacegroup_kinds:I:1:forces:R:3 spacegroup="P 1" unit_cell=conventional occupancy="_JSON {\"0\": {\"In\": 1}, \"1\": {\"In\": 1}, \"2\": {\"In\": 1}, \"3\": {\"In\": 1}, \"4\": {\"In\": 1}, \"5\": {\"In\": 1}, \"6\": {\"In\": 1}, \"7\": {\"In\": 1}, \"8\": {\"In\": 1}, \"9\": {\"In\": 1}, \"10\": {\"In\": 1}, \"11\": {\"In\": 1}, \"12\": {\"In\": 1}, \"13\": {\"In\": 1}, \"14\": {\"In\": 1}, \"15\": {\"In\": 1}, \"16\": {\"O\": 1}, \"17\": {\"O\": 1}, \"18\": {\"O\": 1}, \"19\": {\"O\": 1}, \"20\": {\"O\": 1}, \"21\": {\"O\": 1}, \"22\": {\"O\": 1}, \"23\": {\"O\": 1}, \"24\": {\"O\": 1}, \"25\": {\"O\": 1}, \"26\": {\"O\": 1}, \"27\": {\"O\": 1}, \"28\": {\"O\": 1}, \"29\": {\"O\": 1}, \"30\": {\"O\": 1}, \"31\": {\"O\": 1}, \"32\": {\"O\": 1}, \"33\": {\"O\": 1}, \"34\": {\"O\": 1}, \"35\": {\"O\": 1}, \"36\": {\"O\": 1}, \"37\": {\"O\": 1}, \"38\": {\"O\": 1}, \"39\": {\"O\": 1}}" n_minim_iter=1 energy=-45146.350002708205 stress="0.06778132007657801 -5.829210478979542e-13 -1.680833669931487e-12 -5.829210478979542e-13 0.06778132007635379 1.959397295583742e-12 -1.680833669931487e-12 1.959397295583742e-12 0.06778132007995613" free_energy=-45146.350002708205 pbc="T T T"
In      -4.58715871       3.24361103       6.07165296        0       0.03691249      -0.02610107       0.04520838
In       7.76870624       1.25577664       1.72151508        1      -0.03691249       0.02610107      -0.04520838
In       1.40561118      -0.99391719       5.61809910        2      -0.03691249       0.02610107      -0.04520838
In      -1.59077377      -2.24969383       3.89658402        3       0.00000000       0.00000000      -0.00000000
In      -1.40561118       4.36845795       3.66980709        4       0.03691249      -0.02610107      -0.04520838
In       4.95748388      -3.11268130       5.84487603        5       0.03691249       0.05220214       0.00000000
In      -1.40561118       1.38670636       5.84487603        6       0.03691249       0.05220214       0.00000000
In      -1.77593635       7.61206897       1.94829201        7      -0.03691249      -0.05220214      -0.00000000
In       4.58715871       0.13092972       4.12336095        8      -0.03691249       0.02610107       0.04520838
In      -1.59077377       4.49938767      -0.00000000        9       0.00000000       0.00000000      -0.00000000
In       4.58715871       6.88001122       0.22677693       10      -0.03691249       0.02610107       0.04520838
In      -1.40561118      -2.38062355       7.56639111       11       0.03691249      -0.02610107      -0.04520838
In       4.58715871       3.11268131       1.94829201       12      -0.03691249      -0.05220214       0.00000000
In       1.77593635       5.49330486       2.17506894       13       0.03691249      -0.02610107       0.04520838
In       4.77232129       0.00000000      -0.00000000       14      -0.00000000      -0.00000000       0.00000000
In       1.59077376       2.24969384       3.89658402       15       0.00000000       0.00000000       0.00000000
O        1.27212915       4.57659526       4.19367646       16       0.05961616       0.07416221      -0.00370428
O       -1.90941838       3.59322656       5.62946607       17       0.05961616      -0.04028911      -0.06237422
O       -0.35750183       2.49585584      -0.26300013       18       0.05180792      -0.03476785      -0.07193732
O       -1.27212915      -0.82895352       2.02997449       19      -0.05961616       0.03387311      -0.06607850
O        4.02419927       5.17649800       2.29297462       20      -0.05785699      -0.07540614       0.00585882
O        2.33889578       2.85216856       1.73288205       21       0.05785699      -0.04277695      -0.06237422
O        2.33889578       6.82371710       0.56009256       22       0.05785699      -0.03262918       0.06823304
O       -2.47228272       6.25418551       3.63358389       23       0.05004875      -0.03725570      -0.07193732
O        3.53904935       2.00353183       8.05616816       24      -0.05180792       0.03476785       0.07193732
O        5.65383025      -1.75479784       4.15958414       25      -0.05004875       0.03725570       0.07193732
O        6.72059688       3.26985696       1.60360940       26      -0.05180792      -0.07968347      -0.00585882
O        3.89081234       2.26937704       4.45667658       27       0.05004875      -0.04367170       0.06823304
O        0.70926481       4.97460045       7.49607560       28       0.05004875       0.08092739       0.00370428
O        2.47228272      -0.47521278       0.29709244       29      -0.05004875      -0.08092739      -0.00370428
O       -3.53904936       1.22953071       6.18955864       30       0.05180792       0.07968347       0.00585882
O        5.09096591       0.90616111       2.16370196       31      -0.05961616       0.04028911       0.06237422
O        0.84265175       1.64721911       6.06028598       32      -0.05785699       0.04277695       0.06237422
O        3.53904935      -0.77400112       5.92655851       33      -0.05180792       0.04491562      -0.06607850
O        1.90941838      -0.07720759       3.59949158       34      -0.05961616      -0.07416221       0.00370428
O        0.84265175      -2.32432943       7.23307548       35      -0.05785699       0.03262918      -0.06823304
O       -0.70926481       2.23001063       3.33649145       36      -0.05004875       0.04367170      -0.06823304
O       -0.84265175      -0.67711033       5.50019342       37       0.05785699       0.07540614      -0.00585882
O       -0.35750183       5.27338880       1.86660952       38       0.05180792      -0.04491562       0.06607850
O        4.45367668       5.32834119       5.76319354       39       0.05961616      -0.03387311       0.06607850
40
Lattice="9.544642590132236 7.480838171147749e-10 1.9095836023552683e-14 -3.1815475307493797 8.998775332396553 -1.2957377393263408e-09 -3.1815475296914446 -4.4993876654501825 7.793168041667986" Properties=species:S:1:pos:R:3:spacegroup_kinds:I:1:forces:R:3 spacegroup="P 1" unit_cell=conventional occupancy="_JSON {\"0\": {\"In\": 1}, \"1\": {\"In\": 1}, \"2\": {\"In\": 1}, \"3\": {\"In\": 1}, \"4\": {\"In\": 1}, \"5\": {\"In\": 1}, \"6\": {\"In\": 1}, \"7\": {\"In\": 1}, \"8\": {\"In\": 1}, \"9\": {\"In\": 1}, \"10\": {\"In\": 1}, \"11\": {\"In\": 1}, \"12\": {\"In\": 1}, \"13\": {\"In\": 1}, \"14\": {\"In\": 1}, \"15\": {\"In\": 1}, \"16\": {\"O\": 1}, \"17\": {\"O\": 1}, \"18\": {\"O\": 1}, \"19\": {\"O\": 1}, \"20\": {\"O\": 1}, \"21\": {\"O\": 1}, \"22\": {\"O\": 1}, \"23\": {\"O\": 1}, \"24\": {\"O\": 1}, \"25\": {\"O\": 1}, \"26\": {\"O\": 1}, \"27\": {\"O\": 1}, \"28\": {\"O\": 1}, \"29\": {\"O\": 1}, \"30\": {\"O\": 1}, \"31\": {\"O\": 1}, \"32\": {\"O\": 1}, \"33\": {\"O\": 1}, \"34\": {\"O\": 1}, \"35\": {\"O\": 1}, \"36\": {\"O\": 1}, \"37\": {\"O\": 1}, \"38\": {\"O\": 1}, \"39\": {\"O\": 1}}" n_minim_iter=2 energy=-45146.363695404136 stress="0.06641209616052424 -1.6905172155453056e-12 -1.8435551818653793e-12 -1.6905172155453056e-12 0.06641209616369693 6.469606185695058e-14 -1.8435551818653793e-12 6.469606185695058e-14 0.0664120961600874" free_energy=-45146.363695404136 pbc="T T T"
In      -4.58452210       3.24174667       6.07488213        0       0.01163565      -0.00822764       0.01425070
In       7.76606963       1.25764100       1.71828591        1      -0.01163565       0.00822764      -0.01425070
In       1.40297457      -0.99205283       5.61486993        2      -0.01163565       0.00822764      -0.01425070
In      -1.59077377      -2.24969383       3.89658402        3      -0.00000000      -0.00000000      -0.00000000
In      -1.40297457       4.36659358       3.66657792        4       0.01163565      -0.00822764      -0.01425070
In       4.96012049      -3.10895258       5.84487603        5       0.01163565       0.01645529      -0.00000000
In      -1.40297457       1.39043509       5.84487603        6       0.01163565       0.01645529      -0.00000000
In      -1.77857296       7.60834025       1.94829201        7      -0.01163565      -0.01645529      -0.00000000
In       4.58452210       0.13279409       4.12659012        8      -0.01163565       0.00822764       0.01425070
In      -1.59077377       4.49938767      -0.00000000        9       0.00000000      -0.00000000      -0.00000000
In       4.58452210       6.88187559       0.23000610       10      -0.01163565       0.00822764       0.01425070
In      -1.40297457      -2.38248791       7.56316194       11       0.01163565      -0.00822764      -0.01425070
In       4.58452210       3.10895258       1.94829201       12      -0.01163565      -0.01645529      -0.00000000
In       1.77857296       5.49144050       2.17829811       13       0.01163565      -0.00822764       0.01425070
In       4.77232129       0.00000000      -0.00000000       14      -0.00000000       0.00000000       0.00000000
In       1.59077376       2.24969384       3.89658402       15      -0.00000000      -0.00000000      -0.00000000
O        1.27638745       4.58189256       4.19341187       16       0.04028147       0.02606692       0.03409889
O       -1.90516008       3.59034876       5.62501077       17       0.04028147       0.01649704      -0.03962406
O       -0.35380126       2.49337242      -0.26813851       18       0.05355685       0.00710993      -0.02336511
O       -1.27638745      -0.82653401       2.02525460       19      -0.04028147       0.04256397      -0.00552517
O        4.02006663       5.17111184       2.29339310       20       0.00212641      -0.05605382       0.01783993
O        2.34302842       2.84911307       1.72842675       21      -0.00212641      -0.04347675      -0.03962406
O        2.34302842       6.82138645       0.56496635       22      -0.00212641      -0.01257707       0.05746400
O       -2.46870781       6.25152439       3.62844551       23       0.01114898      -0.05286386      -0.02336511
O        3.53534879       2.00601525       8.06130654       24      -0.05355685      -0.00710993       0.02336511
O        5.65025534      -1.75213672       4.16472252       25      -0.01114898       0.05286386       0.02336511
O        6.71689632       3.26416529       1.60319091       26      -0.05355685      -0.01667981      -0.01783993
O        3.89438725       2.26625764       4.46155037       27       0.01114898       0.00619715       0.05746400
O        0.71283972       4.98038098       7.49634019       28       0.01114898       0.04666671      -0.03409889
O        2.46870781      -0.48099331       0.29682785       29      -0.01114898      -0.04666671       0.03409889
O       -3.53534879       1.23522238       6.18997712       30       0.05355685       0.01667981       0.01783993
O        5.08670761       0.90903891       2.16815726       31      -0.04028147      -0.01649704       0.03962406
O        0.83851910       1.65027460       6.06474128       32       0.00212641       0.04347675       0.03962406
O        3.53534879      -0.77079287       5.92183862       33      -0.05355685       0.02378974      -0.00552517
O        1.90516008      -0.08250489       3.59975617       34      -0.04028147      -0.02606692      -0.03409889
O        0.83851910      -2.32199878       7.22820169       35       0.00212641       0.01257707      -0.05746400
O       -0.71283972       2.23313003       3.33161767       36      -0.01114898      -0.00619715      -0.05746400
O       -0.83851911      -0.67172417       5.49977493       37      -0.00212641       0.05605382      -0.01783993
O       -0.35380126       5.27018054       1.87132942       38       0.05355685      -0.02378974       0.00552517
O        4.45793498       5.32592168       5.76791344       39       0.04028147      -0.04256397       0.00552517
40
Lattice="9.544642590132232 7.480838171147746e-10 1.9095836023552683e-14 -3.1815475307493783 8.99877533239655 -1.2957377393263406e-09 -3.1815475296914433 -4.499387665450181 7.793168041667983" Properties=species:S:1:pos:R:3:spacegroup_kinds:I:1:forces:R:3 spacegroup="P 1" unit_cell=conventional occupancy="_JSON {\"0\": {\"In\": 1}, \"1\": {\"In\": 1}, \"2\": {\"In\": 1}, \"3\": {\"In\": 1}, \"4\": {\"In\": 1}, \"5\": {\"In\": 1}, \"6\": {\"In\": 1}, \"7\": {\"In\": 1}, \"8\": {\"In\": 1}, \"9\": {\"In\": 1}, \"10\": {\"In\": 1}, \"11\": {\"In\": 1}, \"12\": {\"In\": 1}, \"13\": {\"In\": 1}, \"14\": {\"In\": 1}, \"15\": {\"In\": 1}, \"16\": {\"O\": 1}, \"17\": {\"O\": 1}, \"18\": {\"O\": 1}, \"19\": {\"O\": 1}, \"20\": {\"O\": 1}, \"21\": {\"O\": 1}, \"22\": {\"O\": 1}, \"23\": {\"O\": 1}, \"24\": {\"O\": 1}, \"25\": {\"O\": 1}, \"26\": {\"O\": 1}, \"27\": {\"O\": 1}, \"28\": {\"O\": 1}, \"29\": {\"O\": 1}, \"30\": {\"O\": 1}, \"31\": {\"O\": 1}, \"32\": {\"O\": 1}, \"33\": {\"O\": 1}, \"34\": {\"O\": 1}, \"35\": {\"O\": 1}, \"36\": {\"O\": 1}, \"37\": {\"O\": 1}, \"38\": {\"O\": 1}, \"39\": {\"O\": 1}}" n_minim_iter=3 energy=-45146.36843941424 stress="0.06530478758182953 2.101275025783784e-12 1.949532719374131e-13 2.101275025783784e-12 0.06530478757911633 2.2460142481340276e-12 1.949532719374131e-13 2.2460142481340276e-12 0.06530478758710842" free_energy=-45146.36843941424 pbc="T T T"
In      -4.58236009       3.24021789       6.07753005        0      -0.00338831       0.00239590      -0.00414981
In       7.76390761       1.25916978       1.71563799        1       0.00338831      -0.00239590       0.00414981
In       1.40081255      -0.99052405       5.61222201        2       0.00338831      -0.00239590       0.00414981
In      -1.59077377      -2.24969383       3.89658402        3       0.00000000       0.00000000       0.00000000
In      -1.40081256       4.36506481       3.66393000        4      -0.00338831       0.00239590       0.00414981
In       4.96228251      -3.10589503       5.84487603        5      -0.00338831      -0.00479179       0.00000000
In      -1.40081256       1.39349264       5.84487603        6      -0.00338831      -0.00479179      -0.00000000
In      -1.78073498       7.60528270       1.94829201        7       0.00338831       0.00479179       0.00000000
In       4.58236008       0.13432286       4.12923804        8       0.00338831      -0.00239590      -0.00414981
In      -1.59077377       4.49938767      -0.00000000        9       0.00000000      -0.00000000       0.00000000
In       4.58236008       6.88340436       0.23265402       10       0.00338831      -0.00239590      -0.00414981
In      -1.40081255      -2.38401669       7.56051402       11      -0.00338831       0.00239590       0.00414981
In       4.58236008       3.10589503       1.94829201       12       0.00338831       0.00479179      -0.00000000
In       1.78073497       5.48991172       2.18094603       13      -0.00338831       0.00239590      -0.00414981
In       4.77232129       0.00000000      -0.00000000       14       0.00000000      -0.00000000      -0.00000000
In       1.59077376       2.24969384       3.89658402       15       0.00000000       0.00000000       0.00000000
O        1.28042424       4.58630455       4.19408930       16       0.02037538      -0.01205565       0.05589949
O       -1.90112329       3.58872944       5.62085116       17       0.02037538       0.05443820      -0.01750925
O       -0.34982271       2.49179428      -0.27236945       18       0.04675045       0.03578821       0.01479348
O       -1.28042424      -0.82374134       2.02177242       19      -0.02037538       0.04238255       0.03839024
O        4.01719433       5.16587644       2.29414186       20       0.04453304      -0.03384153       0.02359676
O        2.34590073       2.84584691       1.72426714       21      -0.04453303      -0.03735616      -0.01750925
O        2.34590073       6.81941719       0.56987473       22      -0.04453304       0.00351462       0.04110601
O       -2.46589374       6.24829942       3.62421457       23      -0.01815796      -0.05600615       0.01479348
O        3.53137023       2.00759339       8.06553748       24      -0.04675045      -0.03578821      -0.01479348
O        5.64744127      -1.74891175       4.16895346       25       0.01815796       0.05600615      -0.01479348
O        6.71291776       3.25971212       1.60244215       26      -0.04675045       0.03070564      -0.02359676
O        3.89720132       2.26420602       4.46645875       27      -0.01815796       0.04081461       0.04110601
O        0.71565379       4.98565757       7.49566275       28      -0.01815796       0.01519154      -0.05589949
O        2.46589374      -0.48626990       0.29750528       29       0.01815796      -0.01519154       0.05589949
O       -3.53137024       1.23967556       6.19072589       30       0.04675045      -0.03070564       0.02359676
O        5.08267082       0.91065823       2.17231688       31      -0.02037538      -0.05443820       0.01750925
O        0.83564680       1.65354076       6.06890090       32       0.04453303       0.03735616       0.01750925
O        3.53137023      -0.76791783       5.91835644       33      -0.04675045       0.00508257       0.03839024
O        1.90112329      -0.08691688       3.59907873       34      -0.02037538       0.01205565      -0.05589949
O        0.83564680      -2.32002952       7.22329331       35       0.04453304      -0.00351462      -0.04110601
O       -0.71565379       2.23518165       3.32670929       36       0.01815797      -0.04081461      -0.04110601
O       -0.83564680      -0.66648877       5.49902617       37      -0.04453303       0.03384153      -0.02359676
O       -0.34982271       5.26730550       1.87481159       38       0.04675045      -0.00508257      -0.03839024
O        4.46197177       5.32312901       5.77139562       39       0.02037538      -0.04238255      -0.03839024
40
Lattice="9.54464259013223 7.480838171147747e-10 1.9095836023552702e-14 -3.181547530749379 8.998775332396551 -1.2957377393263404e-09 -3.1815475296914437 -4.499387665450182 7.793168041667984" Properties=species:S:1:pos:R:3:spacegroup_kinds:I:1:forces:R:3 spacegroup="P 1" unit_cell=conventional occupancy="_JSON {\"0\": {\"In\": 1}, \"1\": {\"In\": 1}, \"2\": {\"In\": 1}, \"3\": {\"In\": 1}, \"4\": {\"In\": 1}, \"5\": {\"In\": 1}, \"6\": {\"In\": 1}, \"7\": {\"In\": 1}, \"8\": {\"In\": 1}, \"9\": {\"In\": 1}, \"10\": {\"In\": 1}, \"11\": {\"In\": 1}, \"12\": {\"In\": 1}, \"13\": {\"In\": 1}, \"14\": {\"In\": 1}, \"15\": {\"In\": 1}, \"16\": {\"O\": 1}, \"17\": {\"O\": 1}, \"18\": {\"O\": 1}, \"19\": {\"O\": 1}, \"20\": {\"O\": 1}, \"21\": {\"O\": 1}, \"22\": {\"O\": 1}, \"23\": {\"O\": 1}, \"24\": {\"O\": 1}, \"25\": {\"O\": 1}, \"26\": {\"O\": 1}, \"27\": {\"O\": 1}, \"28\": {\"O\": 1}, \"29\": {\"O\": 1}, \"30\": {\"O\": 1}, \"31\": {\"O\": 1}, \"32\": {\"O\": 1}, \"33\": {\"O\": 1}, \"34\": {\"O\": 1}, \"35\": {\"O\": 1}, \"36\": {\"O\": 1}, \"37\": {\"O\": 1}, \"38\": {\"O\": 1}, \"39\": {\"O\": 1}}" n_minim_iter=4 energy=-45146.37153412535 stress="0.06434277997754338 2.2392310587661404e-12 -1.5656108523130461e-12 2.2392310587661404e-12 0.06434277996785732 5.866122599839467e-12 -1.5656108523130461e-12 5.866122599839467e-12 0.06434277996600024" free_energy=-45146.37153412535 pbc="T T T"
In      -4.58040681       3.23883672       6.07992231        0       0.00182787      -0.00129250       0.00223868
In       7.76195434       1.26055095       1.71324572        1      -0.00182787       0.00129250      -0.00223868
In       1.39885928      -0.98914288       5.60982974        2      -0.00182787       0.00129250      -0.00223868
In      -1.59077377      -2.24969383       3.89658402        3      -0.00000000      -0.00000000       0.00000000
In      -1.39885928       4.36368363       3.66153773        4       0.00182787      -0.00129250      -0.00223868
In       4.96423578      -3.10313268       5.84487603        5       0.00182787       0.00258500      -0.00000000
In      -1.39885928       1.39625499       5.84487603        6       0.00182787       0.00258500      -0.00000000
In      -1.78268826       7.60252035       1.94829201        7      -0.00182787      -0.00258500       0.00000000
In       4.58040681       0.13570404       4.13163030        8      -0.00182787       0.00129250       0.00223868
In      -1.59077377       4.49938767      -0.00000000        9       0.00000000       0.00000000       0.00000000
In       4.58040680       6.88478554       0.23504628       10      -0.00182787       0.00129250       0.00223868
In      -1.39885928      -2.38539787       7.55812175       11       0.00182787      -0.00129250      -0.00223868
In       4.58040681       3.10313268       1.94829201       12      -0.00182787      -0.00258500      -0.00000000
In       1.78268825       5.48853055       2.18333829       13       0.00182787      -0.00129250       0.00223868
In       4.77232129       0.00000000      -0.00000000       14      -0.00000000       0.00000000       0.00000000
In       1.59077376       2.24969384       3.89658402       15      -0.00000000      -0.00000000      -0.00000000
O        1.28551468       4.58994802       4.19788056       16      -0.00700847      -0.03653580       0.04128754
O       -1.89603285       3.59019103       5.61580019       17      -0.00700847       0.05402396       0.01099717
O       -0.34331280       2.49225215      -0.27568193       18       0.01415183       0.03906136       0.03691314
O       -1.28551469      -0.81863628       2.02051271       19       0.00700847       0.01748815       0.05228470
O        4.01687551       5.15885891       2.29619464       20       0.05327043       0.00382366       0.01537156
O        2.34621955       2.84056040       1.71921617       21      -0.05327043      -0.01140033       0.01099716
O        2.34621955       6.81768618       0.57697846       22      -0.05327043       0.01522399       0.00437439
O       -2.46415546       6.24200919       3.62090209       23      -0.03211013      -0.02636293       0.03691314
O        3.52486032       2.00713552       8.06884997       24      -0.01415183      -0.03906136      -0.03691314
O        5.64570299      -1.74262152       4.17226595       25       0.03211013       0.02636293      -0.03691314
O        6.70640785       3.25707236       1.60038938       26      -0.01415183       0.05149840      -0.01537156
O        3.89893960       2.26448244       4.47356249       27      -0.03211013       0.04514918       0.00437439
O        0.71739207       4.99167138       7.49187150       28      -0.03211013      -0.01878625      -0.04128754
O        2.46415546      -0.49228371       0.30129654       29       0.03211013       0.01878625       0.04128754
O       -3.52486033       1.24231531       6.19277866       30       0.01415183      -0.05149840       0.01537156
O        5.07758037       0.90919664       2.17736784       31       0.00700847      -0.05402396      -0.01099717
O        0.83532798       1.65882727       6.07395187       32       0.05327043       0.01140033      -0.01099717
O        3.52486032      -0.76482020       5.91709673       33      -0.01415183      -0.01243704       0.05228470
O        1.89603284      -0.09056035       3.59528748       34       0.00700847       0.03653580      -0.04128754
O        0.83532798      -2.31829851       7.21618957       35       0.05327043      -0.01522399      -0.00437439
O       -0.71739207       2.23490523       3.31960555       36       0.03211013      -0.04514918      -0.00437439
O       -0.83532798      -0.65947124       5.49697340       37      -0.05327043      -0.00382366      -0.01537156
O       -0.34331280       5.26420787       1.87607131       38       0.01415183       0.01243704      -0.05228470
O        4.46706221       5.31802395       5.77265533       39      -0.00700848      -0.01748815      -0.05228470
40
Lattice="9.544642590132236 7.48083817114775e-10 1.9095836023552708e-14 -3.181547530749381 8.998775332396553 -1.2957377393263414e-09 -3.181547529691446 -4.4993876654501825 7.79316804166799" Properties=species:S:1:pos:R:3:spacegroup_kinds:I:1:forces:R:3 spacegroup="P 1" unit_cell=conventional occupancy="_JSON {\"0\": {\"In\": 1}, \"1\": {\"In\": 1}, \"2\": {\"In\": 1}, \"3\": {\"In\": 1}, \"4\": {\"In\": 1}, \"5\": {\"In\": 1}, \"6\": {\"In\": 1}, \"7\": {\"In\": 1}, \"8\": {\"In\": 1}, \"9\": {\"In\": 1}, \"10\": {\"In\": 1}, \"11\": {\"In\": 1}, \"12\": {\"In\": 1}, \"13\": {\"In\": 1}, \"14\": {\"In\": 1}, \"15\": {\"In\": 1}, \"16\": {\"O\": 1}, \"17\": {\"O\": 1}, \"18\": {\"O\": 1}, \"19\": {\"O\": 1}, \"20\": {\"O\": 1}, \"21\": {\"O\": 1}, \"22\": {\"O\": 1}, \"23\": {\"O\": 1}, \"24\": {\"O\": 1}, \"25\": {\"O\": 1}, \"26\": {\"O\": 1}, \"27\": {\"O\": 1}, \"28\": {\"O\": 1}, \"29\": {\"O\": 1}, \"30\": {\"O\": 1}, \"31\": {\"O\": 1}, \"32\": {\"O\": 1}, \"33\": {\"O\": 1}, \"34\": {\"O\": 1}, \"35\": {\"O\": 1}, \"36\": {\"O\": 1}, \"37\": {\"O\": 1}, \"38\": {\"O\": 1}, \"39\": {\"O\": 1}}" n_minim_iter=5 energy=-45146.3741043714 stress="0.06473135733894554 -4.2377982210449774e-12 3.4747142968135133e-13 -4.2377982210449774e-12 0.06473135734251147 -9.49160860622226e-13 3.4747142968135133e-13 -9.49160860622226e-13 0.06473135734723832" free_energy=-45146.3741043714 pbc="T T T"
In      -4.58089215       3.23917990       6.07932790        0       0.02314436      -0.01636553       0.02834593
In       7.76243967       1.26020777       1.71384014        1      -0.02314436       0.01636553      -0.02834593
In       1.39934461      -0.98948606       5.61042416        2      -0.02314436       0.01636553      -0.02834593
In      -1.59077377      -2.24969383       3.89658402        3      -0.00000000      -0.00000000       0.00000000
In      -1.39934462       4.36402682       3.66213215        4       0.02314436      -0.01636553      -0.02834593
In       4.96375044      -3.10381905       5.84487603        5       0.02314436       0.03273106       0.00000000
In      -1.39934462       1.39556862       5.84487603        6       0.02314436       0.03273106      -0.00000000
In      -1.78220292       7.60320672       1.94829201        7      -0.02314436      -0.03273106      -0.00000000
In       4.58089214       0.13536085       4.13103589        8      -0.02314436       0.01636553       0.02834593
In      -1.59077377       4.49938767      -0.00000000        9       0.00000000      -0.00000000       0.00000000
In       4.58089214       6.88444235       0.23445187       10      -0.02314436       0.01636553       0.02834593
In      -1.39934462      -2.38505468       7.55871617       11       0.02314436      -0.01636553      -0.02834593
In       4.58089214       3.10381905       1.94829201       12      -0.02314436      -0.03273106       0.00000000
In       1.78220291       5.48887374       2.18274388       13       0.02314436      -0.01636553       0.02834593
In       4.77232129       0.00000000      -0.00000000       14       0.00000000       0.00000000      -0.00000000
In       1.59077376       2.24969384       3.89658402       15      -0.00000000       0.00000000       0.00000000
O        1.28527470       4.58759735       4.20098134       16      -0.00638416      -0.00712315      -0.00052038
O       -1.89627283       3.59405172       5.61628554       17      -0.00638416       0.00311091       0.00642902
O       -0.34196913       2.49499304      -0.27325701       18      -0.00591083       0.00277622       0.00700873
O       -1.28527470      -0.81712626       2.02409884       19       0.00638416      -0.00401224       0.00590864
O        4.02059540       5.15874893       2.29735585       20       0.00506105       0.00805873      -0.00110009
O        2.34249966       2.83949977       1.71970152       21      -0.00506105       0.00498207       0.00642902
O        2.34249965       6.81863683       0.57765432       22      -0.00506105       0.00307666      -0.00752911
O       -2.46629170       6.23982875       3.62332701       23      -0.00458772       0.00464738       0.00700873
O        3.52351666       2.00439463       8.06642505       24       0.00591083      -0.00277622      -0.00700873
O        5.64783923      -1.74044108       4.16984103       25       0.00458772      -0.00464738      -0.00700873
O        6.70506419       3.26054284       1.59922816       26       0.00591083       0.00745785       0.00110009
O        3.89680336       2.26767270       4.47423834       27      -0.00458772       0.00374605      -0.00752911
O        0.71525583       4.99066156       7.48877072       28      -0.00458772      -0.00839342       0.00052038
O        2.46629170      -0.49127389       0.30439732       29       0.00458772       0.00839342      -0.00052038
O       -3.52351666       1.23884483       6.19393987       30      -0.00591083      -0.00745785      -0.00110009
O        5.07782036       0.90533595       2.17688249       31       0.00638415      -0.00311091      -0.00642902
O        0.83904787       1.65988790       6.07346651       32       0.00506105      -0.00498207      -0.00642902
O        3.52351666      -0.76554980       5.92068286       33       0.00591083      -0.00468163       0.00590864
O        1.89627283      -0.08820968       3.59218670       34       0.00638416       0.00712315       0.00052038
O        0.83904787      -2.31924916       7.21551371       35       0.00506105      -0.00307666       0.00752911
O       -0.71525583       2.23171497       3.31892969       36       0.00458772      -0.00374605       0.00752911
O       -0.83904787      -0.65936126       5.49581218       37      -0.00506105      -0.00805873       0.00110009
O       -0.34196913       5.26493747       1.87248517       38      -0.00591083       0.00468163      -0.00590864
O        4.46682223       5.31651393       5.76906919       39      -0.00638416       0.00401224      -0.00590864
40