40
Lattice="9.208280408783907 7.217195729936066e-10 1.3766765505351941e-14 -3.0694268036084127 8.681650026583874 -1.250064496360892e-09 -3.069426802587758 -4.340825012570212 7.51852947062085" Properties=species:S:1:pos:R:3:spacegroup_kinds:I:1:forces:R:3 spacegroup="P 1" unit_cell=conventional occupancy="_JSON {\"0\": {\"In\": 1}, \"1\": {\"In\": 1}, \"2\": {\"In\": 1}, \"3\": {\"In\": 1}, \"4\": {\"In\": 1}, \"5\": {\"In\": 1}, \"6\": {\"In\": 1}, \"7\": {\"In\": 1}, \"8\": {\"In\": 1}, \"9\": {\"In\": 1}, \"10\": {\"In\": 1}, \"11\": {\"In\": 1}, \"12\": {\"In\": 1}, \"13\": {\"In\": 1}, \"14\": {\"In\": 1}, \"15\": {\"In\": 1}, \"16\": {\"O\": 1}, \"17\": {\"O\": 1}, \"18\": {\"O\": 1}, \"19\": {\"O\": 1}, \"20\": {\"O\": 1}, \"21\": {\"O\": 1}, \"22\": {\"O\": 1}, \"23\": {\"O\": 1}, \"24\": {\"O\": 1}, \"25\": {\"O\": 1}, \"26\": {\"O\": 1}, \"27\": {\"O\": 1}, \"28\": {\"O\": 1}, \"29\": {\"O\": 1}, \"30\": {\"O\": 1}, \"31\": {\"O\": 1}, \"32\": {\"O\": 1}, \"33\": {\"O\": 1}, \"34\": {\"O\": 1}, \"35\": {\"O\": 1}, \"36\": {\"O\": 1}, \"37\": {\"O\": 1}, \"38\": {\"O\": 1}, \"39\": {\"O\": 1}}" n_minim_iter=1 energy=-45150.16678046946 stress="0.059763173516537725 -9.914747845042488e-13 4.05407594428817e-12 -9.914747845042488e-13 0.05976317351592759 -1.4953280788160683e-12 4.05407594428817e-12 -1.4953280788160683e-12 0.05976317352521092" free_energy=-45150.16678046946 pbc="T T T"
In      -4.37251803       3.09183715       5.92257518        0       0.04683650      -0.03311841       0.05736276
In       7.44194482       1.24898787       1.59595429        1      -0.04683650       0.03311841      -0.05736276
In       1.30309122      -0.92142464       5.35521902        2      -0.04683650       0.03311841      -0.05736276
In      -1.53471340      -2.17041250       3.75926473        3       0.00000000       0.00000000       0.00000000
In      -1.30309122       4.17704340       3.47558665        4       0.04683650      -0.03311841      -0.05736276
In       4.83576238      -2.92805553       5.63889710        5       0.04683650       0.06623681       0.00000000
In      -1.30309122       1.41276949       5.63889710        6       0.04683650       0.06623681       0.00000000
In      -1.76633558       7.26888055       1.87963236        7      -0.04683650      -0.06623681       0.00000000
In       4.37251802       0.16378162       4.04294281        8      -0.04683650       0.03311841       0.05736276
In      -1.53471340       4.34082501      -0.00000000        9       0.00000000       0.00000000       0.00000000
In       4.37251802       6.67501914       0.28367808       10      -0.04683650       0.03311841       0.05736276
In      -1.30309122      -2.33419412       7.23485139       11       0.04683650      -0.03311841      -0.05736276
In       4.37251802       2.92805553       1.87963236       12      -0.04683650      -0.06623681      -0.00000000
In       1.76633558       5.26224965       2.16331044       13       0.04683650      -0.03311841       0.05736276
In       4.60414020       0.00000000      -0.00000000       14      -0.00000000      -0.00000000       0.00000000
In       1.53471340       2.17041251       3.75926473       15      -0.00000000      -0.00000000      -0.00000000
O        0.97865716       4.34815190       4.07457925       16       0.02045934      -0.00656789      -0.03529664
O       -2.09076965       3.52502570       5.47489457       17       0.02045934      -0.02728384       0.02333628
O       -0.43601606       2.35493822      -0.01698393       18      -0.02509594       0.00492860      -0.03245731
O       -0.97865716      -0.80847242       2.03094435       19      -0.02045934      -0.03385173      -0.01196036
O        4.02034932       5.13949176       2.04792828       20      -0.03254323       0.01511249       0.02049695
O        2.11850429       2.96660047       1.71562983       21       0.03254323      -0.01019463       0.02333628
O        2.11850429       6.51371631       0.33229845       22       0.03254323       0.02530713      -0.00283933
O       -2.36559573       6.13733800       3.74228080       23      -0.01301204       0.02201781      -0.03245731
O        3.50544286       1.98588680       7.53551340       24       0.02509594      -0.00492860       0.03245731
O        5.43502253      -1.79651298       3.77624866       25       0.01301204      -0.02201781       0.03245731
O        6.57486966       3.33317310       1.71133645       26       0.02509594      -0.02564455      -0.02049695
O        3.77325787       2.34265376       4.09156318       27      -0.01301204      -0.03911776      -0.00283933
O        0.70383107       4.54248329       7.20321495       28      -0.01301204       0.01709995       0.03529664
O        2.36559573      -0.20165828       0.31531452       29       0.01301204      -0.01709995      -0.03529664
O       -3.50544286       1.00765192       5.80719302       30      -0.02509594       0.02564455       0.02049695
O        5.16019645       0.81579931       2.04363490       31      -0.02045934       0.02728384      -0.02333628
O        0.95092251       1.37422455       5.80289963       32      -0.03254323       0.01019463      -0.02333628
O        3.50544286      -0.97823488       5.79020909       33       0.02509594       0.03057316      -0.01196036
O        2.09076964      -0.00732689       3.44395021       34      -0.02045934       0.00656789       0.03529664
O        0.95092251      -2.17289129       7.18623102       35      -0.03254323      -0.02530713       0.00283933
O       -0.70383107       1.99817126       3.42696628       36       0.01301204       0.03911776       0.00283933
O       -0.95092252      -0.79866674       5.47060118       37       0.03254323      -0.01511249      -0.02049695
O       -0.43601606       5.31905990       1.72832038       38      -0.02509594      -0.03057316       0.01196036
O        4.04808396       5.14929744       5.48758511       39       0.02045934       0.03385173       0.01196036
40
Lattice="9.208280408783907 7.217195729936069e-10 1.376676550535194e-14 -3.069426803608414 8.681650026583874 -1.2500644963608918e-09 -3.0694268025877594 -4.340825012570212 7.51852947062085" Properties=species:S:1:pos:R:3:spacegroup_kinds:I:1:forces:R:3 spacegroup="P 1" unit_cell=conventional occupancy="_JSON {\"0\": {\"In\": 1}, \"1\": {\"In\": 1}, \"2\": {\"In\": 1}, \"3\": {\"In\": 1}, \"4\": {\"In\": 1}, \"5\": {\"In\": 1}, \"6\": {\"In\": 1}, \"7\": {\"In\": 1}, \"8\": {\"In\": 1}, \"9\": {\"In\": 1}, \"10\": {\"In\": 1}, \"11\": {\"In\": 1}, \"12\": {\"In\": 1}, \"13\": {\"In\": 1}, \"14\": {\"In\": 1}, \"15\": {\"In\": 1}, \"16\": {\"O\": 1}, \"17\": {\"O\": 1}, \"18\": {\"O\": 1}, \"19\": {\"O\": 1}, \"20\": {\"O\": 1}, \"21\": {\"O\": 1}, \"22\": {\"O\": 1}, \"23\": {\"O\": 1}, \"24\": {\"O\": 1}, \"25\": {\"O\": 1}, \"26\": {\"O\": 1}, \"27\": {\"O\": 1}, \"28\": {\"O\": 1}, \"29\": {\"O\": 1}, \"30\": {\"O\": 1}, \"31\": {\"O\": 1}, \"32\": {\"O\": 1}, \"33\": {\"O\": 1}, \"34\": {\"O\": 1}, \"35\": {\"O\": 1}, \"36\": {\"O\": 1}, \"37\": {\"O\": 1}, \"38\": {\"O\": 1}, \"39\": {\"O\": 1}}" n_minim_iter=2 energy=-45150.1727330844 stress="0.05943454375594992 -2.732136101992185e-12 3.428431475990954e-12 -2.732136101992185e-12 0.05943454374660644 -2.313163417669159e-12 3.428431475990954e-12 -2.313163417669159e-12 0.05943454375163223" free_energy=-45150.1727330844 pbc="T T T"
In      -4.36917256       3.08947155       5.92667252        0       0.01871540      -0.01323379       0.02292159
In       7.43859936       1.25135347       1.59185695        1      -0.01871540       0.01323379      -0.02292159
In       1.29974575      -0.91905904       5.35112168        2      -0.01871540       0.01323379      -0.02292159
In      -1.53471340      -2.17041250       3.75926473        3       0.00000000      -0.00000000      -0.00000000
In      -1.29974576       4.17467780       3.47148931        4       0.01871540      -0.01323379      -0.02292159
In       4.83910785      -2.92332433       5.63889710        5       0.01871540       0.02646758       0.00000000
In      -1.29974576       1.41750069       5.63889710        6       0.01871540       0.02646758      -0.00000000
In      -1.76968105       7.26414934       1.87963236        7      -0.01871540      -0.02646758       0.00000000
In       4.36917256       0.16614722       4.04704015        8      -0.01871540       0.01323379       0.02292159
In      -1.53471340       4.34082501      -0.00000000        9      -0.00000000      -0.00000000       0.00000000
In       4.36917256       6.67738474       0.28777542       10      -0.01871540       0.01323379       0.02292159
In      -1.29974576      -2.33655972       7.23075405       11       0.01871540      -0.01323379      -0.02292159
In       4.36917256       2.92332433       1.87963236       12      -0.01871540      -0.02646758      -0.00000000
In       1.76968104       5.25988405       2.16740778       13       0.01871540      -0.01323379       0.02292159
In       4.60414020       0.00000000      -0.00000000       14      -0.00000000       0.00000000       0.00000000
In       1.53471340       2.17041251       3.75926473       15       0.00000000      -0.00000000      -0.00000000
O        0.98011854       4.34768277       4.07205806       16       0.02208268       0.00542799      -0.00591283
O       -2.08930827       3.52307686       5.47656144       17       0.02208268      -0.00783466      -0.00174436
O       -0.43780863       2.35529026      -0.01930231       18       0.00509186       0.00417966      -0.02255377
O       -0.98011854      -0.81089040       2.03009004       19      -0.02208268      -0.00240667      -0.00765719
O        4.01802480       5.14057123       2.04939235       20      -0.01474748      -0.01061476       0.01489658
O        2.12082880       2.96587228       1.71729671       21       0.01474748      -0.01820819      -0.00174436
O        2.12082880       6.51552396       0.33209564       22       0.01474748       0.00759344       0.01664094
O       -2.36652516       6.13891070       3.73996242       23      -0.00224333      -0.00619388      -0.02255377
O        3.50723543       1.98553475       7.53783178       24      -0.00509186      -0.00417966       0.02255377
O        5.43595196      -1.79808568       3.77856704       25       0.00224333       0.00619388       0.02255377
O        6.57666223       3.33134135       1.70987238       26      -0.00509186      -0.01744231      -0.01489658
O        3.77232844       2.33985963       4.09136038       27      -0.00224333      -0.01643520       0.01664094
O        0.70290164       4.54370472       7.20573613       28      -0.00224333       0.02262908       0.00591283
O        2.36652516      -0.20287970       0.31279333       29       0.00224333      -0.02262908      -0.00591283
O       -3.50723543       1.00948367       5.80865709       30       0.00509186       0.01744231       0.01489658
O        5.15873507       0.81774816       2.04196802       31      -0.02208268       0.00783466       0.00174436
O        0.94859800       1.37495274       5.80123276       32      -0.01474748       0.01820819       0.00174436
O        3.50723543      -0.97605108       5.78935478       33      -0.00509186       0.02162197      -0.00765719
O        2.08930826      -0.00685775       3.44647140       34      -0.02208268      -0.00542799       0.00591283
O        0.94859800      -2.17469894       7.18643382       35      -0.01474748      -0.00759344      -0.01664094
O       -0.70290164       2.00096539       3.42716909       36       0.00224333       0.01643520      -0.01664094
O       -0.94859800      -0.79974621       5.46913711       37       0.01474748       0.01061476      -0.01489658
O       -0.43780863       5.31687610       1.72917469       38       0.00509186      -0.02162197       0.00765719
O        4.04954534       5.15171542       5.48843942       39       0.02208268       0.00240667       0.00765719
40
Lattice="9.208280408783907 7.217195729936071e-10 1.3766765505351943e-14 -3.069426803608415 8.681650026583874 -1.2500644963608918e-09 -3.0694268025877602 -4.340825012570212 7.518529470620852" Properties=species:S:1:pos:R:3:spacegroup_kinds:I:1:forces:R:3 spacegroup="P 1" unit_cell=conventional occupancy="_JSON {\"0\": {\"In\": 1}, \"1\": {\"In\": 1}, \"2\": {\"In\": 1}, \"3\": {\"In\": 1}, \"4\": {\"In\": 1}, \"5\": {\"In\": 1}, \"6\": {\"In\": 1}, \"7\": {\"In\": 1}, \"8\": {\"In\": 1}, \"9\": {\"In\": 1}, \"10\": {\"In\": 1}, \"11\": {\"In\": 1}, \"12\": {\"In\": 1}, \"13\": {\"In\": 1}, \"14\": {\"In\": 1}, \"15\": {\"In\": 1}, \"16\": {\"O\": 1}, \"17\": {\"O\": 1}, \"18\": {\"O\": 1}, \"19\": {\"O\": 1}, \"20\": {\"O\": 1}, \"21\": {\"O\": 1}, \"22\": {\"O\": 1}, \"23\": {\"O\": 1}, \"24\": {\"O\": 1}, \"25\": {\"O\": 1}, \"26\": {\"O\": 1}, \"27\": {\"O\": 1}, \"28\": {\"O\": 1}, \"29\": {\"O\": 1}, \"30\": {\"O\": 1}, \"31\": {\"O\": 1}, \"32\": {\"O\": 1}, \"33\": {\"O\": 1}, \"34\": {\"O\": 1}, \"35\": {\"O\": 1}, \"36\": {\"O\": 1}, \"37\": {\"O\": 1}, \"38\": {\"O\": 1}, \"39\": {\"O\": 1}}" n_minim_iter=3 energy=-45150.17405979862 stress="0.05918186600242028 -4.897562136687794e-13 -1.0132703167391664e-11 -4.897562136687794e-13 0.059181866013956905 1.3757362777157543e-12 -1.0132703167391664e-11 1.3757362777157543e-12 0.059181865999451876" free_energy=-45150.17405979862 pbc="T T T"
In      -4.36692212       3.08788024       5.92942874        0       0.00013281      -0.00009391       0.00016265
In       7.43634892       1.25294477       1.58910073        1      -0.00013281       0.00009391      -0.00016265
In       1.29749531      -0.91746773       5.34836546        2      -0.00013281       0.00009391      -0.00016265
In      -1.53471340      -2.17041250       3.75926473        3      -0.00000000       0.00000000      -0.00000000
In      -1.29749531       4.17308650       3.46873309        4       0.00013281      -0.00009391      -0.00016265
In       4.84135829      -2.92014172       5.63889710        5       0.00013281       0.00018782       0.00000000
In      -1.29749531       1.42068329       5.63889710        6       0.00013281       0.00018782       0.00000000
In      -1.77193149       7.26096674       1.87963236        7      -0.00013281      -0.00018782      -0.00000000
In       4.36692211       0.16773852       4.04979637        8      -0.00013281       0.00009391       0.00016265
In      -1.53471340       4.34082501      -0.00000000        9      -0.00000000      -0.00000000      -0.00000000
In       4.36692211       6.67897604       0.29053163       10      -0.00013281       0.00009391       0.00016265
In      -1.29749531      -2.33815102       7.22799783       11       0.00013281      -0.00009391      -0.00016265
In       4.36692211       2.92014172       1.87963236       12      -0.00013281      -0.00018782      -0.00000000
In       1.77193149       5.25829275       2.17016400       13       0.00013281      -0.00009391       0.00016266
In       4.60414020       0.00000000      -0.00000000       14      -0.00000000       0.00000000      -0.00000000
In       1.53471340       2.17041251       3.75926473       15      -0.00000000       0.00000000      -0.00000000
O        0.98142627       4.34755518       4.07055334       16       0.02219550       0.01071832       0.01199587
O       -2.08800054       3.52183752       5.47742430       17       0.02219550       0.00502957      -0.01528027
O       -0.43866147       2.35557868      -0.02108560       18       0.02224575       0.00499404      -0.01521873
O       -0.98142627      -0.81225733       2.02944817       19      -0.02219550       0.01574789      -0.00328440
O        4.01642043       5.14090857       2.05053377       20      -0.00265658      -0.02453442       0.01193433
O        2.12243317       2.96505245       1.71815957       21       0.00265658      -0.02260264      -0.01528027
O        2.12243317       6.51668113       0.33237420       22       0.00265658      -0.00193178       0.02721460
O       -2.36708136       6.13961863       3.73817913       23       0.00270682      -0.02263817      -0.01521873
O        3.50808827       1.98524634       7.53961507       24      -0.02224575      -0.00499404       0.01521873
O        5.43650816      -1.79879361       3.78035033       25      -0.00270682       0.02263817       0.01521873
O        6.57751507       3.32994118       1.70873096       26      -0.02224575      -0.01068278      -0.01193433
O        3.77177224       2.33796129       4.09163894       27       0.00270682      -0.00186072       0.02721460
O        0.70234544       4.54489513       7.20724086       28       0.00270682       0.02449889      -0.01199587
O        2.36708136      -0.20407011       0.31128860       29      -0.00270682      -0.02449889       0.01199587
O       -3.50808827       1.01088384       5.80979851       30       0.02224575       0.01068278       0.01193433
O        5.15742733       0.81898750       2.04110516       31      -0.02219550      -0.00502957       0.01528027
O        0.94699363       1.37577257       5.80036990       32      -0.00265658       0.02260264       0.01528027
O        3.50808827      -0.97436250       5.78871291       33      -0.02224575       0.01567682      -0.00328440
O        2.08800053      -0.00673017       3.44797613       34      -0.02219550      -0.01071832      -0.01199587
O        0.94699363      -2.17585611       7.18615526       35      -0.00265658       0.00193178      -0.02721460
O       -0.70234544       2.00286373       3.42689053       36      -0.00270682       0.00186072      -0.02721460
O       -0.94699363      -0.80008355       5.46799569       37       0.00265658       0.02453442      -0.01193433
O       -0.43866147       5.31518752       1.72981656       38       0.02224575      -0.01567682       0.00328440
O        4.05085307       5.15308235       5.48908129       39       0.02219550      -0.01574789       0.00328440
40
Lattice="9.208280408783903 7.217195729936069e-10 1.3766765505351938e-14 -3.069426803608414 8.68165002658387 -1.2500644963608918e-09 -3.0694268025877594 -4.34082501257021 7.51852947062085" Properties=species:S:1:pos:R:3:spacegroup_kinds:I:1:forces:R:3 spacegroup="P 1" unit_cell=conventional occupancy="_JSON {\"0\": {\"In\": 1}, \"1\": {\"In\": 1}, \"2\": {\"In\": 1}, \"3\": {\"In\": 1}, \"4\": {\"In\": 1}, \"5\": {\"In\": 1}, \"6\": {\"In\": 1}, \"7\": {\"In\": 1}, \"8\": {\"In\": 1}, \"9\": {\"In\": 1}, \"10\": {\"In\": 1}, \"11\": {\"In\": 1}, \"12\": {\"In\": 1}, \"13\": {\"In\": 1}, \"14\": {\"In\": 1}, \"15\": {\"In\": 1}, \"16\": {\"O\": 1}, \"17\": {\"O\": 1}, \"18\": {\"O\": 1}, \"19\": {\"O\": 1}, \"20\": {\"O\": 1}, \"21\": {\"O\": 1}, \"22\": {\"O\": 1}, \"23\": {\"O\": 1}, \"24\": {\"O\": 1}, \"25\": {\"O\": 1}, \"26\": {\"O\": 1}, \"27\": {\"O\": 1}, \"28\": {\"O\": 1}, \"29\": {\"O\": 1}, \"30\": {\"O\": 1}, \"31\": {\"O\": 1}, \"32\": {\"O\": 1}, \"33\": {\"O\": 1}, \"34\": {\"O\": 1}, \"35\": {\"O\": 1}, \"36\": {\"O\": 1}, \"37\": {\"O\": 1}, \"38\": {\"O\": 1}, \"39\": {\"O\": 1}}" n_minim_iter=4 energy=-45150.17506138906 stress="0.05902017908481564 -7.161345412404022e-12 1.4758532756420564e-12 -7.161345412404022e-12 0.059020179093166446 -5.3403930388095155e-12 1.4758532756420564e-12 -5.3403930388095155e-12 0.05902017910119609" free_energy=-45150.17506138906 pbc="T T T"
In      -4.36514685       3.08662494       5.93160298        0      -0.01215985       0.00859831      -0.01489271
In       7.43457365       1.25420008       1.58692648        1       0.01215984      -0.00859831       0.01489271
In       1.29572005      -0.91621243       5.34619122        2       0.01215984      -0.00859831       0.01489271
In      -1.53471340      -2.17041250       3.75926473        3       0.00000000       0.00000000      -0.00000000
In      -1.29572005       4.17183119       3.46655885        4      -0.01215985       0.00859831       0.01489271
In       4.84313356      -2.91763111       5.63889710        5      -0.01215985      -0.01719662       0.00000000
In      -1.29572005       1.42319390       5.63889710        6      -0.01215985      -0.01719662       0.00000000
In      -1.77370676       7.25845613       1.87963236        7       0.01215985       0.01719662       0.00000000
In       4.36514685       0.16899382       4.05197062        8       0.01215985      -0.00859831      -0.01489271
In      -1.53471340       4.34082501      -0.00000000        9       0.00000000      -0.00000000       0.00000000
In       4.36514685       6.68023134       0.29270588       10       0.01215984      -0.00859831      -0.01489271
In      -1.29572005      -2.33940633       7.22582358       11      -0.01215985       0.00859831       0.01489271
In       4.36514685       2.91763112       1.87963236       12       0.01215984       0.01719662       0.00000000
In       1.77370675       5.25703745       2.17233825       13      -0.01215985       0.00859831      -0.01489271
In       4.60414020       0.00000000      -0.00000000       14       0.00000000      -0.00000000      -0.00000000
In       1.53471340       2.17041251       3.75926473       15      -0.00000000       0.00000000      -0.00000000
O        0.98414046       4.34826357       4.07028250       16       0.01892884       0.00526281       0.01663653
O       -2.08528634       3.52124878       5.47694624       17       0.01892884       0.01177625      -0.01287600
O       -0.43764393       2.35618966      -0.02364164       18       0.02237420       0.00934002      -0.00865631
O       -0.98414046      -0.81213768       2.02869928       19      -0.01892884       0.01703907       0.00376054
O        4.01496063       5.13931319       2.05234092       20       0.00479315      -0.02203679       0.01241684
O        2.12389297       2.96268973       1.71768150       21      -0.00479315      -0.02177170      -0.01287600
O        2.12389297       6.51744848       0.33465941       22      -0.00479315      -0.00026509       0.02529284
O       -2.36731822       6.13845563       3.73562309       23      -0.00134779      -0.02420794      -0.00865631
O        3.50707073       1.98463536       7.54217111       24      -0.02237420      -0.00934002       0.00865631
O        5.43674502      -1.79763061       3.78290637       25       0.00134779       0.02420793       0.00865631
O        6.57649754       3.32803308       1.70692381       26      -0.02237420      -0.00282657      -0.01241684
O        3.77153538       2.33632920       4.09392414       27      -0.00134779       0.00460739       0.02529284
O        0.70210858       4.54769022       7.20751169       28      -0.00134779       0.01960055      -0.01663653
O        2.36731822      -0.20686521       0.31101777       29       0.00134779      -0.01960055       0.01663653
O       -3.50707074       1.01279194       5.81160565       30       0.02237420       0.00282657       0.01241684
O        5.15471314       0.81957624       2.04158323       31      -0.01892884      -0.01177625       0.01287600
O        0.94553383       1.37813529       5.80084796       32       0.00479315       0.02177170       0.01287600
O        3.50707073      -0.97184342       5.78796401       33      -0.02237420       0.01216659       0.00376054
O        2.08528634      -0.00743855       3.44824696       34      -0.01892884      -0.00526281      -0.01663653
O        0.94553383      -2.17662346       7.18387006       35       0.00479315       0.00026509      -0.02529284
O       -0.70210858       2.00449582       3.42460532       36       0.00134779      -0.00460739      -0.02529284
O       -0.94553383      -0.79848818       5.46618855       37      -0.00479315       0.02203679      -0.01241684
O       -0.43764393       5.31266843       1.73056545       38       0.02237420      -0.01216659      -0.00376054
O        4.05356726       5.15296270       5.48983019       39       0.01892884      -0.01703907      -0.00376054
40
Lattice="9.208280408783898 7.217195729936066e-10 1.3766765505351916e-14 -3.0694268036084127 8.681650026583867 -1.2500644963608914e-09 -3.069426802587758 -4.340825012570209 7.518529470620846" Properties=species:S:1:pos:R:3:spacegroup_kinds:I:1:forces:R:3 spacegroup="P 1" unit_cell=conventional occupancy="_JSON {\"0\": {\"In\": 1}, \"1\": {\"In\": 1}, \"2\": {\"In\": 1}, \"3\": {\"In\": 1}, \"4\": {\"In\": 1}, \"5\": {\"In\": 1}, \"6\": {\"In\": 1}, \"7\": {\"In\": 1}, \"8\": {\"In\": 1}, \"9\": {\"In\": 1}, \"10\": {\"In\": 1}, \"11\": {\"In\": 1}, \"12\": {\"In\": 1}, \"13\": {\"In\": 1}, \"14\": {\"In\": 1}, \"15\": {\"In\": 1}, \"16\": {\"O\": 1}, \"17\": {\"O\": 1}, \"18\": {\"O\": 1}, \"19\": {\"O\": 1}, \"20\": {\"O\": 1}, \"21\": {\"O\": 1}, \"22\": {\"O\": 1}, \"23\": {\"O\": 1}, \"24\": {\"O\": 1}, \"25\": {\"O\": 1}, \"26\": {\"O\": 1}, \"27\": {\"O\": 1}, \"28\": {\"O\": 1}, \"29\": {\"O\": 1}, \"30\": {\"O\": 1}, \"31\": {\"O\": 1}, \"32\": {\"O\": 1}, \"33\": {\"O\": 1}, \"34\": {\"O\": 1}, \"35\": {\"O\": 1}, \"36\": {\"O\": 1}, \"37\": {\"O\": 1}, \"38\": {\"O\": 1}, \"39\": {\"O\": 1}}" n_minim_iter=5 energy=-45150.17650675171 stress="0.05904509653124466 7.359036654654874e-13 -5.387230796585909e-12 7.359036654654874e-13 0.05904509653501493 1.5496644291550583e-12 -5.387230796585909e-12 1.5496644291550583e-12 0.059045096533507924" free_energy=-45150.17650675171 pbc="T T T"
In      -4.36410111       3.08588549       5.93288375        0      -0.01421119       0.01004883      -0.01740508
In       7.43352791       1.25493953       1.58564572        1       0.01421119      -0.01004883       0.01740508
In       1.29467431      -0.91547298       5.34491045        2       0.01421119      -0.01004883       0.01740508
In      -1.53471340      -2.17041250       3.75926473        3      -0.00000000      -0.00000000       0.00000000
In      -1.29467431       4.17109175       3.46527808        4      -0.01421119       0.01004883       0.01740508
In       4.84417930      -2.91615222       5.63889710        5      -0.01421119      -0.02009766       0.00000000
In      -1.29467431       1.42467280       5.63889710        6      -0.01421119      -0.02009766       0.00000000
In      -1.77475250       7.25697723       1.87963236        7       0.01421119       0.02009766       0.00000000
In       4.36410111       0.16973327       4.05325138        8       0.01421119      -0.01004883      -0.01740508
In      -1.53471340       4.34082501      -0.00000000        9      -0.00000000       0.00000000       0.00000000
In       4.36410111       6.68097079       0.29398664       10       0.01421119      -0.01004883      -0.01740508
In      -1.29467431      -2.34014577       7.22454282       11      -0.01421119       0.01004883       0.01740508
In       4.36410111       2.91615222       1.87963236       12       0.01421119       0.02009766      -0.00000000
In       1.77475249       5.25629800       2.17361901       13      -0.01421119       0.01004883      -0.01740508
In       4.60414020       0.00000000      -0.00000000       14      -0.00000000       0.00000000       0.00000000
In       1.53471340       2.17041251       3.75926473       15      -0.00000000      -0.00000000      -0.00000000
O        0.98951828       4.35017702       4.07194655       16       0.00924974      -0.01443322       0.00005385
O       -2.07990852       3.52173316       5.47445712       17       0.00924974       0.00726324       0.01247261
O       -0.43359063       2.35761061      -0.02775296       18      -0.00367667       0.01640360      -0.00335894
O       -0.98951828      -0.80973985       2.02787420       19      -0.00924974      -0.00716997       0.01252646
O        4.01362470       5.13454170       2.05562715       20       0.00376461       0.00523069       0.01588540
O        2.12522890       2.95745802       1.71519238       21      -0.00376461      -0.01114182       0.01247261
O        2.12522890       6.51790869       0.34043477       22      -0.00376461       0.01637250       0.00341279
O       -2.36730681       6.13416048       3.73151178       23      -0.01669101      -0.00200147      -0.00335894
O        3.50301743       1.98321441       7.54628242       24       0.00367667      -0.01640360       0.00335894
O        5.43673361      -1.79333547       3.78701769       25       0.01669101       0.00200147       0.00335894
O        6.57244423       3.32518305       1.70363758       26       0.00367667       0.00529287      -0.01588540
O        3.77154680       2.33491627       4.09969950       27      -0.01669101      -0.00190820       0.00341279
O        0.70211999       4.55339830       7.20584765       28      -0.01669101       0.00390966      -0.00005385
O        2.36730681      -0.21257328       0.31268181       29       0.01669101      -0.00390966       0.00005385
O       -3.50301743       1.01564197       5.81489189       30      -0.00367667      -0.00529287       0.01588540
O        5.14933532       0.81909186       2.04407235       31      -0.00924974      -0.00726325      -0.01247261
O        0.94419790       1.38336700       5.80333708       32       0.00376461       0.01114182      -0.01247261
O        3.50301743      -0.96757244       5.78713894       33       0.00367667       0.01111073       0.01252646
O        2.07990852      -0.00935200       3.44658292       34      -0.00924974       0.01443322      -0.00005385
O        0.94419790      -2.17708367       7.17809470       35       0.00376461      -0.01637250      -0.00341279
O       -0.70212000       2.00590875       3.41882996       36       0.01669101       0.00190820      -0.00341279
O       -0.94419790      -0.79371668       5.46290231       37      -0.00376461      -0.00523069      -0.01588540
O       -0.43359063       5.30839746       1.73139053       38      -0.00367667      -0.01111073      -0.01252646
O        4.05894508       5.15056487       5.49065526       39       0.00924974       0.00716997      -0.01252646
40