40
Lattice="9.345737695134313 7.324949535814166e-10 2.1316282072803037e-14 -3.1152458990687046 8.811245998982763 -1.2687264572264365e-09 -3.115245898032818 -4.405622998758886 7.63076287495888" Properties=species:S:1:pos:R:3:spacegroup_kinds:I:1:forces:R:3 spacegroup="P 1" unit_cell=conventional occupancy="_JSON {\"0\": {\"In\": 1}, \"1\": {\"In\": 1}, \"2\": {\"In\": 1}, \"3\": {\"In\": 1}, \"4\": {\"In\": 1}, \"5\": {\"In\": 1}, \"6\": {\"In\": 1}, \"7\": {\"In\": 1}, \"8\": {\"In\": 1}, \"9\": {\"In\": 1}, \"10\": {\"In\": 1}, \"11\": {\"In\": 1}, \"12\": {\"In\": 1}, \"13\": {\"In\": 1}, \"14\": {\"In\": 1}, \"15\": {\"In\": 1}, \"16\": {\"O\": 1}, \"17\": {\"O\": 1}, \"18\": {\"O\": 1}, \"19\": {\"O\": 1}, \"20\": {\"O\": 1}, \"21\": {\"O\": 1}, \"22\": {\"O\": 1}, \"23\": {\"O\": 1}, \"24\": {\"O\": 1}, \"25\": {\"O\": 1}, \"26\": {\"O\": 1}, \"27\": {\"O\": 1}, \"28\": {\"O\": 1}, \"29\": {\"O\": 1}, \"30\": {\"O\": 1}, \"31\": {\"O\": 1}, \"32\": {\"O\": 1}, \"33\": {\"O\": 1}, \"34\": {\"O\": 1}, \"35\": {\"O\": 1}, \"36\": {\"O\": 1}, \"37\": {\"O\": 1}, \"38\": {\"O\": 1}, \"39\": {\"O\": 1}}" n_minim_iter=8 energy=-45148.33537454246 stress="0.049417720224207866 3.0266666492704046e-12 -3.4550160276191154e-13 3.0266666492704046e-12 0.049417720234018844 2.198994914925152e-12 -3.4550160276191154e-13 2.198994914925152e-12 0.04941772022841753" free_energy=-45148.33537454246 pbc="T T T"
In      -4.47761459       3.16615164       5.96220881        0      -0.00309551       0.00218886      -0.00379121
In       7.59286048       1.23947136       1.66855406        1       0.00309551      -0.00218886       0.00379121
In       1.36236869      -0.96334014       5.48393550        2       0.00309551      -0.00218886       0.00379121
In      -1.55762295      -2.20281150       3.81538144        3       0.00000000       0.00000000       0.00000000
In      -1.36236869       4.26755739       3.57624478        4      -0.00309551       0.00218886       0.00379121
In       4.86812311      -3.02808602       5.72307215        5      -0.00309551      -0.00437772      -0.00000000
In      -1.36236869       1.37753698       5.72307215        6      -0.00309551      -0.00437772      -0.00000000
In      -1.75287721       7.43370903       1.90769072        7       0.00309551       0.00437772      -0.00000000
In       4.47761458       0.13806561       4.05451809        8       0.00309551      -0.00218886      -0.00379121
In      -1.55762295       4.40562300      -0.00000000        9       0.00000000      -0.00000000       0.00000000
In       4.47761458       6.74650011       0.23913665       10       0.00309551      -0.00218886      -0.00379121
In      -1.36236869      -2.34087711       7.39162622       11      -0.00309551       0.00218886       0.00379121
In       4.47761458       3.02808603       1.90769072       12       0.00309551       0.00437772       0.00000000
In       1.75287721       5.36896314       2.14682737       13      -0.00309551       0.00218886      -0.00379121
In       4.67286885       0.00000000      -0.00000000       14      -0.00000000      -0.00000000      -0.00000000
In       1.55762295       2.20281150       3.81538143       15       0.00000000       0.00000000       0.00000000
O        1.16437392       4.44218095       4.09745225       16      -0.00118696      -0.00252409      -0.00599307
O       -1.95087198       3.53021877       5.55037663       17      -0.00118696      -0.00392810       0.00518246
O       -0.40274722       2.43552926      -0.18432839       18      -0.00647884      -0.00018618      -0.00129875
O       -1.16437393      -0.83884628       2.01706601       19       0.00118696      -0.00645219      -0.00081061
O        3.97861283       5.13804724       2.20139440       20      -0.00330780       0.00570236       0.00048814
O        2.25187897       2.86537165       1.73499520       21       0.00330780       0.00242844       0.00518246
O        2.25187897       6.67829859       0.46639920       22       0.00330780       0.00327392      -0.00469432
O       -2.43048808       6.17630514       3.63105305       23      -0.00198408       0.00617037      -0.00129874
O        3.51799312       1.97009375       7.81509126       24       0.00647884       0.00018618       0.00129874
O        5.54573397      -1.77068213       3.99970982       25       0.00198408      -0.00617037       0.00129875
O        6.63323901       3.26094306       1.61398704       26       0.00647884      -0.00121784      -0.00048814
O        3.80000372       2.25924312       4.28178063       27      -0.00198408      -0.00420993      -0.00469432
O        0.68475782       4.78132075       7.34869206       28      -0.00198408      -0.00196044       0.00599307
O        2.43048807      -0.37569775       0.28207081       29       0.00198408       0.00196044      -0.00599307
O       -3.51799312       1.14467994       6.01677583       30      -0.00647884       0.00121784       0.00048814
O        5.06611787       0.87540424       2.08038624       31       0.00118696       0.00392810      -0.00518246
O        0.86336693       1.54025136       5.89576767       32      -0.00330780      -0.00242844      -0.00518246
O        3.51799312      -0.82541381       5.83244745       33       0.00647884       0.00103166      -0.00081061
O        1.95087197      -0.03655795       3.53331062       34       0.00118696       0.00252409       0.00599307
O        0.86336693      -2.27267559       7.16436367       35      -0.00330780      -0.00327392       0.00469432
O       -0.68475783       2.14637988       3.34898223       36       0.00198408       0.00420993       0.00469432
O       -0.86336693      -0.73242424       5.42936847       37       0.00330780      -0.00570236      -0.00048814
O       -0.40274722       5.23103681       1.79831542       38      -0.00647884      -0.00103166       0.00081061
O        4.27961982       5.24446929       5.61369686       39      -0.00118696       0.00645219       0.00081061
