40
Lattice="8.769109825073667 6.872977742489192e-10 2.6645352591003978e-15 -2.923036609005878 8.267596029476456 -1.190439746778795e-09 -2.9230366080338954 -4.133798014050926 7.159948190547598" Properties=species:S:1:pos:R:3:spacegroup_kinds:I:1:forces:R:3 spacegroup="P 1" unit_cell=conventional occupancy="_JSON {\"0\": {\"In\": 1}, \"1\": {\"In\": 1}, \"2\": {\"In\": 1}, \"3\": {\"In\": 1}, \"4\": {\"In\": 1}, \"5\": {\"In\": 1}, \"6\": {\"In\": 1}, \"7\": {\"In\": 1}, \"8\": {\"In\": 1}, \"9\": {\"In\": 1}, \"10\": {\"In\": 1}, \"11\": {\"In\": 1}, \"12\": {\"In\": 1}, \"13\": {\"In\": 1}, \"14\": {\"In\": 1}, \"15\": {\"In\": 1}, \"16\": {\"O\": 1}, \"17\": {\"O\": 1}, \"18\": {\"O\": 1}, \"19\": {\"O\": 1}, \"20\": {\"O\": 1}, \"21\": {\"O\": 1}, \"22\": {\"O\": 1}, \"23\": {\"O\": 1}, \"24\": {\"O\": 1}, \"25\": {\"O\": 1}, \"26\": {\"O\": 1}, \"27\": {\"O\": 1}, \"28\": {\"O\": 1}, \"29\": {\"O\": 1}, \"30\": {\"O\": 1}, \"31\": {\"O\": 1}, \"32\": {\"O\": 1}, \"33\": {\"O\": 1}, \"34\": {\"O\": 1}, \"35\": {\"O\": 1}, \"36\": {\"O\": 1}, \"37\": {\"O\": 1}, \"38\": {\"O\": 1}, \"39\": {\"O\": 1}}" n_minim_iter=6 energy=-45151.36774866748 stress="-0.03930342571482175 -6.483164812453817e-13 -2.260006651692359e-12 -6.483164812453817e-13 -0.03930342571341184 2.2621395474861767e-12 -2.260006651692359e-12 2.2621395474861767e-12 -0.039303425709461354" free_energy=-45151.36774866748 pbc="T T T"
In      -4.19397422       2.96558762       5.60337386        0      -0.00267540       0.00189179      -0.00327668
In       7.11701083       1.16821040       1.55657432        1       0.00267540      -0.00189179       0.00327668
In       1.27093761      -0.89868860       5.13654842        2       0.00267540      -0.00189179       0.00327668
In      -1.46151831      -2.06689901       3.57997409        3       0.00000000       0.00000000      -0.00000000
In      -1.27093762       3.99903712       3.34656137        4      -0.00267540       0.00189179       0.00327668
In       4.57513560      -2.83082671       5.36996114        5      -0.00267540      -0.00378359      -0.00000000
In      -1.27093762       1.30297130       5.36996114        6      -0.00267540      -0.00378359       0.00000000
In      -1.65209900       6.96462473       1.78998704        7       0.00267540       0.00378359       0.00000000
In       4.19397422       0.13476090       3.81338681        8       0.00267540      -0.00189179      -0.00327668
In      -1.46151831       4.13379802      -0.00000000        9       0.00000000       0.00000000      -0.00000000
In       4.19397422       6.33545792       0.23341272       10       0.00267540      -0.00189179      -0.00327668
In      -1.27093762      -2.20165990       6.92653547       11      -0.00267540       0.00189179       0.00327668
In       4.19397422       2.83082672       1.78998704       12       0.00267540       0.00378359       0.00000000
In       1.65209899       5.03248662       2.02339977       13      -0.00267540       0.00189179      -0.00327668
In       4.38455491       0.00000000      -0.00000000       14       0.00000000      -0.00000000       0.00000000
In       1.46151830       2.06689901       3.57997409       15       0.00000000       0.00000000      -0.00000000
O        0.83955627       4.13076945       3.91225796       16      -0.00283324      -0.00125559      -0.00177899
O       -2.08348034       3.38962907       5.20644202       17      -0.00283324      -0.00091286       0.00197687
O       -0.42461249       2.21663236       0.07818373       18      -0.00298885      -0.00080282       0.00178629
O       -0.83955627      -0.74719751       1.95875179       19       0.00283323      -0.00216845       0.00019788
O        3.89026637       4.92613493       1.88056806       20       0.00008376       0.00319977      -0.00158841
O        1.95580684       2.90134676       1.62646793       21      -0.00008376       0.00297548       0.00197687
O        1.95580684       6.15858619       0.25410013       22      -0.00008376       0.00022428      -0.00356528
O       -2.23139852       5.86214806       3.65815782       23      -0.00023937       0.00308552       0.00178629
O        3.34764909       1.91716566       7.08176446       24       0.00298885       0.00080282      -0.00178629
O        5.15443513      -1.72835004       3.50179036       25       0.00023937      -0.00308552      -0.00178629
O        6.27068570       3.24292428       1.69940603       26       0.00298885       0.00114556       0.00158841
O        3.61467469       2.30388259       3.83407423       27      -0.00023937       0.00000421      -0.00356528
O        0.69163809       4.23536340       6.82766432       28      -0.00023937      -0.00308973       0.00177899
O        2.23139852      -0.10156538       0.33228386       29       0.00023937       0.00308973      -0.00177899
O       -3.34764909       0.89087374       5.46054216       30      -0.00298885      -0.00114556      -0.00158841
O        5.00651695       0.74416895       1.95350616       31       0.00283324       0.00091286      -0.00197687
O        0.96722977       1.23245126       5.53348026       32       0.00008376      -0.00297549      -0.00197687
O        3.34764909      -1.02629192       5.53872589       33       0.00298885      -0.00194838       0.00019788
O        2.08348034       0.00302857       3.24769023       34       0.00283324       0.00125559       0.00177899
O        0.96722977      -2.02478817       6.90584805       35       0.00008376      -0.00022428       0.00356528
O       -0.69163809       1.82991543       3.32587396       36       0.00023937      -0.00000421       0.00356528
O       -0.96722977      -0.79233691       5.27938012       37      -0.00008376      -0.00319977       0.00158841
O       -0.42461249       5.16008994       1.62122230       38      -0.00298885       0.00194838      -0.00019788
O        3.76259288       4.88099553       5.20119639       39      -0.00283324       0.00216845      -0.00019788
