40
Lattice="8.84536678159466 6.932765472811298e-10 1.3322676295501878e-15 -2.948455594518513 8.33949177756599 -1.200788357635929e-09 -2.9484555935380756 -4.169745888089722 7.222211734824117" Properties=species:S:1:pos:R:3:spacegroup_kinds:I:1:forces:R:3 spacegroup="P 1" unit_cell=conventional occupancy="_JSON {\"0\": {\"In\": 1}, \"1\": {\"In\": 1}, \"2\": {\"In\": 1}, \"3\": {\"In\": 1}, \"4\": {\"In\": 1}, \"5\": {\"In\": 1}, \"6\": {\"In\": 1}, \"7\": {\"In\": 1}, \"8\": {\"In\": 1}, \"9\": {\"In\": 1}, \"10\": {\"In\": 1}, \"11\": {\"In\": 1}, \"12\": {\"In\": 1}, \"13\": {\"In\": 1}, \"14\": {\"In\": 1}, \"15\": {\"In\": 1}, \"16\": {\"O\": 1}, \"17\": {\"O\": 1}, \"18\": {\"O\": 1}, \"19\": {\"O\": 1}, \"20\": {\"O\": 1}, \"21\": {\"O\": 1}, \"22\": {\"O\": 1}, \"23\": {\"O\": 1}, \"24\": {\"O\": 1}, \"25\": {\"O\": 1}, \"26\": {\"O\": 1}, \"27\": {\"O\": 1}, \"28\": {\"O\": 1}, \"29\": {\"O\": 1}, \"30\": {\"O\": 1}, \"31\": {\"O\": 1}, \"32\": {\"O\": 1}, \"33\": {\"O\": 1}, \"34\": {\"O\": 1}, \"35\": {\"O\": 1}, \"36\": {\"O\": 1}, \"37\": {\"O\": 1}, \"38\": {\"O\": 1}, \"39\": {\"O\": 1}}" n_minim_iter=1 energy=-45151.759223384026 stress="-0.022603728865499377 -8.207204870904194e-12 2.215553807986737e-12 -8.207204870904194e-12 -0.022603728861612483 -1.1641288784419142e-12 2.215553807986737e-12 -1.1641288784419142e-12 -0.022603728862083075" free_energy=-45151.759223384026 pbc="T T T"
In      -4.22310179       2.98618391       5.66109535        0      -0.07317372       0.05174163      -0.08961913
In       7.17155738       1.18356198       1.56111638        1       0.07317372      -0.05174163       0.08961913
In       1.27464619      -0.90131096       5.17222225        2       0.07317372      -0.05174163       0.08961913
In      -1.47422780      -2.08487294       3.61110587        3       0.00000000      -0.00000000      -0.00000000
In      -1.27464619       4.02862038       3.36666931        4      -0.07317372       0.05174163       0.08961913
In       4.62226500      -2.84505840       5.41665880        5      -0.07317372      -0.10348326      -0.00000000
In      -1.27464619       1.32468749       5.41665880        6      -0.07317372      -0.10348326      -0.00000000
In      -1.67380941       7.01480429       1.80555293        7       0.07317372       0.10348326      -0.00000000
In       4.22310178       0.14112551       3.85554241        8       0.07317372      -0.05174163      -0.08961913
In      -1.47422780       4.16974589      -0.00000000        9       0.00000000      -0.00000000       0.00000000
In       4.22310178       6.39574434       0.24443655       10       0.07317372      -0.05174163      -0.08961913
In      -1.27464619      -2.22599845       6.97777518       11      -0.07317372       0.05174163       0.08961913
In       4.22310178       2.84505840       1.80555293       12       0.07317372       0.10348326      -0.00000000
In       1.67380940       5.07105685       2.04998948       13      -0.07317372       0.05174163      -0.08961913
In       4.42268339       0.00000000      -0.00000000       14      -0.00000000       0.00000000      -0.00000000
In       1.47422780       2.08487295       3.61110586       15       0.00000000      -0.00000000       0.00000000
O        0.86938789       4.17031683       3.92885418       16      -0.01551024       0.00772305       0.09982315
O       -2.07906771       3.40220206       5.25729019       17      -0.01551024       0.08258786      -0.05659993
O       -0.43331301       2.23847775       0.05070808       18       0.07997586       0.01506899       0.06034618
O       -0.86938789      -0.76697289       1.96393264       19       0.01551024       0.09031091       0.04322321
O        3.90064943       4.96599510       1.91322456       20       0.08303466      -0.05547003      -0.01712296
O        1.99626176       2.91096942       1.64618432       21      -0.08303466      -0.01290609      -0.05659993
O        1.99626176       6.22477157       0.26704023       22      -0.08303466      -0.04256393       0.03947697
O       -2.25489474       5.91699101       3.66181394       23       0.01245144      -0.08042496       0.06034617
O        3.38176860       1.93126814       7.17150365       24      -0.07997586      -0.01506899      -0.06034618
O        5.20335033      -1.74724512       3.56039779       25      -0.01245144       0.08042496      -0.06034618
O        6.33022420       3.24802631       1.69788130       26      -0.07997586       0.05979581       0.01712296
O        3.64201645       2.29760134       3.87814610       27       0.01245144       0.09247380       0.03947697
O        0.69356086       4.29464532       6.90446342       28       0.01245144      -0.01204884      -0.09982315
O        2.25489473      -0.12489943       0.31774831       29      -0.01245144       0.01204884       0.09982315
O       -3.38176861       0.92171959       5.52433043       30       0.07997586      -0.05979582      -0.01712296
O        5.02752330       0.76754384       1.96492154       31       0.01551024      -0.08258786       0.05659993
O        0.95219383       1.25877647       5.57602741       32       0.08303466       0.01290609       0.05659993
O        3.38176860      -1.00954855       5.57503850       33      -0.07997586      -0.04472683       0.04322321
O        2.07906770      -0.00057094       3.29335755       34       0.01551024      -0.00772305      -0.09982315
O        0.95219383      -2.05502568       6.95517150       35       0.08303465       0.04256393      -0.03947697
O       -0.69356086       1.87214455       3.34406563       36      -0.01245144      -0.09247380      -0.03947697
O       -0.95219384      -0.79624921       5.30898717       37      -0.08303466       0.05547003       0.01712296
O       -0.43331301       5.17929444       1.64717323       38       0.07997586       0.04472683      -0.04322321
O        3.81784348       4.93671878       5.25827909       39      -0.01551024      -0.09031091      -0.04322321
40
Lattice="8.845366781594663 6.9327654728113e-10 1.3322676295501928e-15 -2.948455594518514 8.339491777565993 -1.2007883576359295e-09 -2.9484555935380765 -4.169745888089723 7.22221173482412" Properties=species:S:1:pos:R:3:spacegroup_kinds:I:1:forces:R:3 spacegroup="P 1" unit_cell=conventional occupancy="_JSON {\"0\": {\"In\": 1}, \"1\": {\"In\": 1}, \"2\": {\"In\": 1}, \"3\": {\"In\": 1}, \"4\": {\"In\": 1}, \"5\": {\"In\": 1}, \"6\": {\"In\": 1}, \"7\": {\"In\": 1}, \"8\": {\"In\": 1}, \"9\": {\"In\": 1}, \"10\": {\"In\": 1}, \"11\": {\"In\": 1}, \"12\": {\"In\": 1}, \"13\": {\"In\": 1}, \"14\": {\"In\": 1}, \"15\": {\"In\": 1}, \"16\": {\"O\": 1}, \"17\": {\"O\": 1}, \"18\": {\"O\": 1}, \"19\": {\"O\": 1}, \"20\": {\"O\": 1}, \"21\": {\"O\": 1}, \"22\": {\"O\": 1}, \"23\": {\"O\": 1}, \"24\": {\"O\": 1}, \"25\": {\"O\": 1}, \"26\": {\"O\": 1}, \"27\": {\"O\": 1}, \"28\": {\"O\": 1}, \"29\": {\"O\": 1}, \"30\": {\"O\": 1}, \"31\": {\"O\": 1}, \"32\": {\"O\": 1}, \"33\": {\"O\": 1}, \"34\": {\"O\": 1}, \"35\": {\"O\": 1}, \"36\": {\"O\": 1}, \"37\": {\"O\": 1}, \"38\": {\"O\": 1}, \"39\": {\"O\": 1}}" n_minim_iter=2 energy=-45151.77053635143 stress="-0.020985335678360337 3.124621771998406e-12 -3.5231257999182704e-12 3.124621771998406e-12 -0.02098533567262418 3.5653823632414746e-12 -3.5231257999182704e-12 3.5653823632414746e-12 -0.020985335674913185" free_energy=-45151.77053635143 pbc="T T T"
In      -4.22688144       2.98885653       5.65646623        0       0.00492591      -0.00348314       0.00603298
In       7.17533704       1.18088936       1.56574550        1      -0.00492590       0.00348314      -0.00603298
In       1.27842585      -0.90398358       5.17685137        2      -0.00492591       0.00348314      -0.00603298
In      -1.47422780      -2.08487294       3.61110587        3      -0.00000000       0.00000000      -0.00000000
In      -1.27842585       4.03129301       3.37129843        4       0.00492590      -0.00348314      -0.00603298
In       4.61848534      -2.85040364       5.41665880        5       0.00492591       0.00696628      -0.00000000
In      -1.27842585       1.31934224       5.41665880        6       0.00492591       0.00696628       0.00000000
In      -1.67002975       7.02014954       1.80555293        7      -0.00492590      -0.00696628       0.00000000
In       4.22688144       0.13845289       3.85091330        8      -0.00492591       0.00348314       0.00603298
In      -1.47422780       4.16974589      -0.00000000        9      -0.00000000      -0.00000000       0.00000000
In       4.22688144       6.39307172       0.23980743       10      -0.00492591       0.00348314       0.00603298
In      -1.27842585      -2.22332583       6.98240430       11       0.00492590      -0.00348314      -0.00603298
In       4.22688144       2.85040365       1.80555293       12      -0.00492591      -0.00696628      -0.00000000
In       1.67002974       5.07372948       2.04536036       13       0.00492590      -0.00348314       0.00603298
In       4.42268339       0.00000000      -0.00000000       14      -0.00000000      -0.00000000       0.00000000
In       1.47422780       2.08487295       3.61110586       15      -0.00000000      -0.00000000       0.00000000
O        0.86858673       4.17071576       3.93401037       16      -0.04223758      -0.02713918       0.00009901
O       -2.07986886       3.40646799       5.25436662       17      -0.04223758       0.01365534       0.02345371
O       -0.42918200       2.23925612       0.05382515       18      -0.02679188       0.00273358       0.04237075
O       -0.86858674      -0.76230804       1.96616526       19       0.04223758      -0.01348384       0.02355272
O        3.90493843       4.96312990       1.91234010       20       0.02695357       0.03794660      -0.01881803
O        1.99197275       2.91030278       1.64326075       21      -0.02695357       0.03527019       0.02345371
O        1.99197275       6.22257300       0.26907935       22      -0.02695357       0.00267641      -0.04227174
O       -2.25425158       5.91283680       3.66493102       23      -0.01150787       0.02434843       0.04237075
O        3.37763759       1.93048978       7.16838658       24       0.02679188      -0.00273358      -0.04237075
O        5.20270717      -1.74309091       3.55728071       25       0.01150787      -0.02434843      -0.04237075
O        6.32609319       3.25111495       1.69876576       26       0.02679188       0.03806094       0.01881803
O        3.64265961       2.30237791       3.88018521       27      -0.01150787       0.02451993      -0.04227174
O        0.69420401       4.29402296       6.89930723       28      -0.01150787      -0.04886836      -0.00009901
O        2.25425158      -0.12427707       0.32290450       29       0.01150787       0.04886836       0.00009901
O       -3.37763759       0.91863094       5.52344597       30      -0.02679188      -0.03806094      -0.01881803
O        5.02832445       0.76327790       1.96784511       31       0.04223758      -0.01365534      -0.02345371
O        0.95648284       1.25944311       5.57895098       32       0.02695357      -0.03527019      -0.02345371
O        3.37763759      -1.01185883       5.57727112       33       0.02679188      -0.03532736       0.02355272
O        2.07986886      -0.00096986       3.28820136       34       0.04223758       0.02713918      -0.00009901
O        0.95648284      -2.05282711       6.95313238       35       0.02695357      -0.00267641       0.04227174
O       -0.69420402       1.86736798       3.34202652       36       0.01150787      -0.02451993       0.04227174
O       -0.95648284      -0.79338400       5.30987163       37      -0.02695357      -0.03794660       0.01881803
O       -0.42918200       5.18160473       1.64494061       38      -0.02679188       0.03532736      -0.02355272
O        3.81704233       4.93205393       5.25604647       39      -0.04223758       0.01348384      -0.02355272
40
Lattice="8.845366781594668 6.9327654728113e-10 1.3322676295502038e-15 -2.948455594518516 8.339491777565991 -1.2007883576359299e-09 -2.9484555935380783 -4.1697458880897225 7.222211734824125" Properties=species:S:1:pos:R:3:spacegroup_kinds:I:1:forces:R:3 spacegroup="P 1" unit_cell=conventional occupancy="_JSON {\"0\": {\"In\": 1}, \"1\": {\"In\": 1}, \"2\": {\"In\": 1}, \"3\": {\"In\": 1}, \"4\": {\"In\": 1}, \"5\": {\"In\": 1}, \"6\": {\"In\": 1}, \"7\": {\"In\": 1}, \"8\": {\"In\": 1}, \"9\": {\"In\": 1}, \"10\": {\"In\": 1}, \"11\": {\"In\": 1}, \"12\": {\"In\": 1}, \"13\": {\"In\": 1}, \"14\": {\"In\": 1}, \"15\": {\"In\": 1}, \"16\": {\"O\": 1}, \"17\": {\"O\": 1}, \"18\": {\"O\": 1}, \"19\": {\"O\": 1}, \"20\": {\"O\": 1}, \"21\": {\"O\": 1}, \"22\": {\"O\": 1}, \"23\": {\"O\": 1}, \"24\": {\"O\": 1}, \"25\": {\"O\": 1}, \"26\": {\"O\": 1}, \"27\": {\"O\": 1}, \"28\": {\"O\": 1}, \"29\": {\"O\": 1}, \"30\": {\"O\": 1}, \"31\": {\"O\": 1}, \"32\": {\"O\": 1}, \"33\": {\"O\": 1}, \"34\": {\"O\": 1}, \"35\": {\"O\": 1}, \"36\": {\"O\": 1}, \"37\": {\"O\": 1}, \"38\": {\"O\": 1}, \"39\": {\"O\": 1}}" n_minim_iter=3 energy=-45151.77569787946 stress="-0.020348482822356115 7.865194967984428e-13 -6.7342784184501676e-12 7.865194967984428e-13 -0.020348482822237165 4.634600832435621e-13 -6.7342784184501676e-12 4.634600832435621e-13 -0.020348482822889234" free_energy=-45151.77569787946 pbc="T T T"
In      -4.22761818       2.98937748       5.65556392        0      -0.00673135       0.00475978      -0.00824418
In       7.17607377       1.18036841       1.56664781        1       0.00673135      -0.00475978       0.00824418
In       1.27916258      -0.90450453       5.17775368        2       0.00673135      -0.00475978       0.00824418
In      -1.47422780      -2.08487294       3.61110587        3      -0.00000000       0.00000000      -0.00000000
In      -1.27916258       4.03181395       3.37220074        4      -0.00673135       0.00475978       0.00824418
In       4.61774860      -2.85144554       5.41665880        5      -0.00673135      -0.00951956      -0.00000000
In      -1.27916258       1.31830035       5.41665880        6      -0.00673135      -0.00951956      -0.00000000
In      -1.66929301       7.02119143       1.80555293        7       0.00673135       0.00951956       0.00000000
In       4.22761817       0.13793194       3.85001099        8       0.00673135      -0.00475978      -0.00824418
In      -1.47422780       4.16974589      -0.00000000        9       0.00000000       0.00000000      -0.00000000
In       4.22761817       6.39255077       0.23890512       10       0.00673135      -0.00475978      -0.00824418
In      -1.27916258      -2.22280488       6.98330661       11      -0.00673135       0.00475978       0.00824418
In       4.22761817       2.85144555       1.80555293       12       0.00673135       0.00951956       0.00000000
In       1.66929301       5.07425043       2.04445805       13      -0.00673135       0.00475978      -0.00824418
In       4.42268339       0.00000000      -0.00000000       14       0.00000000      -0.00000000      -0.00000000
In       1.47422780       2.08487295       3.61110586       15      -0.00000000       0.00000000      -0.00000000
O        0.86111567       4.16629467       3.93616785       16      -0.02234066       0.03903366      -0.00105500
O       -2.08733992       3.41054697       5.25711665       17      -0.02234066      -0.02043049      -0.03327664
O       -0.43199489       2.24004127       0.06228025       18       0.01009235      -0.04336409       0.00644553
O       -0.86111567      -0.76265014       1.97107277       19       0.02234066       0.01860317      -0.03433164
O        3.91127449       4.96835355       1.90879252       20      -0.01181516      -0.01488184      -0.04077717
O        1.98563669       2.91598691       1.64601078       21       0.01181516       0.02787314      -0.03327664
O        1.98563669       6.22211253       0.26278173       22       0.01181516      -0.04275499      -0.00750053
O       -2.25592946       5.91522710       3.67338612       23       0.04424817       0.00493954       0.00644553
O        3.38045048       1.92970462       7.15993148       24      -0.01009235       0.04336409      -0.00644553
O        5.20438505      -1.74548121       3.54882561       25      -0.04424817      -0.00493954      -0.00644553
O        6.32890608       3.25882986       1.70231335       26      -0.01009235      -0.01610006       0.04077717
O        3.64098173       2.30850509       3.87388760       27       0.04424818       0.00311222      -0.00750053
O        0.69252613       4.28550548       6.89714974       28       0.04424818      -0.00805176       0.00105500
O        2.25592946      -0.11575958       0.32506199       29      -0.04424817       0.00805176      -0.00105500
O       -3.38045049       0.91091603       5.51989838       30       0.01009235       0.01610006      -0.04077717
O        5.03579552       0.75919892       1.96509508       31       0.02234066       0.02043049       0.03327664
O        0.96281890       1.25375898       5.57620095       32      -0.01181516      -0.02787314       0.03327664
O        3.38045048      -1.01878859       5.58217864       33      -0.01009235      -0.02726404      -0.03433164
O        2.08733992       0.00345122       3.28604388       34       0.02234066      -0.03903366       0.00105500
O        0.96281890      -2.05236664       6.95943000       35      -0.01181516       0.04275499       0.00750053
O       -0.69252614       1.86124080       3.34832413       36      -0.04424817      -0.00311222       0.00750053
O       -0.96281890      -0.79860766       5.31341921       37       0.01181516       0.01488184       0.04077717
O       -0.43199489       5.18853448       1.64003309       38       0.01009235       0.02726404       0.03433164
O        3.80957126       4.93239603       5.25113896       39      -0.02234066      -0.01860317       0.03433164
40
Lattice="8.845366781594677 6.932765472811305e-10 1.332267629550196e-15 -2.9484555945185185 8.339491777565996 -1.200788357635931e-09 -2.948455593538081 -4.169745888089725 7.222211734824132" Properties=species:S:1:pos:R:3:spacegroup_kinds:I:1:forces:R:3 spacegroup="P 1" unit_cell=conventional occupancy="_JSON {\"0\": {\"In\": 1}, \"1\": {\"In\": 1}, \"2\": {\"In\": 1}, \"3\": {\"In\": 1}, \"4\": {\"In\": 1}, \"5\": {\"In\": 1}, \"6\": {\"In\": 1}, \"7\": {\"In\": 1}, \"8\": {\"In\": 1}, \"9\": {\"In\": 1}, \"10\": {\"In\": 1}, \"11\": {\"In\": 1}, \"12\": {\"In\": 1}, \"13\": {\"In\": 1}, \"14\": {\"In\": 1}, \"15\": {\"In\": 1}, \"16\": {\"O\": 1}, \"17\": {\"O\": 1}, \"18\": {\"O\": 1}, \"19\": {\"O\": 1}, \"20\": {\"O\": 1}, \"21\": {\"O\": 1}, \"22\": {\"O\": 1}, \"23\": {\"O\": 1}, \"24\": {\"O\": 1}, \"25\": {\"O\": 1}, \"26\": {\"O\": 1}, \"27\": {\"O\": 1}, \"28\": {\"O\": 1}, \"29\": {\"O\": 1}, \"30\": {\"O\": 1}, \"31\": {\"O\": 1}, \"32\": {\"O\": 1}, \"33\": {\"O\": 1}, \"34\": {\"O\": 1}, \"35\": {\"O\": 1}, \"36\": {\"O\": 1}, \"37\": {\"O\": 1}, \"38\": {\"O\": 1}, \"39\": {\"O\": 1}}" n_minim_iter=4 energy=-45151.77743180643 stress="-0.01967879105343767 4.937215157020137e-12 -1.7341017942928798e-12 4.937215157020137e-12 -0.019678791051850417 -3.146688372336607e-12 -1.7341017942928798e-12 -3.146688372336607e-12 -0.0196787910497121" free_energy=-45151.77743180643 pbc="T T T"
In      -4.22909902       2.99042460       5.65375026        0       0.01095876      -0.00774902       0.01342169
In       7.17755461       1.17932130       1.56846147        1      -0.01095876       0.00774902      -0.01342169
In       1.28064343      -0.90555165       5.17956733        2      -0.01095876       0.00774901      -0.01342169
In      -1.47422780      -2.08487294       3.61110587        3      -0.00000000       0.00000000       0.00000000
In      -1.28064343       4.03286107       3.37401440        4       0.01095876      -0.00774901      -0.01342169
In       4.61626776      -2.85353977       5.41665880        5       0.01095876       0.01549803       0.00000000
In      -1.28064343       1.31620612       5.41665880        6       0.01095876       0.01549803       0.00000000
In      -1.66781217       7.02328567       1.80555293        7      -0.01095876      -0.01549803       0.00000000
In       4.22909902       0.13688482       3.84819733        8      -0.01095876       0.00774901       0.01342169
In      -1.47422780       4.16974589      -0.00000000        9      -0.00000000       0.00000000      -0.00000000
In       4.22909902       6.39150366       0.23709146       10      -0.01095876       0.00774901       0.01342169
In      -1.28064343      -2.22175776       6.98512027       11       0.01095876      -0.00774902      -0.01342169
In       4.22909902       2.85353978       1.80555293       12      -0.01095876      -0.01549803      -0.00000000
In       1.66781217       5.07529754       2.04264440       13       0.01095876      -0.00774901       0.01342169
In       4.42268339       0.00000000      -0.00000000       14       0.00000000       0.00000000       0.00000000
In       1.47422780       2.08487295       3.61110586       15      -0.00000000      -0.00000000      -0.00000000
O        0.85688594       4.16723948       3.93795974       16      -0.01618857       0.00994797      -0.02950531
O       -2.09156965       3.41162639       5.25540248       17      -0.01618857      -0.03052633       0.00613746
O       -0.43149635       2.23777729       0.06635701       18      -0.02479766      -0.02443879      -0.00440648
O       -0.85688594      -0.76062592       1.97115049       19       0.01618857      -0.02057837      -0.02336785
O        3.91370208       4.96868305       1.90479347       20      -0.02338432       0.01803428      -0.01896137
O        1.98320910       2.91961493       1.64429661       21       0.02338432       0.02543817       0.00613746
O        1.98320910       6.21881401       0.26049686       22       0.02338431      -0.00740389      -0.02509884
O       -2.25362878       5.91551173       3.67746288       23       0.01477523       0.03152572      -0.00440648
O        3.37995194       1.93196860       7.15585472       24       0.02479766       0.02443879       0.00440648
O        5.20208437      -1.74576583       3.54474885       25      -0.01477522      -0.03152572       0.00440648
O        6.32840753       3.26122845       1.70631239       26       0.02479766      -0.01603552       0.01896137
O        3.64328241       2.31189336       3.87160273       27       0.01477522      -0.01957898      -0.02509884
O        0.69482681       4.28183259       6.89535785       28       0.01477522      -0.01194674       0.02950531
O        2.25362878      -0.11208669       0.32685387       29      -0.01477522       0.01194674      -0.02950531
O       -3.37995194       0.90851744       5.51589934       30      -0.02479766       0.01603552      -0.01896137
O        5.04002525       0.75811951       1.96680925       31       0.01618857       0.03052634      -0.00613746
O        0.96524649       1.25013096       5.57791512       32      -0.02338432      -0.02543817      -0.00613746
O        3.37995194      -1.02345116       5.58225635       33       0.02479766      -0.00840327      -0.02336785
O        2.09156965       0.00250641       3.28425199       34       0.01618857      -0.00994797       0.02950531
O        0.96524649      -2.04906811       6.96171487       35      -0.02338432       0.00740389       0.02509884
O       -0.69482682       1.85785253       3.35060900       36      -0.01477522       0.01957898       0.02509884
O       -0.96524649      -0.79893716       5.31741826       37       0.02338432      -0.01803428       0.01896137
O       -0.43149635       5.19319705       1.63995537       38      -0.02479766       0.00840327       0.02336785
O        3.80534153       4.93037181       5.25106124       39      -0.01618857       0.02057837       0.02336785
40
Lattice="8.84536678159468 6.932765472811308e-10 1.332267629550189e-15 -2.94845559451852 8.339491777566 -1.2007883576359315e-09 -2.9484555935380823 -4.169745888089727 7.222211734824135" Properties=species:S:1:pos:R:3:spacegroup_kinds:I:1:forces:R:3 spacegroup="P 1" unit_cell=conventional occupancy="_JSON {\"0\": {\"In\": 1}, \"1\": {\"In\": 1}, \"2\": {\"In\": 1}, \"3\": {\"In\": 1}, \"4\": {\"In\": 1}, \"5\": {\"In\": 1}, \"6\": {\"In\": 1}, \"7\": {\"In\": 1}, \"8\": {\"In\": 1}, \"9\": {\"In\": 1}, \"10\": {\"In\": 1}, \"11\": {\"In\": 1}, \"12\": {\"In\": 1}, \"13\": {\"In\": 1}, \"14\": {\"In\": 1}, \"15\": {\"In\": 1}, \"16\": {\"O\": 1}, \"17\": {\"O\": 1}, \"18\": {\"O\": 1}, \"19\": {\"O\": 1}, \"20\": {\"O\": 1}, \"21\": {\"O\": 1}, \"22\": {\"O\": 1}, \"23\": {\"O\": 1}, \"24\": {\"O\": 1}, \"25\": {\"O\": 1}, \"26\": {\"O\": 1}, \"27\": {\"O\": 1}, \"28\": {\"O\": 1}, \"29\": {\"O\": 1}, \"30\": {\"O\": 1}, \"31\": {\"O\": 1}, \"32\": {\"O\": 1}, \"33\": {\"O\": 1}, \"34\": {\"O\": 1}, \"35\": {\"O\": 1}, \"36\": {\"O\": 1}, \"37\": {\"O\": 1}, \"38\": {\"O\": 1}, \"39\": {\"O\": 1}}" n_minim_iter=5 energy=-45151.77858063995 stress="-0.019866320588507128 -2.6641300485959627e-13 8.77820527188547e-13 -2.6641300485959627e-13 -0.01986632059171548 -4.1811007176171403e-13 8.77820527188547e-13 -4.1811007176171403e-13 -0.01986632059136894" free_energy=-45151.77858063995 pbc="T T T"
In      -4.22869565       2.99013937       5.65424429        0      -0.00846237       0.00598380      -0.01036424
In       7.17715124       1.17960652       1.56796744        1       0.00846237      -0.00598380       0.01036424
In       1.28024006      -0.90526642       5.17907331        2       0.00846237      -0.00598380       0.01036424
In      -1.47422780      -2.08487294       3.61110587        3       0.00000000       0.00000000      -0.00000000
In      -1.28024006       4.03257584       3.37352038        4      -0.00846237       0.00598380       0.01036424
In       4.61667113      -2.85296932       5.41665880        5      -0.00846237      -0.01196759      -0.00000000
In      -1.28024006       1.31677657       5.41665880        6      -0.00846237      -0.01196759       0.00000000
In      -1.66821554       7.02271522       1.80555293        7       0.00846237       0.01196759       0.00000000
In       4.22869565       0.13717005       3.84869135        8       0.00846237      -0.00598380      -0.01036424
In      -1.47422780       4.16974589      -0.00000000        9      -0.00000000       0.00000000       0.00000000
In       4.22869565       6.39178888       0.23758549       10       0.00846237      -0.00598380      -0.01036424
In      -1.28024006      -2.22204299       6.98462624       11      -0.00846237       0.00598380       0.01036424
In       4.22869565       2.85296933       1.80555293       12       0.00846237       0.01196759      -0.00000000
In       1.66821553       5.07501232       2.04313842       13      -0.00846237       0.00598380      -0.01036424
In       4.42268339       0.00000000      -0.00000000       14      -0.00000000      -0.00000000       0.00000000
In       1.47422780       2.08487295       3.61110586       15       0.00000000       0.00000000      -0.00000000
O        0.85403553       4.16816976       3.93681387       16       0.00074623      -0.00155015      -0.00730151
O       -2.09442006       3.41016889       5.25516976       17       0.00074623      -0.00554822       0.00499323
O       -0.43294354       2.23532758       0.06784288       18      -0.00644367      -0.00046420      -0.00381256
O       -0.85403553      -0.76115312       1.96977190       19      -0.00074623      -0.00709837      -0.00230829
O        3.91327808       4.97006812       1.90192902       20      -0.00547965       0.00489719       0.00150427
O        1.98363310       2.92278815       1.64406389       21       0.00547965       0.00114586       0.00499323
O        1.98363310       6.21702586       0.25786513       22       0.00547965       0.00375133      -0.00348896
O       -2.25180156       5.91769273       3.67894874       23      -0.00171024       0.00622988      -0.00381256
O        3.38139913       1.93441832       7.15436885       24       0.00644367       0.00046420       0.00381256
O        5.20025715      -1.74794683       3.54326299       25       0.00171024      -0.00622988       0.00381256
O        6.32985472       3.26129039       1.70917684       26       0.00644367      -0.00353387      -0.00150427
O        3.64510963       2.31208966       3.86897099       27      -0.00171024      -0.00641671      -0.00348896
O        0.69665403       4.27945529       6.89650372       28      -0.00171024       0.00018683       0.00730151
O        2.25180156      -0.10970940       0.32570801       29       0.00171024      -0.00018683      -0.00730151
O       -3.38139913       0.90845550       5.51303489       30      -0.00644367       0.00353387       0.00150427
O        5.04287565       0.75957700       1.96704197       31      -0.00074623       0.00554822      -0.00499323
O        0.96482249       1.24695774       5.57814784       32      -0.00547965      -0.00114586      -0.00499323
O        3.38139913      -1.02596281       5.58087777       33       0.00644367       0.00306967      -0.00230828
O        2.09442006       0.00157613       3.28539786       34      -0.00074623       0.00155015       0.00730151
O        0.96482249      -2.04727997       6.96434660       35      -0.00547965      -0.00375133       0.00348896
O       -0.69665404       1.85765624       3.35324073       36       0.00171024       0.00641671       0.00348896
O       -0.96482249      -0.80032223       5.32028271       37       0.00547965      -0.00489719      -0.00150427
O       -0.43294354       5.19570870       1.64133396       38      -0.00644367      -0.00306967       0.00230829
O        3.80249113       4.93089902       5.25243983       39       0.00074623       0.00709837       0.00230829
40