40
Lattice="9.137985450563528 7.1620798181016e-10 1.2434497875801777e-14 -3.0459951508630914 8.615375304397908 -1.2405219074196382e-09 -3.0459951498502287 -4.307687651482738 7.461133877572683" Properties=species:S:1:pos:R:3:spacegroup_kinds:I:1:forces:R:3 spacegroup="P 1" unit_cell=conventional occupancy="_JSON {\"0\": {\"In\": 1}, \"1\": {\"In\": 1}, \"2\": {\"In\": 1}, \"3\": {\"In\": 1}, \"4\": {\"In\": 1}, \"5\": {\"In\": 1}, \"6\": {\"In\": 1}, \"7\": {\"In\": 1}, \"8\": {\"In\": 1}, \"9\": {\"In\": 1}, \"10\": {\"In\": 1}, \"11\": {\"In\": 1}, \"12\": {\"In\": 1}, \"13\": {\"In\": 1}, \"14\": {\"In\": 1}, \"15\": {\"In\": 1}, \"16\": {\"O\": 1}, \"17\": {\"O\": 1}, \"18\": {\"O\": 1}, \"19\": {\"O\": 1}, \"20\": {\"O\": 1}, \"21\": {\"O\": 1}, \"22\": {\"O\": 1}, \"23\": {\"O\": 1}, \"24\": {\"O\": 1}, \"25\": {\"O\": 1}, \"26\": {\"O\": 1}, \"27\": {\"O\": 1}, \"28\": {\"O\": 1}, \"29\": {\"O\": 1}, \"30\": {\"O\": 1}, \"31\": {\"O\": 1}, \"32\": {\"O\": 1}, \"33\": {\"O\": 1}, \"34\": {\"O\": 1}, \"35\": {\"O\": 1}, \"36\": {\"O\": 1}, \"37\": {\"O\": 1}, \"38\": {\"O\": 1}, \"39\": {\"O\": 1}}" n_minim_iter=8 energy=-45150.89611044818 stress="0.04643391675694766 -2.541548038478403e-12 4.542037314249167e-12 -2.541548038478403e-12 0.046433916755484354 4.779295764448777e-12 4.542037314249167e-12 4.779295764448777e-12 0.046433916762977596" free_energy=-45150.89611044818 pbc="T T T"
In      -4.33913872       3.06823442       5.87736292        0      -0.00189207       0.00133790      -0.00231731
In       7.38513387       1.23945324       1.58377095        1       0.00189207      -0.00133790       0.00231731
In       1.29314357      -0.91439059       5.31433789        2       0.00189207      -0.00133790       0.00231731
In      -1.52299758      -2.15384382       3.73056694        3       0.00000000       0.00000000       0.00000000
In      -1.29314357       4.14515633       3.44905442        4      -0.00189207       0.00133790       0.00231731
In       4.79884673      -2.90570309       5.59585041        5      -0.00189207      -0.00267579      -0.00000000
In      -1.29314357       1.40198457       5.59585041        6      -0.00189207      -0.00267579       0.00000000
In      -1.75285158       7.21339074       1.86528347        7       0.00189207       0.00267579       0.00000000
In       4.33913872       0.16253133       4.01207945        8       0.00189207      -0.00133790      -0.00231730
In      -1.52299758       4.30768765      -0.00000000        9      -0.00000000      -0.00000000       0.00000000
In       4.33913872       6.62406281       0.28151251       10       0.00189207      -0.00133790      -0.00231731
In      -1.29314357      -2.31637515       7.17962136       11      -0.00189207       0.00133790       0.00231731
In       4.33913872       2.90570309       1.86528347       12       0.00189207       0.00267579      -0.00000000
In       1.75285158       5.22207824       2.14679598       13      -0.00189207       0.00133790      -0.00231731
In       4.56899272       0.00000000      -0.00000000       14       0.00000000       0.00000000       0.00000000
In       1.52299757       2.15384383       3.73056694       15       0.00000000       0.00000000       0.00000000
O        0.97118620       4.31495861       4.04347438       16       0.00067866       0.00309623      -0.00512765
O       -2.07480895       3.49811606       5.43309985       17       0.00067866      -0.00598879      -0.00011758
O       -0.43268756       2.33696089      -0.01685428       18      -0.00250091      -0.00374049      -0.00401175
O       -0.97118620      -0.80230064       2.01544036       19      -0.00067866      -0.00289256      -0.00524524
O        3.98965843       5.10025747       2.03229463       20      -0.00587251       0.00057638      -0.00123348
O        2.10233187       2.94395378       1.70253291       21       0.00587250       0.00135642      -0.00011758
O        2.10233187       6.46399135       0.32976172       22       0.00587250      -0.00078004      -0.00111590
O       -2.34753705       6.09048626       3.71371266       23       0.00269293       0.00360471      -0.00401175
O        3.47868271       1.97072677       7.47798815       24       0.00250091       0.00374049       0.00401175
O        5.39353219      -1.78279861       3.74742121       25      -0.00269293      -0.00360471       0.00401175
O        6.52467786       3.30772804       1.69827230       26       0.00250091      -0.00534453       0.00123348
O        3.74445325       2.32477021       4.06032866       27       0.00269293      -0.00527664      -0.00111590
O        0.69845810       4.50780650       7.14822643       28       0.00269293       0.00167192       0.00512765
O        2.34753704      -0.20011884       0.31290744       29      -0.00269293      -0.00167192      -0.00512765
O       -3.47868271       0.99995962       5.76286157       30      -0.00250091       0.00534453      -0.00123348
O        5.12080410       0.80957160       2.02803402       31      -0.00067866       0.00598879       0.00011758
O        0.94366328       1.36373388       5.75860096       32      -0.00587250      -0.00135642       0.00011758
O        3.47868271      -0.97076715       5.74600730       33       0.00250091       0.00160404      -0.00524524
O        2.07480895      -0.00727095       3.41765949       34      -0.00067866      -0.00309623       0.00512765
O        0.94366328      -2.15630369       7.13137215       35      -0.00587251       0.00078004       0.00111590
O       -0.69845811       1.98291745       3.40080521       36      -0.00269293       0.00527664       0.00111590
O       -0.94366328      -0.79256981       5.42883924       37       0.00587250      -0.00057638       0.00123348
O       -0.43268756       5.27845480       1.71512658       38      -0.00250091      -0.00160404       0.00524524
O        4.01718135       5.10998829       5.44569351       39       0.00067866       0.00289256       0.00524524
