40
Lattice="9.412975529900613 7.377648826402751e-10 2.146964189292609e-14 -3.1376585106624404 8.874638437535076 -1.277854299530318e-09 -3.137658509619101 -4.437319218029773 7.685662337159113" Properties=species:S:1:pos:R:3:spacegroup_kinds:I:1:forces:R:3 spacegroup="P 1" unit_cell=conventional occupancy="_JSON {\"0\": {\"In\": 1}, \"1\": {\"In\": 1}, \"2\": {\"In\": 1}, \"3\": {\"In\": 1}, \"4\": {\"In\": 1}, \"5\": {\"In\": 1}, \"6\": {\"In\": 1}, \"7\": {\"In\": 1}, \"8\": {\"In\": 1}, \"9\": {\"In\": 1}, \"10\": {\"In\": 1}, \"11\": {\"In\": 1}, \"12\": {\"In\": 1}, \"13\": {\"In\": 1}, \"14\": {\"In\": 1}, \"15\": {\"In\": 1}, \"16\": {\"O\": 1}, \"17\": {\"O\": 1}, \"18\": {\"O\": 1}, \"19\": {\"O\": 1}, \"20\": {\"O\": 1}, \"21\": {\"O\": 1}, \"22\": {\"O\": 1}, \"23\": {\"O\": 1}, \"24\": {\"O\": 1}, \"25\": {\"O\": 1}, \"26\": {\"O\": 1}, \"27\": {\"O\": 1}, \"28\": {\"O\": 1}, \"29\": {\"O\": 1}, \"30\": {\"O\": 1}, \"31\": {\"O\": 1}, \"32\": {\"O\": 1}, \"33\": {\"O\": 1}, \"34\": {\"O\": 1}, \"35\": {\"O\": 1}, \"36\": {\"O\": 1}, \"37\": {\"O\": 1}, \"38\": {\"O\": 1}, \"39\": {\"O\": 1}}" n_minim_iter=8 energy=-45148.33537454246 stress="0.049417720224207866 3.0266666492704046e-12 -3.4550160276191154e-13 3.0266666492704046e-12 0.049417720234018844 2.198994914925152e-12 -3.4550160276191154e-13 2.198994914925152e-12 0.04941772022841753" free_energy=-45148.33537454246 pbc="T T T"
In      -4.50982875       3.18893049       6.00510387        0      -0.00309551       0.00218886      -0.00379121
In       7.64748726       1.24838873       1.68055846        1       0.00309551      -0.00218886       0.00379121
In       1.37217024      -0.97027088       5.52338963        2       0.00309551      -0.00218886       0.00379121
In      -1.56882926      -2.21865961       3.84283117        3       0.00000000       0.00000000       0.00000000
In      -1.37217024       4.29826030       3.60197404        4      -0.00309551       0.00218886       0.00379121
In       4.90314678      -3.04987156       5.76424675        5      -0.00309551      -0.00437772      -0.00000000
In      -1.37217024       1.38744765       5.76424675        6      -0.00309551      -0.00437772      -0.00000000
In      -1.76548827       7.48719079       1.92141558        7       0.00309551       0.00437772      -0.00000000
In       4.50982875       0.13905893       4.08368829        8       0.00309551      -0.00218886      -0.00379121
In      -1.56882926       4.43731922      -0.00000000        9       0.00000000      -0.00000000       0.00000000
In       4.50982875       6.79503775       0.24085712       10       0.00309551      -0.00218886      -0.00379121
In      -1.37217024      -2.35771853       7.44480521       11      -0.00309551       0.00218886       0.00379121
In       4.50982875       3.04987157       1.92141558       12       0.00309551       0.00437772       0.00000000
In       1.76548827       5.40759010       2.16227270       13      -0.00309551       0.00218886      -0.00379121
In       4.70648776       0.00000000      -0.00000000       14      -0.00000000      -0.00000000      -0.00000000
In       1.56882925       2.21865961       3.84283117       15       0.00000000       0.00000000       0.00000000
O        1.17275100       4.47414019       4.12693134       16      -0.00118696      -0.00252409      -0.00599307
O       -1.96490751       3.55561690       5.59030877       17      -0.00118696      -0.00392810       0.00518246
O       -0.40564478       2.45305165      -0.18565454       18      -0.00647884      -0.00018618      -0.00129875
O       -1.17275100      -0.84488135       2.03157778       19       0.00118696      -0.00645219      -0.00081061
O        4.00723693       5.17501288       2.21723231       20      -0.00330780       0.00570236       0.00048814
O        2.26808009       2.88598654       1.74747760       21       0.00330780       0.00242844       0.00518246
O        2.26808009       6.72634556       0.46975470       22       0.00330780       0.00327392      -0.00469432
O       -2.44797420       6.22074051       3.65717663       23      -0.00198408       0.00617037      -0.00129874
O        3.54330329       1.98426757       7.87131687       24       0.00647884       0.00018618       0.00129874
O        5.58563271      -1.78342129       4.02848570       25       0.00198408      -0.00617037       0.00129875
O        6.68096180       3.28440389       1.62559885       26       0.00647884      -0.00121784      -0.00048814
O        3.82734282       2.27549723       4.31258587       27      -0.00198408      -0.00420993      -0.00469432
O        0.68968431       4.81571992       7.40156216       28      -0.00198408      -0.00196044       0.00599307
O        2.44797420      -0.37840070       0.28410017       29       0.00198408       0.00196044      -0.00599307
O       -3.54330329       1.15291533       6.06006348       30      -0.00647884       0.00121784       0.00048814
O        5.10256601       0.88170232       2.09535356       31       0.00118696       0.00392810      -0.00518246
O        0.86957842       1.55133268       5.93818473       32      -0.00330780      -0.00242844      -0.00518246
O        3.54330329      -0.83135224       5.87440894       33       0.00647884       0.00103166      -0.00081061
O        1.96490751      -0.03682096       3.55873099       34       0.00118696       0.00252409       0.00599307
O        0.86957842      -2.28902634       7.21590763       35      -0.00330780      -0.00327392       0.00469432
O       -0.68968431       2.16182200       3.37307646       36       0.00198408       0.00420993       0.00469432
O       -0.86957842      -0.73769366       5.46843002       37       0.00330780      -0.00570236      -0.00048814
O       -0.40564478       5.26867146       1.81125339       38      -0.00647884      -0.00103166       0.00081061
O        4.31040951       5.28220058       5.65408456       39      -0.00118696       0.00645219       0.00081061
