40
Lattice="9.609135374778788 7.531385908330321e-10 1.922486585664316e-14 -3.2030451256363324 9.059579712876443 -1.3044929896347385e-09 -3.203045124571249 -4.529789855685073 7.845826179830789" Properties=species:S:1:pos:R:3:spacegroup_kinds:I:1:forces:R:3 spacegroup="P 1" unit_cell=conventional occupancy="_JSON {\"0\": {\"In\": 1}, \"1\": {\"In\": 1}, \"2\": {\"In\": 1}, \"3\": {\"In\": 1}, \"4\": {\"In\": 1}, \"5\": {\"In\": 1}, \"6\": {\"In\": 1}, \"7\": {\"In\": 1}, \"8\": {\"In\": 1}, \"9\": {\"In\": 1}, \"10\": {\"In\": 1}, \"11\": {\"In\": 1}, \"12\": {\"In\": 1}, \"13\": {\"In\": 1}, \"14\": {\"In\": 1}, \"15\": {\"In\": 1}, \"16\": {\"O\": 1}, \"17\": {\"O\": 1}, \"18\": {\"O\": 1}, \"19\": {\"O\": 1}, \"20\": {\"O\": 1}, \"21\": {\"O\": 1}, \"22\": {\"O\": 1}, \"23\": {\"O\": 1}, \"24\": {\"O\": 1}, \"25\": {\"O\": 1}, \"26\": {\"O\": 1}, \"27\": {\"O\": 1}, \"28\": {\"O\": 1}, \"29\": {\"O\": 1}, \"30\": {\"O\": 1}, \"31\": {\"O\": 1}, \"32\": {\"O\": 1}, \"33\": {\"O\": 1}, \"34\": {\"O\": 1}, \"35\": {\"O\": 1}, \"36\": {\"O\": 1}, \"37\": {\"O\": 1}, \"38\": {\"O\": 1}, \"39\": {\"O\": 1}}" n_minim_iter=7 energy=-45146.37552983143 stress="0.06424127269945447 -1.3940497437909595e-12 8.571712772509167e-13 -1.3940497437909595e-12 0.064241272693927 -1.4580218076630013e-12 8.571712772509167e-13 -1.4580218076630013e-12 0.06424127269733432" free_energy=-45146.37552983143 pbc="T T T"
In      -4.60838638       3.25862126       6.12464168        0       0.00032215      -0.00022779       0.00039455
In       7.81143151       1.27116860       1.72118449        1      -0.00032215       0.00022779      -0.00039455
In       1.40534126      -0.99372633       5.64409758        2      -0.00032215       0.00022779      -0.00039455
In      -1.60152256      -2.26489493       3.92291309        3       0.00000000      -0.00000000      -0.00000000
In      -1.40534126       4.39106873       3.68264104        4       0.00032215      -0.00022779      -0.00039455
In       5.00074899      -3.11990013       5.88436963        5       0.00032215       0.00045558      -0.00000000
In      -1.40534126       1.40988973       5.88436963        6       0.00032215       0.00045558       0.00000000
In      -1.79770387       7.64968999       1.96145654        7      -0.00032215      -0.00045558      -0.00000000
In       4.60838638       0.13872113       4.16318513        8      -0.00032215       0.00022779       0.00039455
In      -1.60152256       4.52978986      -0.00000000        9      -0.00000000       0.00000000       0.00000000
In       4.60838638       6.93340592       0.24027204       10      -0.00032215       0.00022779       0.00039455
In      -1.40534126      -2.40361606       7.60555413       11       0.00032215      -0.00022779      -0.00039455
In       4.60838638       3.11990013       1.96145654       12      -0.00032215      -0.00045558      -0.00000000
In       1.79770387       5.52351619       2.20172859       13       0.00032215      -0.00022779       0.00039455
In       4.80456769       0.00000000      -0.00000000       14       0.00000000       0.00000000       0.00000000
In       1.60152256       2.26489493       3.92291309       15      -0.00000000      -0.00000000       0.00000000
O        1.29461833       4.61807481       4.23164891       16      -0.00494916       0.00359259       0.00234858
O       -1.90842679       3.62057298       5.65354471       17      -0.00494916       0.00023764      -0.00428556
O       -0.34244259       2.51325494      -0.27435036       18       0.00196145      -0.00464890       0.00417817
O       -1.29461834      -0.82093192       2.03936744       19       0.00494916       0.00383022      -0.00193698
O        4.04965120       5.19232553       2.31371779       20       0.00187376      -0.00141795      -0.00611515
O        2.35643904       2.85731930       1.73063162       21      -0.00187376       0.00458690      -0.00428556
O        2.35643904       6.86479608       0.58308617       22      -0.00187376      -0.00600485      -0.00182959
O       -2.48366701       6.27979111       3.64856273       23       0.00503684      -0.00029964       0.00417817
O        3.54548772       2.01653492       8.12017653       24      -0.00196145       0.00464890      -0.00417817
O        5.68671213      -1.75000125       4.19726344       25      -0.00503684       0.00029964      -0.00417817
O        6.74853284       3.28392802       1.60919529       26      -0.00196145       0.00129395       0.00611515
O        3.92242324       2.28474739       4.50599926       27       0.00503684       0.00376822      -0.00182959
O        0.71937811       5.02483107       7.53709035       28       0.00503684      -0.00346858      -0.00234858
O        2.48366701      -0.49504121       0.30873582       29      -0.00503684       0.00346858       0.00234858
O       -3.54548772       1.24586184       6.23663088       30       0.00196145      -0.00129395      -0.00611515
O        5.11147191       0.90921688       2.19228147       31       0.00494916      -0.00023764       0.00428556
O        0.84660608       1.67247056       6.11519456       32       0.00187376      -0.00458690       0.00428556
O        3.54548772      -0.77067308       5.96228053       33      -0.00196145      -0.00594285      -0.00193698
O        1.90842679      -0.08828495       3.61417726       34       0.00494916      -0.00359259      -0.00234858
O        0.84660608      -2.33500622       7.26274000       35       0.00187376       0.00600485       0.00182959
O       -0.71937812       2.24504247       3.33982691       36      -0.00503684      -0.00376822       0.00182959
O       -0.84660608      -0.66253567       5.53210838       37      -0.00187376       0.00141795       0.00611515
O       -0.34244259       5.30046294       1.88354564       38       0.00196145       0.00594285       0.00193698
O        4.49766346       5.35072178       5.80645873       39      -0.00494916      -0.00383022       0.00193698
