40
Lattice="9.27751819958736 7.271462397104485e-10 1.3870278907179985e-14 -3.0925060672146842 8.746928041770726 -1.259463830465369e-09 -3.0925060661863553 -4.373464020158211 7.575061890087564" Properties=species:S:1:pos:R:3:spacegroup_kinds:I:1:forces:R:3 spacegroup="P 1" unit_cell=conventional occupancy="_JSON {\"0\": {\"In\": 1}, \"1\": {\"In\": 1}, \"2\": {\"In\": 1}, \"3\": {\"In\": 1}, \"4\": {\"In\": 1}, \"5\": {\"In\": 1}, \"6\": {\"In\": 1}, \"7\": {\"In\": 1}, \"8\": {\"In\": 1}, \"9\": {\"In\": 1}, \"10\": {\"In\": 1}, \"11\": {\"In\": 1}, \"12\": {\"In\": 1}, \"13\": {\"In\": 1}, \"14\": {\"In\": 1}, \"15\": {\"In\": 1}, \"16\": {\"O\": 1}, \"17\": {\"O\": 1}, \"18\": {\"O\": 1}, \"19\": {\"O\": 1}, \"20\": {\"O\": 1}, \"21\": {\"O\": 1}, \"22\": {\"O\": 1}, \"23\": {\"O\": 1}, \"24\": {\"O\": 1}, \"25\": {\"O\": 1}, \"26\": {\"O\": 1}, \"27\": {\"O\": 1}, \"28\": {\"O\": 1}, \"29\": {\"O\": 1}, \"30\": {\"O\": 1}, \"31\": {\"O\": 1}, \"32\": {\"O\": 1}, \"33\": {\"O\": 1}, \"34\": {\"O\": 1}, \"35\": {\"O\": 1}, \"36\": {\"O\": 1}, \"37\": {\"O\": 1}, \"38\": {\"O\": 1}, \"39\": {\"O\": 1}}" n_minim_iter=8 energy=-45150.17734966348 stress="0.05897889857628233 -1.0954177344393378e-13 -1.8467565385960282e-13 -1.0954177344393378e-13 0.05897889857583874 -4.0372521362973666e-13 -1.8467565385960282e-13 -4.0372521362973666e-13 0.05897889857865494" free_energy=-45150.17734966348 pbc="T T T"
In      -4.39825827       3.11003825       5.97584857        0      -0.00203923       0.00144195      -0.00249753
In       7.49076433       1.26342578       1.59921331        1       0.00203922      -0.00144195       0.00249753
In       1.30575220      -0.92330623       5.38674426        2       0.00203922      -0.00144195       0.00249753
In      -1.54625303      -2.18673201       3.78753094        3       0.00000000      -0.00000000      -0.00000000
In      -1.30575220       4.20340425       3.49297878        4      -0.00203922       0.00144195       0.00249753
In       4.87925993      -2.93997848       5.68129642        5      -0.00203922      -0.00288390       0.00000000
In      -1.30575220       1.43348554       5.68129641        6      -0.00203923      -0.00288390       0.00000000
In      -1.78675387       7.31344250       1.89376547        7       0.00203922       0.00288390       0.00000000
In       4.39825827       0.17005977       4.08208310        8       0.00203922      -0.00144195      -0.00249753
In      -1.54625304       4.37346402      -0.00000000        9      -0.00000000       0.00000000       0.00000000
In       4.39825827       6.73025580       0.29455216       10       0.00203923      -0.00144195      -0.00249753
In      -1.30575220      -2.35679178       7.28050973       11      -0.00203923       0.00144195       0.00249753
In       4.39825827       2.93997848       1.89376547       12       0.00203923       0.00288390       0.00000000
In       1.78675386       5.29677026       2.18831763       13      -0.00203922       0.00144195      -0.00249753
In       4.63875910       0.00000000      -0.00000000       14       0.00000000       0.00000000      -0.00000000
In       1.54625303       2.18673201       3.78753094       15       0.00000000       0.00000000       0.00000000
O        0.99962258       4.38168188       4.10263031       16       0.00044699       0.00410268      -0.00367758
O       -2.09288348       3.54887314       5.51662986       17       0.00044699      -0.00523622      -0.00171423
O       -0.43647634       2.37761642      -0.02975588       18      -0.00091972      -0.00426981      -0.00338810
O       -0.99962259      -0.81637302       2.04419828       19      -0.00044699      -0.00113354      -0.00539181
O        4.04353751       5.17265748       2.07395415       20      -0.00508575      -0.00082258      -0.00200371
O        2.14147462       2.97696377       1.72909891       21       0.00508575       0.00132398      -0.00171423
O        2.14147462       6.56915774       0.34485524       22       0.00508575      -0.00214655      -0.00028948
O       -2.38713037       6.17917106       3.75777507       23       0.00371904       0.00229039      -0.00338810
O        3.52898240       1.99584761       7.60481776       24       0.00091972       0.00426981       0.00338810
O        5.47963643      -1.80570704       3.81728682       25      -0.00371904      -0.00229039       0.00338810
O        6.62148847       3.34977088       1.71357679       26       0.00091972      -0.00506909       0.00200371
O        3.79788176       2.35147515       4.13238618       27       0.00371904      -0.00407937      -0.00028948
O        0.70537570       4.58974585       7.25996252       28       0.00371904       0.00178899       0.00367758
O        2.38713037      -0.21628183       0.31509936       29      -0.00371904      -0.00178899      -0.00367758
O       -3.52898240       1.02369315       5.86148510       30      -0.00091972       0.00506909      -0.00200371
O        5.18538955       0.82459088       2.05843203       31      -0.00044699       0.00523622       0.00171423
O        0.95103144       1.39650026       5.84596297       32      -0.00508575      -0.00132398       0.00171423
O        3.52898240      -0.97215446       5.83172922       33       0.00091972       0.00079928      -0.00539181
O        2.09288348      -0.00821786       3.47243158       34      -0.00044699      -0.00410268       0.00367758
O        0.95103144      -2.19569371       7.23020665       35      -0.00508575       0.00214655       0.00028948
O       -0.70537570       2.02198887       3.44267570       36      -0.00371904       0.00407937       0.00028948
O       -0.95103145      -0.79919346       5.50110773       37       0.00508575       0.00082258       0.00200371
O       -0.43647634       5.34561848       1.74333266       38      -0.00091972      -0.00079928       0.00539181
O        4.09212865       5.18983704       5.53086361       39       0.00044699       0.00113354       0.00539181
