40
Lattice="8.175621190370853 6.407827104116912e-10 2.0962799212845108e-14 -2.7252070640610855 7.708049578617958 -1.109881870770568e-09 -2.7252070631549006 -3.8540247886681893 6.675366749452998" Properties=species:S:1:pos:R:3:spacegroup_kinds:I:1:forces:R:3 spacegroup="P 1" unit_cell=conventional occupancy="_JSON {\"0\": {\"In\": 1}, \"1\": {\"In\": 1}, \"2\": {\"In\": 1}, \"3\": {\"In\": 1}, \"4\": {\"In\": 1}, \"5\": {\"In\": 1}, \"6\": {\"In\": 1}, \"7\": {\"In\": 1}, \"8\": {\"In\": 1}, \"9\": {\"In\": 1}, \"10\": {\"In\": 1}, \"11\": {\"In\": 1}, \"12\": {\"In\": 1}, \"13\": {\"In\": 1}, \"14\": {\"In\": 1}, \"15\": {\"In\": 1}, \"16\": {\"O\": 1}, \"17\": {\"O\": 1}, \"18\": {\"O\": 1}, \"19\": {\"O\": 1}, \"20\": {\"O\": 1}, \"21\": {\"O\": 1}, \"22\": {\"O\": 1}, \"23\": {\"O\": 1}, \"24\": {\"O\": 1}, \"25\": {\"O\": 1}, \"26\": {\"O\": 1}, \"27\": {\"O\": 1}, \"28\": {\"O\": 1}, \"29\": {\"O\": 1}, \"30\": {\"O\": 1}, \"31\": {\"O\": 1}, \"32\": {\"O\": 1}, \"33\": {\"O\": 1}, \"34\": {\"O\": 1}, \"35\": {\"O\": 1}, \"36\": {\"O\": 1}, \"37\": {\"O\": 1}, \"38\": {\"O\": 1}, \"39\": {\"O\": 1}}" n_minim_iter=1 energy=-45130.26455644764 stress="-0.422482909596633 1.7413218915549278e-16 0.0 1.7413218915549278e-16 -0.42248290959663193 5.273559366969494e-16 0.0 5.273559366969494e-16 -0.4224829095966327" pbc="T T T"
In      -3.88497790       2.74709422       5.25494336        0       0.02543335      -0.01781749       0.03116434
In       6.61018496       1.10693057       1.42042338        1      -0.02543335       0.01781749      -0.03116434
In       1.15977084      -0.82008182       4.75810676        2      -0.02544184       0.01781260      -0.03094091
In      -1.36260353      -1.92701239       3.33768337        3       0.00000000       0.00000000       0.00000000
In      -1.15977084       3.71060042       3.08926507        4       0.02522844      -0.01782109      -0.03109312
In       4.29064329      -2.60366984       5.00652506        5       0.02544235       0.03593323       0.00003625
In      -1.15977084       1.25035495       5.00652506        6       0.02527395       0.03583861       0.00021777
In      -1.56543623       6.45769464       1.66884168        7      -0.02544235      -0.03593323      -0.00003625
In       3.88497790       0.14342438       3.58610167        8      -0.02522844       0.01782109       0.03109312
In      -1.36260353       3.85402479      -0.00000000        9       0.00000000       0.00000000       0.00000000
In       3.88497790       5.92446156       0.24841830       10      -0.02542950       0.01796533       0.03117874
In      -1.15977084      -2.07043677       6.42694845       11       0.02542950      -0.01796533      -0.03117874
In       3.88497790       2.60366985       1.66884168       12      -0.02527395      -0.03583861      -0.00021777
In       1.56543622       4.67410662       1.91725999       13       0.02544184      -0.01781260       0.03094091
In       4.08781059       0.00000000      -0.00000000       14       0.00000000       0.00000000       0.00000000
In       1.36260353       1.92701240       3.33768337       15       0.00000000       0.00000000       0.00000000
O        0.77288301       3.84293636       3.69014562       16      -0.02996055      -0.01326715       0.11110380
O       -1.95232405       3.20130407       4.83989680       17      -0.02997161       0.10285570      -0.04404994
O       -0.36821760       2.08117165       0.10465630       18       0.07447484       0.02900667       0.08383725
O       -0.77288301      -0.66380915       1.85467567       19       0.02994821       0.08957544       0.06703792
O        3.66899310       4.57825729       1.75001936       20       0.10695636      -0.04116825      -0.01680293
O        1.78142102       2.70057981       1.50221342       21      -0.10695764      -0.00603798      -0.04406177
O        1.78142102       5.73170227       0.24780594       22      -0.10694607      -0.03513541       0.02726269
O       -2.08488665       5.43447218       3.44233968       23      -0.00253048      -0.07987287       0.08384625
O        3.09342466       1.77285314       6.57071044       24      -0.07447484      -0.02900667      -0.08383725
O        4.81009371      -1.58044739       3.23302707       25       0.00253048       0.07987287      -0.08384625
O        5.81863172       3.05823324       1.58766401       26      -0.07446455       0.08711001       0.01679908
O        3.36552748       2.19092992       3.58548932       27      -0.00252611       0.11256830       0.02726089
O        0.64032041       3.93667227       6.32290450       28      -0.00252637      -0.03266613      -0.11109480
O        2.08488665      -0.08264748       0.35246224       29       0.00252637       0.03266613       0.11109480
O       -3.09342466       0.79579155       5.08770274       30       0.07446455      -0.08711001      -0.01679908
O        4.67753112       0.65272073       1.83546995       31       0.02997161      -0.10285570       0.04404994
O        0.94378604       1.15344498       5.17315332       32       0.10695764       0.00603798       0.04406177
O        3.09342466      -0.97706158       5.19235904       33      -0.07447201      -0.05811491       0.06704872
O        1.95232405       0.01108843       2.98522113       34       0.02996055       0.01326715      -0.11110380
O        0.94378604      -1.87767747       6.42756080       35       0.10694607       0.03513541      -0.02726269
O       -0.64032042       1.66309488       3.08987743       36       0.00252611      -0.11256830      -0.02726089
O       -0.94378604      -0.72423249       4.92534738       37      -0.10695636       0.04116825       0.01680293
O       -0.36821760       4.83108638       1.48300770       38       0.07447201       0.05811491      -0.06704872
O        3.49809007       4.51783394       4.82069108       39      -0.02994821      -0.08957544      -0.06703792
40
Lattice="8.17562119037086 6.407827104116918e-10 2.0962799212845124e-14 -2.725207064061088 7.708049578617967 -1.1098818707705692e-09 -2.7252070631549032 -3.8540247886681938 6.675366749453007" Properties=species:S:1:pos:R:3:spacegroup_kinds:I:1:forces:R:3 spacegroup="P 1" unit_cell=conventional occupancy="_JSON {\"0\": {\"In\": 1}, \"1\": {\"In\": 1}, \"2\": {\"In\": 1}, \"3\": {\"In\": 1}, \"4\": {\"In\": 1}, \"5\": {\"In\": 1}, \"6\": {\"In\": 1}, \"7\": {\"In\": 1}, \"8\": {\"In\": 1}, \"9\": {\"In\": 1}, \"10\": {\"In\": 1}, \"11\": {\"In\": 1}, \"12\": {\"In\": 1}, \"13\": {\"In\": 1}, \"14\": {\"In\": 1}, \"15\": {\"In\": 1}, \"16\": {\"O\": 1}, \"17\": {\"O\": 1}, \"18\": {\"O\": 1}, \"19\": {\"O\": 1}, \"20\": {\"O\": 1}, \"21\": {\"O\": 1}, \"22\": {\"O\": 1}, \"23\": {\"O\": 1}, \"24\": {\"O\": 1}, \"25\": {\"O\": 1}, \"26\": {\"O\": 1}, \"27\": {\"O\": 1}, \"28\": {\"O\": 1}, \"29\": {\"O\": 1}, \"30\": {\"O\": 1}, \"31\": {\"O\": 1}, \"32\": {\"O\": 1}, \"33\": {\"O\": 1}, \"34\": {\"O\": 1}, \"35\": {\"O\": 1}, \"36\": {\"O\": 1}, \"37\": {\"O\": 1}, \"38\": {\"O\": 1}, \"39\": {\"O\": 1}}" n_minim_iter=2 energy=-45130.27774907181 stress="-0.4204840803348133 2.3851995444177657e-16 -1.3877787807814457e-16 2.3851995444177657e-16 -0.42048408033481255 3.885780586188048e-16 -1.3877787807814457e-16 3.885780586188048e-16 -0.4204840803348138" pbc="T T T"
In      -3.88316608       2.74581307       5.25716238        0       0.07930285      -0.05597832       0.09698382
In       6.60837314       1.10821172       1.41820436        1      -0.07930285       0.05597832      -0.09698382
In       1.15795901      -0.81880067       4.75588774        2      -0.07931545       0.05601894      -0.09714297
In      -1.36260353      -1.92701239       3.33768337        3       0.00000000       0.00000000       0.00000000
In      -1.15795902       3.70931927       3.08704605        4       0.07920310      -0.05607088      -0.09703755
In       4.29245511      -2.60110754       5.00652506        5       0.07930234       0.11206103      -0.00008382
In      -1.15795902       1.25291725       5.00652506        6       0.07925040       0.11214047      -0.00009539
In      -1.56724805       6.45513233       1.66884168        7      -0.07930234      -0.11206103       0.00008382
In       3.88316608       0.14470553       3.58832069        8      -0.07920310       0.05607088       0.09703755
In      -1.36260353       3.85402479      -0.00000000        9       0.00000000       0.00000000       0.00000000
In       3.88316608       5.92574271       0.25063732       10      -0.07928743       0.05612436       0.09715711
In      -1.15795902      -2.07171792       6.42472942       11       0.07928743      -0.05612436      -0.09715711
In       3.88316608       2.60110754       1.66884168       12      -0.07925040      -0.11214047       0.00009539
In       1.56724805       4.67282546       1.91947901       13       0.07931545      -0.05601894       0.09714297
In       4.08781059       0.00000000      -0.00000000       14       0.00000000       0.00000000       0.00000000
In       1.36260353       1.92701240       3.33768337       15       0.00000000       0.00000000       0.00000000
O        0.77074300       3.84198842       3.69808135       16      -0.02427559      -0.02652016      -0.02777589
O       -1.95446407       3.20865059       4.83674987       17      -0.02428896      -0.01080532       0.03684905
O       -0.36289830       2.08324365       0.11064513       18      -0.04326961       0.00262201       0.01359702
O       -0.77074300      -0.65741058       1.85946448       19       0.02428510      -0.03731339       0.00906957
O        3.67663280       4.57531636       1.74881935       20      -0.00208542       0.04516349      -0.00451640
O        1.77378132       2.70014859       1.49906650       21       0.00208568       0.02649548       0.03685085
O        1.77378132       5.72919256       0.24975285       22       0.00208645       0.01865773      -0.04136725
O       -2.08506705       5.42876644       3.44832850       23      -0.01690629       0.03992306       0.01359137
O        3.08810536       1.77078115       6.56472162       24       0.04326961      -0.00262201      -0.01359702
O        4.81027411      -1.57474165       3.22703824       25       0.01690629      -0.03992306      -0.01359137
O        5.81331243       3.06445571       1.58886402       26       0.04327398       0.01308563       0.00452463
O        3.36534708       2.19896926       3.58743622       27      -0.01690578      -0.00818511      -0.04137111
O        0.64014002       3.93433867       6.31496876       28      -0.01689703      -0.03173539       0.02777229
O        2.08506704      -0.08031388       0.36039798       29       0.01689703       0.03173539      -0.02777229
O       -3.08810537       0.78956908       5.08650273       30      -0.04327398      -0.01308563      -0.00452463
O        4.67967113       0.64537420       1.83861687       31       0.02428896       0.01080532      -0.03684905
O        0.95142574       1.15387620       5.17630024       32      -0.00208568      -0.02649548      -0.03685085
O        3.08810537      -0.98121206       5.19714786       33       0.04327013      -0.01046285       0.00907342
O        1.95446406       0.01203638       2.97728539       34       0.02427559       0.02652016       0.02777589
O        0.95142574      -1.87516777       6.42561390       35      -0.00208645      -0.01865773       0.04136725
O       -0.64014002       1.65505553       3.08793052       36       0.01690578       0.00818511       0.04137111
O       -0.95142574      -0.72129157       4.92654739       37       0.00208542      -0.04516349       0.00451640
O       -0.36289830       4.83523686       1.47821889       38      -0.04327013       0.01046285      -0.00907342
O        3.49595006       4.51143537       4.81590226       39      -0.02428510       0.03731339      -0.00906957
40
Lattice="8.175621190370864 6.407827104116921e-10 2.0962799212845133e-14 -2.72520706406109 7.70804957861797 -1.1098818707705696e-09 -2.725207063154905 -3.8540247886681955 6.675366749453011" Properties=species:S:1:pos:R:3:spacegroup_kinds:I:1:forces:R:3 spacegroup="P 1" unit_cell=conventional occupancy="_JSON {\"0\": {\"In\": 1}, \"1\": {\"In\": 1}, \"2\": {\"In\": 1}, \"3\": {\"In\": 1}, \"4\": {\"In\": 1}, \"5\": {\"In\": 1}, \"6\": {\"In\": 1}, \"7\": {\"In\": 1}, \"8\": {\"In\": 1}, \"9\": {\"In\": 1}, \"10\": {\"In\": 1}, \"11\": {\"In\": 1}, \"12\": {\"In\": 1}, \"13\": {\"In\": 1}, \"14\": {\"In\": 1}, \"15\": {\"In\": 1}, \"16\": {\"O\": 1}, \"17\": {\"O\": 1}, \"18\": {\"O\": 1}, \"19\": {\"O\": 1}, \"20\": {\"O\": 1}, \"21\": {\"O\": 1}, \"22\": {\"O\": 1}, \"23\": {\"O\": 1}, \"24\": {\"O\": 1}, \"25\": {\"O\": 1}, \"26\": {\"O\": 1}, \"27\": {\"O\": 1}, \"28\": {\"O\": 1}, \"29\": {\"O\": 1}, \"30\": {\"O\": 1}, \"31\": {\"O\": 1}, \"32\": {\"O\": 1}, \"33\": {\"O\": 1}, \"34\": {\"O\": 1}, \"35\": {\"O\": 1}, \"36\": {\"O\": 1}, \"37\": {\"O\": 1}, \"38\": {\"O\": 1}, \"39\": {\"O\": 1}}" n_minim_iter=3 energy=-45130.28114682153 stress="-0.4199708301936308 3.39524846872738e-16 1.1102230246251565e-16 3.39524846872738e-16 -0.41997083019363013 3.3306690738754696e-16 1.1102230246251565e-16 3.3306690738754696e-16 -0.41997083019363135" pbc="T T T"
In      -3.88150595       2.74463918       5.25919561        0       0.04506321      -0.03178321       0.05517536
In       6.60671301       1.10938561       1.41617113        1      -0.04506321       0.03178321      -0.05517536
In       1.15629889      -0.81762678       4.75385450        2      -0.04507530       0.03180635      -0.05523219
In      -1.36260353      -1.92701239       3.33768337        3       0.00000000       0.00000000       0.00000000
In      -1.15629889       3.70814538       3.08501282        4       0.04506887      -0.03187088      -0.05513577
In       4.29411524      -2.59875976       5.00652506        5       0.04507710       0.06369060      -0.00000900
In      -1.15629889       1.25526502       5.00652506        6       0.04509458       0.06382610      -0.00007379
In      -1.56890818       6.45278456       1.66884168        7      -0.04507710      -0.06369060       0.00000900
In       3.88150595       0.14587941       3.59035393        8      -0.04506887       0.03187088       0.05513577
In      -1.36260353       3.85402479      -0.00000000        9       0.00000000       0.00000000       0.00000000
In       3.88150595       5.92691660       0.25267055       10      -0.04507041       0.03195444       0.05520853
In      -1.15629889      -2.07289181       6.42269619       11       0.04507041      -0.03195444      -0.05520853
In       3.88150595       2.59875977       1.66884168       12      -0.04509458      -0.06382610       0.00007379
In       1.56890817       4.67165158       1.92151224       13       0.04507530      -0.03180635       0.05523219
In       4.08781059       0.00000000      -0.00000000       14       0.00000000       0.00000000       0.00000000
In       1.36260353       1.92701240       3.33768337       15       0.00000000       0.00000000       0.00000000
O        0.76984756       3.84134970       3.69959147       16      -0.00039749       0.00031650      -0.01552844
O       -1.95535950       3.21027774       4.83654796       17      -0.00040803      -0.01361605       0.00749014
O       -0.36226487       2.08378973       0.11231569       18      -0.01266680      -0.00494809      -0.00753179
O       -0.76984757      -0.65642214       1.86077268       19       0.00040495      -0.01329003      -0.00804678
O        3.67846538       4.57529242       1.74845699       20      -0.01269559       0.00894564      -0.00051499
O        1.77194875       2.70045043       1.49886459       21       0.01269534       0.00491801       0.00748654
O        1.77194875       5.72886678       0.24959240       22       0.01269971       0.00401992      -0.00799793
O       -2.08537075       5.42798721       3.44999906       23       0.00043992       0.01358905      -0.00753025
O        3.08747193       1.77023507       6.56305106       24       0.01266680       0.00494809       0.00753179
O        4.81057781      -1.57396241       3.22536768       25      -0.00043992      -0.01358905       0.00753025
O        5.81267900       3.06617550       1.58922638       26       0.01266191      -0.00898446       0.00051808
O        3.36504337       2.20080563       3.58727578       27       0.00043400      -0.01331189      -0.00800179
O        0.63983631       3.93328154       6.31345865       28       0.00044069      -0.00027896       0.01553024
O        2.08537075      -0.07925675       0.36190809       29      -0.00044069       0.00027896      -0.01553024
O       -3.08747194       0.78784929       5.08614037       30      -0.01266191       0.00898446      -0.00051808
O        4.68056656       0.64374705       1.83881878       31       0.00040803       0.01361605      -0.00749014
O        0.95325831       1.15357436       5.17650216       32      -0.01269534      -0.00491801      -0.00748654
O        3.08747193      -0.98238577       5.19845606       33       0.01266140       0.00404820      -0.00803958
O        1.95535950       0.01267509       2.97577528       34       0.00039749      -0.00031650       0.01552844
O        0.95325831      -1.87484199       6.42577434       35      -0.01269971      -0.00401992       0.00799793
O       -0.63983631       1.65321917       3.08809097       36      -0.00043400       0.01331189       0.00800179
O       -0.95325832      -0.72126763       4.92690975       37       0.01269559      -0.00894564       0.00051499
O       -0.36226487       4.83641056       1.47691069       38      -0.01266140      -0.00404820       0.00803958
O        3.49505463       4.51044693       4.81459406       39      -0.00040495       0.01329003       0.00804678
40
Lattice="8.175621190370864 6.407827104116921e-10 2.0962799212845133e-14 -2.72520706406109 7.70804957861797 -1.1098818707705696e-09 -2.725207063154905 -3.8540247886681955 6.675366749453011" Properties=species:S:1:pos:R:3:spacegroup_kinds:I:1:forces:R:3 spacegroup="P 1" unit_cell=conventional occupancy="_JSON {\"0\": {\"In\": 1}, \"1\": {\"In\": 1}, \"2\": {\"In\": 1}, \"3\": {\"In\": 1}, \"4\": {\"In\": 1}, \"5\": {\"In\": 1}, \"6\": {\"In\": 1}, \"7\": {\"In\": 1}, \"8\": {\"In\": 1}, \"9\": {\"In\": 1}, \"10\": {\"In\": 1}, \"11\": {\"In\": 1}, \"12\": {\"In\": 1}, \"13\": {\"In\": 1}, \"14\": {\"In\": 1}, \"15\": {\"In\": 1}, \"16\": {\"O\": 1}, \"17\": {\"O\": 1}, \"18\": {\"O\": 1}, \"19\": {\"O\": 1}, \"20\": {\"O\": 1}, \"21\": {\"O\": 1}, \"22\": {\"O\": 1}, \"23\": {\"O\": 1}, \"24\": {\"O\": 1}, \"25\": {\"O\": 1}, \"26\": {\"O\": 1}, \"27\": {\"O\": 1}, \"28\": {\"O\": 1}, \"29\": {\"O\": 1}, \"30\": {\"O\": 1}, \"31\": {\"O\": 1}, \"32\": {\"O\": 1}, \"33\": {\"O\": 1}, \"34\": {\"O\": 1}, \"35\": {\"O\": 1}, \"36\": {\"O\": 1}, \"37\": {\"O\": 1}, \"38\": {\"O\": 1}, \"39\": {\"O\": 1}}" n_minim_iter=4 energy=-45130.28248249241 stress="-0.4195949976513686 2.2915073797577113e-16 -1.1102230246251565e-16 2.2915073797577113e-16 -0.4195949976513679 3.0531133177191805e-16 -1.1102230246251565e-16 3.0531133177191805e-16 -0.41959499765136904" pbc="T T T"
In      -3.87984875       2.74346736       5.26122527        0       0.00994503      -0.00710344       0.01220323
In       6.60505581       1.11055743       1.41414148        1      -0.00994503       0.00710344      -0.01220323
In       1.15464168      -0.81645496       4.75182485        2      -0.00997614       0.00708133      -0.01219886
In      -1.36260353      -1.92701239       3.33768337        3       0.00000000       0.00000000       0.00000000
In      -1.15464168       3.70697356       3.08298316        4       0.00996637      -0.00705202      -0.01225954
In       4.29577244      -2.59641612       5.00652506        5       0.00993757       0.01408476       0.00003522
In      -1.15464168       1.25760867       5.00652506        6       0.00990415       0.01402563      -0.00001337
In      -1.57056538       6.45044091       1.66884168        7      -0.00993757      -0.01408476      -0.00003522
In       3.87984874       0.14705124       3.59238358        8      -0.00996637       0.00705202       0.01225954
In      -1.36260353       3.85402479      -0.00000000        9       0.00000000       0.00000000       0.00000000
In       3.87984874       5.92808842       0.25470021       10      -0.00992472       0.00699134       0.01221763
In      -1.15464168      -2.07406363       6.42066654       11       0.00992472      -0.00699134      -0.01221763
In       3.87984874       2.59641613       1.66884168       12      -0.00990415      -0.01402563       0.00001337
In       1.57056538       4.67047975       1.92354189       13       0.00997614      -0.00708133       0.01219886
In       4.08781059       0.00000000      -0.00000000       14       0.00000000       0.00000000       0.00000000
In       1.36260353       1.92701240       3.33768337       15       0.00000000       0.00000000       0.00000000
O        0.76939836       3.84113769       3.70061199       16       0.01979287       0.01721868       0.00279042
O       -1.95580870       3.21126755       4.83622131       17       0.01979184      -0.00619019      -0.01631879
O       -0.36168130       2.08404925       0.11325392       18       0.01699551      -0.00422098      -0.01974273
O       -0.76939837      -0.65564435       1.86146655       19      -0.01978670       0.01103595      -0.01352580
O        3.67954831       4.57505632       1.74821263       20      -0.01243257      -0.02242465       0.00621590
O        1.77086582       2.70054401       1.49853793       21       0.01243900      -0.01659030      -0.01631622
O        1.77086582       5.72853710       0.24967469       22       0.01243694      -0.00583743       0.02252775
O       -2.08542091       5.42735050       3.45093729       23       0.00964575      -0.01462624      -0.01973759
O        3.08688836       1.76997554       6.56211283       24      -0.01699551       0.00422098       0.01974273
O        4.81062797      -1.57332571       3.22442945       25      -0.00964575       0.01462624       0.01973759
O        5.81209542       3.06711779       1.58947074       26      -0.01699165      -0.01920177      -0.00621898
O        3.36499322       2.20193651       3.58735807       27       0.00964395      -0.00978202       0.02252724
O        0.63978616       3.93278736       6.31243813       28       0.00965244       0.02440183      -0.00279685
O        2.08542090      -0.07876257       0.36292861       29      -0.00965244      -0.02440183       0.00279685
O       -3.08688836       0.78690700       5.08589600       30       0.01699165       0.01920177       0.00621898
O        4.68101576       0.64275725       1.83914544       31      -0.01979184       0.00619019       0.01631879
O        0.95434124       1.15348079       5.17682881       32      -0.01243900       0.01659030       0.01631622
O        3.08688836      -0.98306854       5.19914992       33      -0.01699911       0.01498310      -0.01351706
O        1.95580870       0.01288710       2.97475476       34      -0.01979287      -0.01721868      -0.00279042
O        0.95434124      -1.87451231       6.42569205       35      -0.01243694       0.00583743      -0.02252775
O       -0.63978616       1.65208828       3.08800868       36      -0.00964395       0.00978202      -0.02252724
O       -0.95434125      -0.72103153       4.92715412       37       0.01243257       0.02242465      -0.00621590
O       -0.36168130       4.83709333       1.47621682       38       0.01699911      -0.01498310       0.01351706
O        3.49460543       4.50966914       4.81390019       39       0.01978670      -0.01103595       0.01352580
40
Lattice="8.175621190370856 6.40782710411692e-10 2.096279921284512e-14 -2.7252070640610886 7.708049578617965 -1.1098818707705692e-09 -2.7252070631549037 -3.854024788668193 6.675366749453007" Properties=species:S:1:pos:R:3:spacegroup_kinds:I:1:forces:R:3 spacegroup="P 1" unit_cell=conventional occupancy="_JSON {\"0\": {\"In\": 1}, \"1\": {\"In\": 1}, \"2\": {\"In\": 1}, \"3\": {\"In\": 1}, \"4\": {\"In\": 1}, \"5\": {\"In\": 1}, \"6\": {\"In\": 1}, \"7\": {\"In\": 1}, \"8\": {\"In\": 1}, \"9\": {\"In\": 1}, \"10\": {\"In\": 1}, \"11\": {\"In\": 1}, \"12\": {\"In\": 1}, \"13\": {\"In\": 1}, \"14\": {\"In\": 1}, \"15\": {\"In\": 1}, \"16\": {\"O\": 1}, \"17\": {\"O\": 1}, \"18\": {\"O\": 1}, \"19\": {\"O\": 1}, \"20\": {\"O\": 1}, \"21\": {\"O\": 1}, \"22\": {\"O\": 1}, \"23\": {\"O\": 1}, \"24\": {\"O\": 1}, \"25\": {\"O\": 1}, \"26\": {\"O\": 1}, \"27\": {\"O\": 1}, \"28\": {\"O\": 1}, \"29\": {\"O\": 1}, \"30\": {\"O\": 1}, \"31\": {\"O\": 1}, \"32\": {\"O\": 1}, \"33\": {\"O\": 1}, \"34\": {\"O\": 1}, \"35\": {\"O\": 1}, \"36\": {\"O\": 1}, \"37\": {\"O\": 1}, \"38\": {\"O\": 1}, \"39\": {\"O\": 1}}" n_minim_iter=5 energy=-45130.283101279325 stress="-0.4193400558698508 1.3367596821533253e-16 -3.885780586188048e-16 1.3367596821533253e-16 -0.4193400558698491 3.3306690738754696e-16 -3.885780586188048e-16 3.3306690738754696e-16 -0.41934005586985024" pbc="T T T"
In      -3.87820114       2.74230233       5.26324316        0      -0.01238578       0.00870576      -0.01505355
In       6.60340820       1.11172247       1.41212358        1       0.01238578      -0.00870576       0.01505355
In       1.15299408      -0.81528993       4.74980696        2       0.01232664      -0.00872632       0.01513300
In      -1.36260353      -1.92701239       3.33768337        3       0.00000000       0.00000000       0.00000000
In      -1.15299408       3.70580852       3.08096527        4      -0.01231327       0.00876901       0.01507566
In       4.29742005      -2.59408606       5.00652506        5      -0.01243591      -0.01752413       0.00004885
In      -1.15299408       1.25993873       5.00652506        6      -0.01235441      -0.01756938       0.00002880
In      -1.57221299       6.44811085       1.66884168        7       0.01243591       0.01752413      -0.00004885
In       3.87820114       0.14821627       3.59440148        8       0.01231327      -0.00876901      -0.01507566
In      -1.36260353       3.85402479      -0.00000000        9       0.00000000       0.00000000       0.00000000
In       3.87820114       5.92925345       0.25671810       10       0.01238166      -0.00880577      -0.01517902
In      -1.15299408      -2.07522866       6.41864864       11      -0.01238166       0.00880577       0.01517902
In       3.87820114       2.59408606       1.66884168       12       0.01235441       0.01756938      -0.00002880
In       1.57221298       4.66931472       1.92555979       13      -0.01232664       0.00872632      -0.01513300
In       4.08781059       0.00000000      -0.00000000       14       0.00000000       0.00000000       0.00000000
In       1.36260353       1.92701240       3.33768337       15       0.00000000       0.00000000       0.00000000
O        0.77005382       3.84180762       3.70145330       16       0.02468902       0.00699983       0.01163090
O       -1.95515324       3.21166117       4.83522048       17       0.02468876       0.00656788      -0.01188030
O       -0.36046008       2.08404282       0.11294600       18       0.02102983       0.00914799      -0.01637279
O       -0.77005382      -0.65458078       1.86130703       19      -0.02466948       0.01357543      -0.00025403
O        3.67970094       4.57381498       1.74836102       20      -0.00203760      -0.02301292       0.01611439
O        1.77071319       2.69979483       1.49753710       21       0.00203914      -0.02545932      -0.01188261
O        1.77071319       5.72804495       0.25082392       22       0.00204223       0.00243818       0.02798029
O       -2.08500777       5.42620127       3.45062938       23      -0.00161902      -0.02287176      -0.01636842
O        3.08566714       1.76998197       6.56242074       24      -0.02102983      -0.00914799       0.01637279
O        4.81021484      -1.57217647       3.22473737       25       0.00161902       0.02287176       0.01636842
O        5.81087420       3.06684792       1.58932235       26      -0.02101517      -0.00959536      -0.01610925
O        3.36540635       2.20224447       3.58850729       27      -0.00163085      -0.00273000       0.02798389
O        0.64019929       3.93362864       6.31159682       28      -0.00161054       0.02561127      -0.01163733
O        2.08500777      -0.07960385       0.36376992       29       0.00161054      -0.02561127       0.01163733
O       -3.08566714       0.78717688       5.08604439       30       0.02101517       0.00959536       0.01610925
O        4.68036030       0.64236362       1.84014627       31      -0.02468876      -0.00656788       0.01188030
O        0.95449387       1.15422997       5.17782964       32      -0.00203914       0.02545932       0.01188261
O        3.08566714      -0.98280509       5.19899040       33      -0.02101594       0.01874540      -0.00025351
O        1.95515324       0.01221717       2.97391345       34      -0.02468902      -0.00699983      -0.01163090
O        0.95449387      -1.87402015       6.42454283       35      -0.00204223      -0.00243818      -0.02798029
O       -0.64019929       1.65178033       3.08685945       36       0.00163085       0.00273000      -0.02798389
O       -0.95449388      -0.71979019       4.92700572       37       0.00203760       0.02301292      -0.01611439
O       -0.36046008       4.83682989       1.47637634       38       0.02101594      -0.01874540       0.00025351
O        3.49526088       4.50860558       4.81405972       39       0.02466948      -0.01357543       0.00025403
40