40
Lattice="9.523550507046727 7.464247619168917e-10 -2.432424117986645e-15 -3.1745168363859815 8.978889525758298 -1.2928628747084003e-09 -3.1745168353303734 -4.489444762132709 7.775946427942603" Properties=species:S:1:pos:R:3:spacegroup_kinds:I:1:forces:R:3 spacegroup="P 1" unit_cell=conventional occupancy="_JSON {\"0\": {\"In\": 1}, \"1\": {\"In\": 1}, \"2\": {\"In\": 1}, \"3\": {\"In\": 1}, \"4\": {\"In\": 1}, \"5\": {\"In\": 1}, \"6\": {\"In\": 1}, \"7\": {\"In\": 1}, \"8\": {\"In\": 1}, \"9\": {\"In\": 1}, \"10\": {\"In\": 1}, \"11\": {\"In\": 1}, \"12\": {\"In\": 1}, \"13\": {\"In\": 1}, \"14\": {\"In\": 1}, \"15\": {\"In\": 1}, \"16\": {\"O\": 1}, \"17\": {\"O\": 1}, \"18\": {\"O\": 1}, \"19\": {\"O\": 1}, \"20\": {\"O\": 1}, \"21\": {\"O\": 1}, \"22\": {\"O\": 1}, \"23\": {\"O\": 1}, \"24\": {\"O\": 1}, \"25\": {\"O\": 1}, \"26\": {\"O\": 1}, \"27\": {\"O\": 1}, \"28\": {\"O\": 1}, \"29\": {\"O\": 1}, \"30\": {\"O\": 1}, \"31\": {\"O\": 1}, \"32\": {\"O\": 1}, \"33\": {\"O\": 1}, \"34\": {\"O\": 1}, \"35\": {\"O\": 1}, \"36\": {\"O\": 1}, \"37\": {\"O\": 1}, \"38\": {\"O\": 1}, \"39\": {\"O\": 1}}" n_minim_iter=5 energy=-45144.40886986605 stress="0.09915552011982963 6.117687018001146e-17 0.0 6.117687018001146e-17 0.09915552011982962 4.163336342344337e-17 0.0 4.163336342344337e-17 0.0991555201198293" pbc="T T T"
In      -4.51183784       3.19035113       6.13806938        0       0.00141514      -0.00092225       0.00158329
In       7.68635467       1.29909363       1.63787704        1      -0.00141514       0.00092225      -0.00158329
In       1.33732100      -0.94562875       5.52585025        2      -0.00132489       0.00081221      -0.00156786
In      -1.58725842      -2.24472238       3.88797321        3       0.00000000       0.00000000       0.00000000
In      -1.33732100       4.31271232       3.58186364        4       0.00120045      -0.00086055      -0.00156503
In       5.01171267      -3.01361869       5.83195982        5       0.00132258       0.00199800      -0.00005528
In      -1.33732100       1.47582607       5.83195982        6       0.00127707       0.00187562       0.00001543
In      -1.83719583       7.50306346       1.94398660        7      -0.00132258      -0.00199800       0.00005528
In       4.51183784       0.17673244       4.19408278        8      -0.00120045       0.00086055       0.00156503
In      -1.58725842       4.48944476      -0.00000000        9       0.00000000       0.00000000       0.00000000
In       4.51183784       6.91089959       0.30610956       10      -0.00134417       0.00090529       0.00168356
In      -1.33732100      -2.42145482       7.46983686       11       0.00134417      -0.00090529      -0.00168356
In       4.51183784       3.01361869       1.94398660       12      -0.00127707      -0.00187562      -0.00001543
In       1.83719583       5.43507351       2.25009617       13       0.00132489      -0.00081221       0.00156786
In       4.76177525       0.00000000      -0.00000000       14       0.00000000       0.00000000       0.00000000
In       1.58725842       2.24472238       3.88797321       15       0.00000000       0.00000000       0.00000000
O        1.04568685       4.50920600       4.19110194       16       0.00235025       0.00631360      -0.00099836
O       -2.12882999       3.61972013       5.66328172       17       0.00237339      -0.00402583      -0.00495529
O       -0.45279089       2.43458152      -0.05994442       18       0.00293183      -0.00442847      -0.00425595
O       -1.04568685      -0.84996339       2.07843723       19      -0.00236644       0.00228263      -0.00596676
O        4.12231486       5.30479924       2.13838165       20      -0.00458402      -0.00474266      -0.00171313
O        2.22671881       3.04522917       1.77530851       21       0.00458248      -0.00088857      -0.00496480
O        2.22671881       6.74901484       0.36307314       22       0.00458685      -0.00384200       0.00325245
O       -2.44627577       6.34953532       3.82802879       23       0.00515738      -0.00129944      -0.00425646
O        3.62730773       2.05486324       7.83589084       24      -0.00293183       0.00442847       0.00425595
O        5.62079260      -1.86009055       3.94791763       25      -0.00515738       0.00129944       0.00425646
O        6.80182456       3.41009976       1.74959156       26      -0.00294443      -0.00590017       0.00171930
O        3.90275790       2.38512491       4.25104635       27       0.00516740      -0.00304033       0.00325090
O        0.72824106       4.73367407       7.47281770       28       0.00515429       0.00433154       0.00100273
O        2.44627577      -0.24422930       0.30312872       29      -0.00515429      -0.00433154      -0.00100273
O       -3.62730773       1.07934501       6.02635487       30       0.00294443       0.00590017      -0.00171930
O        5.30334682       0.86972463       2.11266470       31      -0.00237339       0.00402583       0.00495529
O        0.94779803       1.44421560       6.00063791       32      -0.00458248       0.00088857       0.00496480
O        3.62730773      -0.97551823       5.96641045       33      -0.00294031       0.00146656      -0.00596882
O        2.12882998      -0.01976123       3.58484449       34      -0.00235025      -0.00631360       0.00099836
O        0.94779803      -2.25957007       7.41287328       35      -0.00458685       0.00384200      -0.00325245
O       -0.72824107       2.10431986       3.52490007       36      -0.00516740       0.00304033      -0.00325090
O       -0.94779803      -0.81535447       5.63756477       37       0.00458402       0.00474266       0.00171313
O       -0.45279089       5.46496300       1.80953597       38       0.00294031      -0.00146656       0.00596882
O        4.22020368       5.33940816       5.69750919       39       0.00236644      -0.00228263       0.00596676
