40
Lattice="9.257016417268627 7.255366821680034e-10 1.5632652130954929e-15 -3.0856721397735845 8.727598776032616 -1.2566819167266777e-09 -3.085672138747521 -4.363799387290759 7.558322254920003" Properties=species:S:1:pos:R:3:spacegroup_kinds:I:1:forces:R:3 spacegroup="P 1" unit_cell=conventional occupancy="_JSON {\"0\": {\"In\": 1}, \"1\": {\"In\": 1}, \"2\": {\"In\": 1}, \"3\": {\"In\": 1}, \"4\": {\"In\": 1}, \"5\": {\"In\": 1}, \"6\": {\"In\": 1}, \"7\": {\"In\": 1}, \"8\": {\"In\": 1}, \"9\": {\"In\": 1}, \"10\": {\"In\": 1}, \"11\": {\"In\": 1}, \"12\": {\"In\": 1}, \"13\": {\"In\": 1}, \"14\": {\"In\": 1}, \"15\": {\"In\": 1}, \"16\": {\"O\": 1}, \"17\": {\"O\": 1}, \"18\": {\"O\": 1}, \"19\": {\"O\": 1}, \"20\": {\"O\": 1}, \"21\": {\"O\": 1}, \"22\": {\"O\": 1}, \"23\": {\"O\": 1}, \"24\": {\"O\": 1}, \"25\": {\"O\": 1}, \"26\": {\"O\": 1}, \"27\": {\"O\": 1}, \"28\": {\"O\": 1}, \"29\": {\"O\": 1}, \"30\": {\"O\": 1}, \"31\": {\"O\": 1}, \"32\": {\"O\": 1}, \"33\": {\"O\": 1}, \"34\": {\"O\": 1}, \"35\": {\"O\": 1}, \"36\": {\"O\": 1}, \"37\": {\"O\": 1}, \"38\": {\"O\": 1}, \"39\": {\"O\": 1}}" n_minim_iter=1 energy=-45148.06595973734 stress="0.07992746205781259 3.578379011439989e-18 -2.7755575615628914e-17 3.578379011439989e-18 0.07992746205781272 4.163336342344337e-17 -2.7755575615628914e-17 4.163336342344337e-17 0.07992746205781276" pbc="T T T"
In      -4.40497265       3.11478603       5.94251572        0       0.02155150      -0.01524279       0.02653096
In       7.49064479       1.24901336       1.61580653        1      -0.02155150       0.01524279      -0.02653096
In       1.31930051      -0.93288633       5.39496766        2      -0.02179344       0.01542096      -0.02671839
In      -1.54283607      -2.18189969       3.77916113        3       0.00000000       0.00000000       0.00000000
In      -1.31930051       4.20573588       3.50538709        4       0.02171065      -0.01525744      -0.02655564
In       4.85204377      -2.95672252       5.66874169        5       0.02185515       0.03062158      -0.00013858
In      -1.31930051       1.40707687       5.66874169        6       0.02182173       0.03052774      -0.00007302
In      -1.76637163       7.32052191       1.88958056        7      -0.02185515      -0.03062158       0.00013858
In       4.40497265       0.15806351       4.05293515        8      -0.02171065       0.01525744       0.02655564
In      -1.54283607       4.36379939      -0.00000000        9       0.00000000       0.00000000       0.00000000
In       4.40497265       6.70376259       0.27377403       10      -0.02154687       0.01527055       0.02659601
In      -1.31930051      -2.33996320       7.28454822       11       0.02154687      -0.01527055      -0.02659601
In       4.40497265       2.95672252       1.88958056       12      -0.02182173      -0.03052774       0.00007302
In       1.76637163       5.29668573       2.16335459       13       0.02179344      -0.01542096       0.02671839
In       4.62850821       0.00000000      -0.00000000       14       0.00000000       0.00000000       0.00000000
In       1.54283607       2.18189970       3.77916112       15       0.00000000       0.00000000       0.00000000
O        0.95835976       4.37349530       4.09431017       16       0.02383284       0.01342245      -0.05092559
O       -2.12731238       3.54092866       5.50277026       17       0.02382487      -0.05080089       0.01383228
O       -0.44721532       2.35292063       0.00213827       18      -0.02731592      -0.01465092      -0.04878334
O       -0.95835976      -0.81317481       2.03875818       19      -0.02383079      -0.03738693      -0.03708971
O        4.04752368       5.17820874       2.03661990       20      -0.05585671       0.00921792       0.01171240
O        2.12382059       3.00723949       1.72360913       21       0.05584462      -0.00553893       0.01382817
O        2.12382059       6.53476864       0.31301077       22       0.05582997       0.01474219      -0.00212656
O       -2.36742662       6.18303085       3.78129940       23       0.00471103       0.03062236      -0.04879466
O        3.53288745       2.01087876       7.55618398       24       0.02731592       0.01465092       0.04878334
O        5.45309876      -1.81923146       3.77702285       25      -0.00471103      -0.03062236       0.04879466
O        6.61855959       3.36021181       1.74254122       26       0.02730666      -0.04957242      -0.01169826
O        3.80391766       2.36508561       4.09217189       27       0.00471309      -0.05756186      -0.00212733
O        0.71824552       4.54328171       7.24317321       28       0.00471258       0.02692922       0.05090733
O        2.36742662      -0.17948232       0.31514904       29      -0.00471258      -0.02692922      -0.05090733
O       -3.53288745       1.00358758       5.81578103       30      -0.02730666       0.04957242       0.01169826
O        5.21298452       0.82287073       2.05555199       31      -0.02382487       0.05080089      -0.01383228
O        0.96185154       1.35655990       5.83471312       32      -0.05584462       0.00553893      -0.01382817
O        3.53288745      -1.00729117       5.81791930       33       0.02730512       0.03492484      -0.03707762
O        2.12731238      -0.00969591       3.46401208       34      -0.02383284      -0.01342245       0.05092559
O        0.96185154      -2.17096925       7.24531148       35      -0.05582997      -0.01474219       0.00212656
O       -0.71824552       1.99871378       3.46615036       36      -0.00471309       0.05756186       0.00212733
O       -0.96185155      -0.81440934       5.52170235       37       0.05585671      -0.00921792      -0.01171240
O       -0.44721532       5.37109057       1.74040295       38      -0.02730512      -0.03492484       0.03707762
O        4.04403190       5.17697420       5.51956407       39       0.02383079       0.03738693       0.03708971
40
Lattice="9.257016417268623 7.255366821680031e-10 1.5632652130954874e-15 -3.085672139773583 8.727598776032613 -1.2566819167266773e-09 -3.08567213874752 -4.363799387290757 7.55832225492" Properties=species:S:1:pos:R:3:spacegroup_kinds:I:1:forces:R:3 spacegroup="P 1" unit_cell=conventional occupancy="_JSON {\"0\": {\"In\": 1}, \"1\": {\"In\": 1}, \"2\": {\"In\": 1}, \"3\": {\"In\": 1}, \"4\": {\"In\": 1}, \"5\": {\"In\": 1}, \"6\": {\"In\": 1}, \"7\": {\"In\": 1}, \"8\": {\"In\": 1}, \"9\": {\"In\": 1}, \"10\": {\"In\": 1}, \"11\": {\"In\": 1}, \"12\": {\"In\": 1}, \"13\": {\"In\": 1}, \"14\": {\"In\": 1}, \"15\": {\"In\": 1}, \"16\": {\"O\": 1}, \"17\": {\"O\": 1}, \"18\": {\"O\": 1}, \"19\": {\"O\": 1}, \"20\": {\"O\": 1}, \"21\": {\"O\": 1}, \"22\": {\"O\": 1}, \"23\": {\"O\": 1}, \"24\": {\"O\": 1}, \"25\": {\"O\": 1}, \"26\": {\"O\": 1}, \"27\": {\"O\": 1}, \"28\": {\"O\": 1}, \"29\": {\"O\": 1}, \"30\": {\"O\": 1}, \"31\": {\"O\": 1}, \"32\": {\"O\": 1}, \"33\": {\"O\": 1}, \"34\": {\"O\": 1}, \"35\": {\"O\": 1}, \"36\": {\"O\": 1}, \"37\": {\"O\": 1}, \"38\": {\"O\": 1}, \"39\": {\"O\": 1}}" n_minim_iter=2 energy=-45148.071050035265 stress="0.07942431165107115 -3.253934432256772e-17 -3.469446951953614e-17 -3.253934432256772e-17 0.07942431165107118 2.0816681711721685e-17 -3.469446951953614e-17 2.0816681711721685e-17 0.07942431165107122" pbc="T T T"
In      -4.40342368       3.11369075       5.94441281        0       0.00802801      -0.00570271       0.00991443
In       7.48909582       1.25010865       1.61390944        1      -0.00802801       0.00570271      -0.00991443
In       1.31775154      -0.93179105       5.39307056        2      -0.00817045       0.00576390      -0.00991006
In      -1.54283607      -2.18189969       3.77916113        3       0.00000000       0.00000000       0.00000000
In      -1.31775154       4.20464059       3.50349000        4       0.00802081      -0.00566003      -0.00986198
In       4.85359274      -2.95453194       5.66874169        5       0.00820388       0.01143473      -0.00003034
In      -1.31775154       1.40926745       5.66874169        6       0.00807481       0.01129229       0.00002520
In      -1.76792060       7.31833134       1.88958056        7      -0.00820388      -0.01143473       0.00003034
In       4.40342368       0.15915880       4.05483225        8      -0.00802081       0.00566003       0.00986198
In      -1.54283607       4.36379939      -0.00000000        9       0.00000000       0.00000000       0.00000000
In       4.40342368       6.70485788       0.27567112       10      -0.00793828       0.00556258       0.00994708
In      -1.31775154      -2.34105849       7.28265113       11       0.00793828      -0.00556258      -0.00994708
In       4.40342368       2.95453195       1.88958056       12      -0.00807481      -0.01129229      -0.00002520
In       1.76792060       5.29559044       2.16525168       13       0.00817045      -0.00576390       0.00991006
In       4.62850821       0.00000000      -0.00000000       14       0.00000000       0.00000000       0.00000000
In       1.54283607       2.18189970       3.77916112       15       0.00000000       0.00000000       0.00000000
O        0.96006171       4.37445400       4.09067327       16       0.02525363       0.00756161      -0.01295836
O       -2.12561043       3.53729967       5.50375845       17       0.02525312      -0.01499802      -0.00006916
O       -0.44916558       2.35187415      -0.00134657       18       0.00139405       0.00186482      -0.02928127
O       -0.96006172      -0.81584511       2.03610947       19      -0.02525183      -0.00743743      -0.01302624
O        4.04353492       5.17886706       2.03745604       20      -0.02256863      -0.00946192       0.01626069
O        2.12780936       3.00684453       1.72459732       21       0.02255552      -0.01881482      -0.00007379
O        2.12780936       6.53582191       0.31285871       22       0.02254678       0.00934185       0.01632111
O       -2.36709007       6.18521840       3.77781456       23      -0.00129686      -0.00194992      -0.02927715
O        3.53483771       2.01192524       7.55966882       24      -0.00139405      -0.00186482       0.02928127
O        5.45276221      -1.82141901       3.78050769       25       0.00129686       0.00194992       0.02927715
O        6.62050985       3.35667061       1.74170508       26      -0.00139791      -0.02441597      -0.01624809
O        3.80425421       2.36097388       4.09201984       27      -0.00128812      -0.02437715       0.01632188
O        0.71858207       4.54520590       7.24681010       28      -0.00129147       0.02631241       0.01294885
O        2.36709007      -0.18140650       0.31151214       29       0.00129147      -0.02631241      -0.01294885
O       -3.53483771       1.00712879       5.81661717       30       0.00139791       0.02441597       0.01624809
O        5.21128256       0.82649972       2.05456380       31      -0.02525312       0.01499802       0.00006916
O        0.95786278       1.35695486       5.83372492       32      -0.02255552       0.01881482       0.00007379
O        3.53483771      -1.00479646       5.81527060       33      -0.00140151       0.02628490      -0.01302315
O        2.12561042      -0.01065461       3.46764898       34      -0.02525363      -0.00756161       0.01295836
O        0.95786278      -2.17202252       7.24546354       35      -0.02254678      -0.00934185      -0.01632111
O       -0.71858207       2.00282552       3.46630241       36       0.00128812       0.02437715      -0.01632188
O       -0.95786278      -0.81506767       5.52086621       37       0.02256863       0.00946192      -0.01626069
O       -0.44916558       5.36859585       1.74305165       38       0.00140151      -0.02628490       0.01302315
O        4.04573385       5.17964450       5.52221278       39       0.02525183       0.00743743       0.01302624
40
Lattice="9.257016417268625 7.255366821680033e-10 1.5632652130954799e-15 -3.085672139773584 8.727598776032615 -1.2566819167266775e-09 -3.0856721387475208 -4.363799387290758 7.558322254920002" Properties=species:S:1:pos:R:3:spacegroup_kinds:I:1:forces:R:3 spacegroup="P 1" unit_cell=conventional occupancy="_JSON {\"0\": {\"In\": 1}, \"1\": {\"In\": 1}, \"2\": {\"In\": 1}, \"3\": {\"In\": 1}, \"4\": {\"In\": 1}, \"5\": {\"In\": 1}, \"6\": {\"In\": 1}, \"7\": {\"In\": 1}, \"8\": {\"In\": 1}, \"9\": {\"In\": 1}, \"10\": {\"In\": 1}, \"11\": {\"In\": 1}, \"12\": {\"In\": 1}, \"13\": {\"In\": 1}, \"14\": {\"In\": 1}, \"15\": {\"In\": 1}, \"16\": {\"O\": 1}, \"17\": {\"O\": 1}, \"18\": {\"O\": 1}, \"19\": {\"O\": 1}, \"20\": {\"O\": 1}, \"21\": {\"O\": 1}, \"22\": {\"O\": 1}, \"23\": {\"O\": 1}, \"24\": {\"O\": 1}, \"25\": {\"O\": 1}, \"26\": {\"O\": 1}, \"27\": {\"O\": 1}, \"28\": {\"O\": 1}, \"29\": {\"O\": 1}, \"30\": {\"O\": 1}, \"31\": {\"O\": 1}, \"32\": {\"O\": 1}, \"33\": {\"O\": 1}, \"34\": {\"O\": 1}, \"35\": {\"O\": 1}, \"36\": {\"O\": 1}, \"37\": {\"O\": 1}, \"38\": {\"O\": 1}, \"39\": {\"O\": 1}}" n_minim_iter=3 energy=-45148.07244026498 stress="0.07904143989995555 1.9571541830883998e-17 6.938893903907228e-18 1.9571541830883998e-17 0.0790414398999556 3.469446951953614e-17 6.938893903907228e-18 3.469446951953614e-17 0.07904143989995556" pbc="T T T"
In      -4.40233357       3.11291992       5.94574791        0      -0.00088677       0.00051242      -0.00090529
In       7.48800571       1.25087947       1.61257434        1       0.00088677      -0.00051242       0.00090529
In       1.31666143      -0.93102023       5.39173546        2       0.00084127      -0.00046614       0.00101996
In      -1.54283607      -2.18189969       3.77916113        3       0.00000000       0.00000000       0.00000000
In      -1.31666144       4.20386977       3.50215490        4      -0.00075128       0.00062092       0.00089526
In       4.85468284      -2.95299030       5.66874169        5      -0.00067389      -0.00107446       0.00001260
In      -1.31666144       1.41080909       5.66874169        6      -0.00078984      -0.00123387       0.00009822
In      -1.76901071       7.31678969       1.88958056        7       0.00067389       0.00107446      -0.00001260
In       4.40233357       0.15992962       4.05616735        8       0.00075128      -0.00062092      -0.00089526
In      -1.54283607       4.36379939      -0.00000000        9       0.00000000       0.00000000       0.00000000
In       4.40233357       6.70562870       0.27700622       10       0.00094437      -0.00069651      -0.00096468
In      -1.31666144      -2.34182931       7.28131603       11      -0.00094437       0.00069651       0.00096468
In       4.40233357       2.95299031       1.88958056       12       0.00078984       0.00123387      -0.00009822
In       1.76901070       5.29481962       2.16658679       13      -0.00084127       0.00046614      -0.00101996
In       4.62850821       0.00000000      -0.00000000       14       0.00000000       0.00000000       0.00000000
In       1.54283607       2.18189970       3.77916112       15       0.00000000       0.00000000       0.00000000
O        0.96165079       4.37518997       4.08825657       16       0.02499755       0.00270583       0.01233847
O       -2.12402135       3.53483876       5.50432943       17       0.02498932       0.00935290      -0.00851421
O       -0.45026218       2.35131229      -0.00406485       18       0.01967357       0.01309746      -0.01501910
O       -0.96165079      -0.81757005       2.03426375       19      -0.02499575       0.01203945       0.00383403
O        4.04068505       5.17902260       2.03832860       20       0.00047334      -0.02070535       0.01885339
O        2.13065922       3.00616664       1.72516831       21      -0.00048182      -0.02668214      -0.00851704
O        2.13065922       6.53665535       0.31316029       22      -0.00049134       0.00596342       0.02735628
O       -2.36692588       6.18643957       3.77509627       23      -0.00579218      -0.02293244      -0.01500162
O        3.53593431       2.01248710       7.56238710       24      -0.01967357      -0.01309746       0.01501910
O        5.45259802      -1.82264018       3.78322598       25       0.00579218       0.02293244       0.01500162
O        6.62160645       3.35403558       1.74083252       26      -0.01967794      -0.00644961      -0.01884439
O        3.80441840       2.35800919       4.09232142       27      -0.00578395      -0.00153366       0.02735268
O        0.71874626       4.54694941       7.24922681       28      -0.00578961       0.02444914      -0.01234824
O        2.36692588      -0.18315002       0.30909544       29       0.00578961      -0.02444914       0.01234824
O       -3.53593431       1.00976381       5.81748973       30       0.01967794       0.00644961       0.01884439
O        5.20969349       0.82896064       2.05399281       31      -0.02498932      -0.00935290       0.00851421
O        0.95501291       1.35763275       5.83315394       32       0.00048182       0.02668214       0.00851704
O        3.53593431      -1.00272328       5.81342488       33      -0.01967383       0.01955273       0.00383197
O        2.12402135      -0.01139058       3.47006568       34      -0.02499755      -0.00270583      -0.01233847
O        0.95501291      -2.17285595       7.24516196       35       0.00049134      -0.00596342      -0.02735628
O       -0.71874626       2.00579020       3.46600083       36       0.00578395       0.00153366      -0.02735268
O       -0.95501292      -0.81522321       5.51999365       37      -0.00047334       0.02070535      -0.01885339
O       -0.45026218       5.36652267       1.74489737       38       0.01967383      -0.01955273      -0.00383197
O        4.04732293       5.18136944       5.52405850       39       0.02499575      -0.01203945      -0.00383403
40
Lattice="9.257016417268618 7.255366821680029e-10 1.5632652130954755e-15 -3.0856721397735822 8.727598776032607 -1.2566819167266765e-09 -3.085672138747519 -4.363799387290754 7.5583222549199975" Properties=species:S:1:pos:R:3:spacegroup_kinds:I:1:forces:R:3 spacegroup="P 1" unit_cell=conventional occupancy="_JSON {\"0\": {\"In\": 1}, \"1\": {\"In\": 1}, \"2\": {\"In\": 1}, \"3\": {\"In\": 1}, \"4\": {\"In\": 1}, \"5\": {\"In\": 1}, \"6\": {\"In\": 1}, \"7\": {\"In\": 1}, \"8\": {\"In\": 1}, \"9\": {\"In\": 1}, \"10\": {\"In\": 1}, \"11\": {\"In\": 1}, \"12\": {\"In\": 1}, \"13\": {\"In\": 1}, \"14\": {\"In\": 1}, \"15\": {\"In\": 1}, \"16\": {\"O\": 1}, \"17\": {\"O\": 1}, \"18\": {\"O\": 1}, \"19\": {\"O\": 1}, \"20\": {\"O\": 1}, \"21\": {\"O\": 1}, \"22\": {\"O\": 1}, \"23\": {\"O\": 1}, \"24\": {\"O\": 1}, \"25\": {\"O\": 1}, \"26\": {\"O\": 1}, \"27\": {\"O\": 1}, \"28\": {\"O\": 1}, \"29\": {\"O\": 1}, \"30\": {\"O\": 1}, \"31\": {\"O\": 1}, \"32\": {\"O\": 1}, \"33\": {\"O\": 1}, \"34\": {\"O\": 1}, \"35\": {\"O\": 1}, \"36\": {\"O\": 1}, \"37\": {\"O\": 1}, \"38\": {\"O\": 1}, \"39\": {\"O\": 1}}" n_minim_iter=4 energy=-45148.07380559627 stress="0.07868886735216574 -2.2461553877077495e-17 -2.0816681711721685e-17 -2.2461553877077495e-17 0.07868886735216564 -3.469446951953614e-17 -2.0816681711721685e-17 -3.469446951953614e-17 0.07868886735216576" pbc="T T T"
In      -4.40135301       3.11222656       5.94694885        0      -0.00475166       0.00331801      -0.00560732
In       7.48702515       1.25157283       1.61137340        1       0.00475166      -0.00331801       0.00560732
In       1.31568087      -0.93032686       5.39053453        2       0.00469921      -0.00322519       0.00577187
In      -1.54283607      -2.18189969       3.77916113        3       0.00000000       0.00000000       0.00000000
In      -1.31568087       4.20317641       3.50095396        4      -0.00461667       0.00339900       0.00565463
In       4.85566340      -2.95160358       5.66874169        5      -0.00455342      -0.00654294      -0.00001234
In      -1.31568087       1.41219581       5.66874169        6      -0.00463236      -0.00670698       0.00013473
In      -1.76999127       7.31540297       1.88958056        7       0.00455342       0.00654294       0.00001234
In       4.40135301       0.16062298       4.05736829        8       0.00461667      -0.00339900      -0.00565463
In      -1.54283607       4.36379939      -0.00000000        9       0.00000000       0.00000000       0.00000000
In       4.40135301       6.70632206       0.27820716       10       0.00477428      -0.00340080      -0.00567622
In      -1.31568087      -2.34252267       7.28011509       11      -0.00477428       0.00340080       0.00567622
In       4.40135301       2.95160358       1.88958056       12       0.00463236       0.00670698      -0.00013473
In       1.76999126       5.29412626       2.16778772       13      -0.00469921       0.00322519      -0.00577187
In       4.62850821       0.00000000      -0.00000000       14       0.00000000       0.00000000       0.00000000
In       1.54283607       2.18189970       3.77916112       15       0.00000000       0.00000000       0.00000000
O        0.96508272       4.37609613       4.08689650       16       0.01917555      -0.00316554       0.02644534
O       -2.12058942       3.53320783       5.50422471       17       0.01916732       0.02450159      -0.01048367
O       -0.44980152       2.35178238      -0.00780863       18       0.02648236       0.01931516      -0.00151335
O       -0.96508272      -0.81829482       2.03279896       19      -0.01917297       0.02131907       0.01596784
O        4.03800342       5.17758590       2.04060759       20       0.01669932      -0.02219222       0.01748685
O        2.13334085       3.00347463       1.72506359       21      -0.01670497      -0.02624479      -0.01048599
O        2.13334085       6.53791066       0.31554400       22      -0.01671140       0.00404023       0.02796075
O       -2.36721553       6.18584857       3.77135250       23      -0.00938607      -0.03142274      -0.00150204
O        3.53547366       2.01201702       7.56613088       24      -0.02648236      -0.01931516       0.00151335
O        5.45288766      -1.82204917       3.78696975       25       0.00938607       0.03142274       0.00150204
O        6.62114580       3.35102841       1.73855353       26      -0.02649059       0.00835249      -0.01747682
O        3.80412875       2.35506249       4.09470513       27      -0.00937450       0.01440949       0.02795766
O        0.71845661       4.55048712       7.25058687       28      -0.00938041       0.01700476      -0.02645254
O        2.36721552      -0.18668773       0.30773537       29       0.00938041      -0.01700476       0.02645254
O       -3.53547366       1.01277098       5.81976872       30       0.02649059      -0.00835249       0.01747682
O        5.20626155       0.83059156       2.05409754       31      -0.01916732      -0.02450159       0.01048367
O        0.95233128       1.36032476       5.83325866       32       0.01670497       0.02624479       0.01048599
O        3.53547366      -0.99924603       5.81196009       33      -0.02648185       0.01096961       0.01596912
O        2.12058942      -0.01229673       3.47142575       34      -0.01917555       0.00316554      -0.02644534
O        0.95233128      -2.17411127       7.24277825       35       0.01671140      -0.00404023      -0.02796075
O       -0.71845661       2.00873691       3.46361712       36       0.00937450      -0.01440949      -0.02795766
O       -0.95233129      -0.81378651       5.51771466       37      -0.01669932       0.02219222      -0.01748685
O       -0.44980152       5.36304543       1.74636216       38       0.02648185      -0.01096961      -0.01596912
O        4.05075486       5.18209422       5.52552329       39       0.01917297      -0.02131907      -0.01596784
40
Lattice="9.2570164172686 7.255366821680016e-10 1.5632652130954765e-15 -3.0856721397735765 8.72759877603259 -1.2566819167266738e-09 -3.0856721387475132 -4.3637993872907455 7.5583222549199816" Properties=species:S:1:pos:R:3:spacegroup_kinds:I:1:forces:R:3 spacegroup="P 1" unit_cell=conventional occupancy="_JSON {\"0\": {\"In\": 1}, \"1\": {\"In\": 1}, \"2\": {\"In\": 1}, \"3\": {\"In\": 1}, \"4\": {\"In\": 1}, \"5\": {\"In\": 1}, \"6\": {\"In\": 1}, \"7\": {\"In\": 1}, \"8\": {\"In\": 1}, \"9\": {\"In\": 1}, \"10\": {\"In\": 1}, \"11\": {\"In\": 1}, \"12\": {\"In\": 1}, \"13\": {\"In\": 1}, \"14\": {\"In\": 1}, \"15\": {\"In\": 1}, \"16\": {\"O\": 1}, \"17\": {\"O\": 1}, \"18\": {\"O\": 1}, \"19\": {\"O\": 1}, \"20\": {\"O\": 1}, \"21\": {\"O\": 1}, \"22\": {\"O\": 1}, \"23\": {\"O\": 1}, \"24\": {\"O\": 1}, \"25\": {\"O\": 1}, \"26\": {\"O\": 1}, \"27\": {\"O\": 1}, \"28\": {\"O\": 1}, \"29\": {\"O\": 1}, \"30\": {\"O\": 1}, \"31\": {\"O\": 1}, \"32\": {\"O\": 1}, \"33\": {\"O\": 1}, \"34\": {\"O\": 1}, \"35\": {\"O\": 1}, \"36\": {\"O\": 1}, \"37\": {\"O\": 1}, \"38\": {\"O\": 1}, \"39\": {\"O\": 1}}" n_minim_iter=5 energy=-45148.07642822966 stress="0.0783096682317562 1.2137057530406223e-17 6.938893903907228e-18 1.2137057530406223e-17 0.07830966823175614 0.0 6.938893903907228e-18 0.0 0.07830966823175611" pbc="T T T"
In      -4.40033266       3.11150506       5.94819853        0       0.00169641      -0.00115211       0.00220498
In       7.48600479       1.25229433       1.61012372        1      -0.00169641       0.00115211      -0.00220498
In       1.31466051      -0.92960536       5.38928485        2      -0.00182548       0.00125496      -0.00209596
In      -1.54283607      -2.18189969       3.77916113        3       0.00000000       0.00000000       0.00000000
In      -1.31466052       4.20245491       3.49970428        4       0.00171750      -0.00113000      -0.00205611
In       4.85668376      -2.95016057       5.66874169        5       0.00181391       0.00240912       0.00001774
In      -1.31466052       1.41363881       5.66874169        6       0.00175658       0.00228777       0.00009385
In      -1.77101163       7.31395997       1.88958056        7      -0.00181391      -0.00240912      -0.00001774
In       4.40033265       0.16134448       4.05861797        8      -0.00171750       0.00113000       0.00205611
In      -1.54283607       4.36379939      -0.00000000        9       0.00000000       0.00000000       0.00000000
In       4.40033265       6.70704357       0.27945684       10      -0.00162879       0.00114028       0.00217824
In      -1.31466052      -2.34324417       7.27886541       11       0.00162879      -0.00114028      -0.00217824
In       4.40033265       2.95016058       1.88958056       12      -0.00175658      -0.00228777      -0.00009385
In       1.77101162       5.29340475       2.16903740       13       0.00182548      -0.00125496       0.00209596
In       4.62850821       0.00000000      -0.00000000       14       0.00000000       0.00000000       0.00000000
In       1.54283607       2.18189970       3.77916112       15       0.00000000       0.00000000       0.00000000
O        0.97352518       4.37748155       4.08773097       16      -0.00021032      -0.01098221       0.01743465
O       -2.11214696       3.53323779       5.50260766       17      -0.00021083       0.02058862       0.00079319
O       -0.44565293       2.35484856      -0.01468458       18       0.00897366       0.01408682       0.01205693
O       -0.97352518      -0.81687944       2.03201638       19       0.00021032       0.00960718       0.01822655
O        4.03521751       5.17220069       2.04670096       20       0.01947225      -0.00264592       0.00617348
O        2.13612676       2.99550501       1.72344654       21      -0.01948511      -0.00666790       0.00079576
O        2.13612676       6.54049506       0.32325442       22      -0.01949076       0.00401709       0.00537155
O       -2.36872349       6.18091517       3.76447655       23      -0.01028750      -0.01317253       0.01206490
O        3.53132506       2.00895083       7.57300682       24      -0.00897366      -0.01408682      -0.01205693
O        5.45439562      -1.81711578       3.79384570       25       0.01028750       0.01317253      -0.01206490
O        6.61699720       3.34660676       1.73246017       26      -0.00898344       0.01749687      -0.00616242
O        3.80262079       2.35157444       4.10241554       27      -0.01028004       0.01704076       0.00537669
O        0.71694865       4.55890856       7.24975240       28      -0.01028441      -0.00386977      -0.01743439
O        2.36872348      -0.19510917       0.30856985       29       0.01028441       0.00386977       0.01743439
O       -3.53132507       1.01719263       5.82586208       30       0.00898344      -0.01749687       0.00616242
O        5.19781909       0.83056160       2.05571459       31       0.00021083      -0.02058862      -0.00079319
O        0.94954538       1.36829438       5.83487571       32       0.01948511       0.00666790      -0.00079576
O        3.53132506      -0.99175820       5.81117751       33      -0.00898549      -0.00340157       0.01822887
O        2.11214695      -0.01368216       3.47059128       34       0.00021032       0.01098221      -0.01743465
O        0.94954538      -2.17669567       7.23506783       35       0.01949076      -0.00401709      -0.00537155
O       -0.71694865       2.01222495       3.45590670       36       0.01028004      -0.01704076      -0.00537669
O       -0.94954538      -0.80840129       5.51162129       37      -0.01947225       0.00264592      -0.00617348
O       -0.44565293       5.35555759       1.74714474       38       0.00898549       0.00340157      -0.01822887
O        4.05919732       5.18067883       5.52630587       39      -0.00021032      -0.00960718      -0.01822655
40