40
Lattice="8.749731541259477 6.857819416005224e-10 -3.914790355363617e-15 -2.9165771810663874 8.249326008286605 -1.1878094884013844e-09 -2.916577180096544 -4.124663003457518 7.144125888067751" Properties=species:S:1:pos:R:3:spacegroup_kinds:I:1:forces:R:3 spacegroup="P 1" unit_cell=conventional occupancy="_JSON {\"0\": {\"In\": 1}, \"1\": {\"In\": 1}, \"2\": {\"In\": 1}, \"3\": {\"In\": 1}, \"4\": {\"In\": 1}, \"5\": {\"In\": 1}, \"6\": {\"In\": 1}, \"7\": {\"In\": 1}, \"8\": {\"In\": 1}, \"9\": {\"In\": 1}, \"10\": {\"In\": 1}, \"11\": {\"In\": 1}, \"12\": {\"In\": 1}, \"13\": {\"In\": 1}, \"14\": {\"In\": 1}, \"15\": {\"In\": 1}, \"16\": {\"O\": 1}, \"17\": {\"O\": 1}, \"18\": {\"O\": 1}, \"19\": {\"O\": 1}, \"20\": {\"O\": 1}, \"21\": {\"O\": 1}, \"22\": {\"O\": 1}, \"23\": {\"O\": 1}, \"24\": {\"O\": 1}, \"25\": {\"O\": 1}, \"26\": {\"O\": 1}, \"27\": {\"O\": 1}, \"28\": {\"O\": 1}, \"29\": {\"O\": 1}, \"30\": {\"O\": 1}, \"31\": {\"O\": 1}, \"32\": {\"O\": 1}, \"33\": {\"O\": 1}, \"34\": {\"O\": 1}, \"35\": {\"O\": 1}, \"36\": {\"O\": 1}, \"37\": {\"O\": 1}, \"38\": {\"O\": 1}, \"39\": {\"O\": 1}}" n_minim_iter=1 energy=-45150.177278525676 stress="-0.054288827098221276 7.7099941169280815e-19 -3.122502256758253e-17 7.7099941169280815e-19 -0.05428882709822119 6.938893903907228e-18 -3.122502256758253e-17 6.938893903907228e-18 -0.05428882709822125" pbc="T T T"
In      -4.17505543       2.95221000       5.60281111        0      -0.01230222       0.00865459      -0.01505921
In       7.09163260       1.17245300       1.54131477        1       0.01230222      -0.00865459       0.01505921
In       1.25847824      -0.88987850       5.11337772        2       0.01228705      -0.00865253       0.01507926
In      -1.45828859      -2.06233150       3.57206294        3       0.00000000       0.00000000       0.00000000
In      -1.25847824       3.98337575       3.32734624        4      -0.01229553       0.00864251       0.01506152
In       4.57467612      -2.81092275       5.35809441        5      -0.01227856      -0.01742102       0.00004011
In      -1.25847824       1.31374026       5.35809441        6      -0.01229065      -0.01739506       0.00006968
In      -1.65809894       6.93558576       1.78603147        7       0.01227856       0.01742102      -0.00004011
In       4.17505542       0.14128725       3.81677964        8       0.01229553      -0.00864251      -0.01506152
In      -1.45828859       4.12466301      -0.00000000        9       0.00000000       0.00000000       0.00000000
In       4.17505542       6.32828176       0.24471669       10       0.01227470      -0.00866770      -0.01504018
In      -1.25847824      -2.20361875       6.89940919       11      -0.01227470       0.00866770       0.01504018
In       4.17505542       2.81092275       1.78603147       12       0.01229065       0.01739506      -0.00006968
In       1.65809894       5.01454151       2.03074817       13      -0.01228705       0.00865253      -0.01507926
In       4.37486577       0.00000000      -0.00000000       14       0.00000000       0.00000000       0.00000000
In       1.45828859       2.06233150       3.57206294       15       0.00000000       0.00000000       0.00000000
O        0.85548617       4.12352230       3.89521365       16      -0.02582673      -0.01713949       0.06503863
O       -2.06109101       3.37392433       5.19750694       17      -0.02582545       0.06487974      -0.01768225
O       -0.42371662       2.21612580       0.05874693       18       0.03641865       0.02087222       0.05855945
O       -0.85548617      -0.75187938       1.94859470       19       0.02582390       0.04776313       0.04734790
O        3.86799670       4.91045995       1.88984777       20       0.06977460      -0.01395852      -0.01120873
O        1.96515766       2.88090530       1.62544399       21      -0.06977795       0.00271894      -0.01769099
O        1.96515766       6.15421765       0.26440377       22      -0.06978746      -0.01667875       0.00648149
O       -2.23062231       5.84776977       3.63080988       23      -0.00754465      -0.04129860       0.05855919
O        3.34029380       1.90853721       7.08537895       24      -0.03641865      -0.02087222      -0.05855945
O        5.14719949      -1.72310676       3.51331600       25       0.00754465       0.04129860      -0.05855919
O        6.25687098       3.22127074       1.68221517       26      -0.03642174       0.06112644       0.01119767
O        3.60253205       2.28282021       3.83646671       27      -0.00753693       0.07135095       0.00648252
O        0.68595487       4.24339904       6.82097517       28      -0.00754465      -0.03006340      -0.06503297
O        2.23062231      -0.11873603       0.32315071       29       0.00754465       0.03006340       0.06503297
O       -3.34029380       0.90339227       5.46191071       30       0.03642174      -0.06112644      -0.01119767
O        4.97766819       0.75073868       1.94661895       31       0.02582545      -0.06487974       0.01768225
O        0.95141952       1.24375771       5.51868189       32       0.06977795      -0.00271894       0.01769099
O        3.34029380      -1.00514494       5.52065765       33      -0.03642379      -0.04026554       0.04736127
O        2.06109101       0.00114071       3.24891223       34       0.02582673       0.01713949      -0.06503863
O        0.95141952      -2.02955464       6.87972211       35       0.06978746       0.01667875      -0.00648149
O       -0.68595487       1.84184280       3.30765917       36       0.00753693      -0.07135095      -0.00648252
O       -0.95141952      -0.78579694       5.25427812       37      -0.06977460       0.01395852       0.01120873
O       -0.42371662       5.12980795       1.62346823       38       0.03642379       0.04026554      -0.04736127
O        3.77206335       4.87654239       5.19553118       39      -0.02582390      -0.04776313      -0.04734790
40
Lattice="8.749731541259477 6.857819416005224e-10 -3.914790355363617e-15 -2.9165771810663874 8.249326008286605 -1.1878094884013844e-09 -2.916577180096544 -4.124663003457518 7.144125888067751" Properties=species:S:1:pos:R:3:spacegroup_kinds:I:1:forces:R:3 spacegroup="P 1" unit_cell=conventional occupancy="_JSON {\"0\": {\"In\": 1}, \"1\": {\"In\": 1}, \"2\": {\"In\": 1}, \"3\": {\"In\": 1}, \"4\": {\"In\": 1}, \"5\": {\"In\": 1}, \"6\": {\"In\": 1}, \"7\": {\"In\": 1}, \"8\": {\"In\": 1}, \"9\": {\"In\": 1}, \"10\": {\"In\": 1}, \"11\": {\"In\": 1}, \"12\": {\"In\": 1}, \"13\": {\"In\": 1}, \"14\": {\"In\": 1}, \"15\": {\"In\": 1}, \"16\": {\"O\": 1}, \"17\": {\"O\": 1}, \"18\": {\"O\": 1}, \"19\": {\"O\": 1}, \"20\": {\"O\": 1}, \"21\": {\"O\": 1}, \"22\": {\"O\": 1}, \"23\": {\"O\": 1}, \"24\": {\"O\": 1}, \"25\": {\"O\": 1}, \"26\": {\"O\": 1}, \"27\": {\"O\": 1}, \"28\": {\"O\": 1}, \"29\": {\"O\": 1}, \"30\": {\"O\": 1}, \"31\": {\"O\": 1}, \"32\": {\"O\": 1}, \"33\": {\"O\": 1}, \"34\": {\"O\": 1}, \"35\": {\"O\": 1}, \"36\": {\"O\": 1}, \"37\": {\"O\": 1}, \"38\": {\"O\": 1}, \"39\": {\"O\": 1}}" n_minim_iter=2 energy=-45150.182124465355 stress="-0.05359408778964223 5.875275028828204e-19 -3.122502256758253e-17 5.875275028828204e-19 -0.05359408778964216 6.938893903907228e-18 -3.122502256758253e-17 6.938893903907228e-18 -0.0535940877896422" pbc="T T T"
In      -4.17593329       2.95283075       5.60173594        0       0.01941492      -0.01373741       0.02382873
In       7.09251047       1.17183226       1.54238994        1      -0.01941492       0.01373741      -0.02382873
In       1.25935611      -0.89049924       5.11445288        2      -0.01950619       0.01380271      -0.02377628
In      -1.45828859      -2.06233150       3.57206294        3       0.00000000       0.00000000       0.00000000
In      -1.25935611       3.98399650       3.32842141        4       0.01947097      -0.01380451      -0.02382179
In       4.57379825      -2.81216424       5.35809441        5       0.01949822       0.02743804       0.00003677
In      -1.25935611       1.31249876       5.35809441        6       0.01948793       0.02751209       0.00002520
In      -1.65722107       6.93682725       1.78603147        7      -0.01949822      -0.02743804      -0.00003677
In       4.17593329       0.14066651       3.81570447        8      -0.01947097       0.01380451       0.02382179
In      -1.45828859       4.12466301      -0.00000000        9       0.00000000       0.00000000       0.00000000
In       4.17593329       6.32766101       0.24364153       10      -0.01942649       0.01377109       0.02380456
In      -1.25935611      -2.20299800       6.90048435       11       0.01942649      -0.01377109      -0.02380456
In       4.17593329       2.81216425       1.78603147       12      -0.01948793      -0.02751209      -0.00002520
In       1.65722107       5.01516225       2.02967300       13       0.01950619      -0.01380271       0.02377628
In       4.37486577       0.00000000      -0.00000000       14       0.00000000       0.00000000       0.00000000
In       1.45828859       2.06233150       3.57206294       15       0.00000000       0.00000000       0.00000000
O        0.85364138       4.12229892       3.89985908       16      -0.03018501      -0.01373663      -0.00628866
O       -2.06293580       3.37855908       5.19624371       17      -0.03018064       0.00141154       0.01504481
O       -0.42111529       2.21761666       0.06292907       18      -0.02167337      -0.00459868       0.02547269
O       -0.85364138      -0.74846801       1.95197690       19       0.03017987      -0.01231481       0.00874201
O        3.87298131       4.90946314       1.88904782       20       0.01138999       0.02701304      -0.01672168
O        1.96017305       2.88109967       1.62418076       21      -0.01139153       0.02798260       0.01503864
O        1.96017305       6.15302648       0.26486706       22      -0.01139436      -0.00096648      -0.03175698
O       -2.23116080       5.84482025       3.63499202       23      -0.00289095       0.02196159       0.02547372
O        3.33769246       1.90704635       7.08119681       24       0.02167337       0.00459868      -0.02547269
O        5.14773798      -1.72015724       3.50913387       25       0.00289095      -0.02196159      -0.02547372
O        6.25426964       3.22563801       1.68301511       26       0.02167414       0.01974325       0.01671346
O        3.60199356       2.28791681       3.83693000       27      -0.00288761       0.01105729      -0.03175750
O        0.68541638       4.24125196       6.81632975       28      -0.00289249      -0.03303559       0.00629303
O        2.23116080      -0.11658895       0.32779613       29       0.00289249       0.03303559      -0.00629303
O       -3.33769247       0.89902500       5.46111077       30      -0.02167414      -0.01974325      -0.01671346
O        4.97951298       0.74610393       1.94788218       31       0.03018064      -0.00141154      -0.01504481
O        0.95640413       1.24356334       5.51994512       32       0.01139153      -0.02798260      -0.01503864
O        3.33769246      -1.00802135       5.52403984       33       0.02167157      -0.02435066       0.00875358
O        2.06293580       0.00236409       3.24426681       34       0.03018501       0.01373663       0.00628866
O        0.95640413      -2.02836347       6.87925883       35       0.01139436       0.00096648       0.03175698
O       -0.68541638       1.83674620       3.30719588       36       0.00288761      -0.01105729       0.03175750
O       -0.95640413      -0.78480013       5.25507806       37      -0.01138999      -0.02701304       0.01672168
O       -0.42111529       5.13268435       1.62008604       38      -0.02167157       0.02435066      -0.00875358
O        3.77021856       4.87313102       5.19214898       39      -0.03017987       0.01231481      -0.00874201
40
Lattice="8.749731541259477 6.857819416005224e-10 -3.914790355363617e-15 -2.9165771810663874 8.249326008286605 -1.1878094884013844e-09 -2.916577180096544 -4.124663003457518 7.144125888067752" Properties=species:S:1:pos:R:3:spacegroup_kinds:I:1:forces:R:3 spacegroup="P 1" unit_cell=conventional occupancy="_JSON {\"0\": {\"In\": 1}, \"1\": {\"In\": 1}, \"2\": {\"In\": 1}, \"3\": {\"In\": 1}, \"4\": {\"In\": 1}, \"5\": {\"In\": 1}, \"6\": {\"In\": 1}, \"7\": {\"In\": 1}, \"8\": {\"In\": 1}, \"9\": {\"In\": 1}, \"10\": {\"In\": 1}, \"11\": {\"In\": 1}, \"12\": {\"In\": 1}, \"13\": {\"In\": 1}, \"14\": {\"In\": 1}, \"15\": {\"In\": 1}, \"16\": {\"O\": 1}, \"17\": {\"O\": 1}, \"18\": {\"O\": 1}, \"19\": {\"O\": 1}, \"20\": {\"O\": 1}, \"21\": {\"O\": 1}, \"22\": {\"O\": 1}, \"23\": {\"O\": 1}, \"24\": {\"O\": 1}, \"25\": {\"O\": 1}, \"26\": {\"O\": 1}, \"27\": {\"O\": 1}, \"28\": {\"O\": 1}, \"29\": {\"O\": 1}, \"30\": {\"O\": 1}, \"31\": {\"O\": 1}, \"32\": {\"O\": 1}, \"33\": {\"O\": 1}, \"34\": {\"O\": 1}, \"35\": {\"O\": 1}, \"36\": {\"O\": 1}, \"37\": {\"O\": 1}, \"38\": {\"O\": 1}, \"39\": {\"O\": 1}}" n_minim_iter=3 energy=-45150.183587621585 stress="-0.05322743682414566 2.150746434324045e-17 -2.0816681711721685e-17 2.150746434324045e-17 -0.05322743682414555 3.8163916471489756e-17 -2.0816681711721685e-17 3.8163916471489756e-17 -0.053227436824145664" pbc="T T T"
In      -4.17505639       2.95221069       5.60280992        0       0.00341134      -0.00236439       0.00410631
In       7.09163357       1.17245232       1.54131596        1      -0.00341134       0.00236439      -0.00410631
In       1.25847921      -0.88987918       5.11337890        2      -0.00339591       0.00229188      -0.00402069
In      -1.45828859      -2.06233150       3.57206294        3       0.00000000       0.00000000       0.00000000
In      -1.25847921       3.98337644       3.32734743        4       0.00331698      -0.00236850      -0.00410888
In       4.57467515      -2.81092412       5.35809441        5       0.00334526       0.00474780      -0.00001388
In      -1.25847921       1.31373889       5.35809441        6       0.00330310       0.00471720       0.00004885
In      -1.65809797       6.93558713       1.78603147        7      -0.00334526      -0.00474780       0.00001388
In       4.17505639       0.14128657       3.81677845        8      -0.00331698       0.00236850       0.00410888
In      -1.45828859       4.12466301      -0.00000000        9       0.00000000       0.00000000       0.00000000
In       4.17505639       6.32828107       0.24471551       10      -0.00336300       0.00230705       0.00412996
In      -1.25847921      -2.20361807       6.89941037       11       0.00336300      -0.00230705      -0.00412996
In       4.17505639       2.81092412       1.78603147       12      -0.00330310      -0.00471720      -0.00004885
In       1.65809797       5.01454219       2.03074698       13       0.00339591      -0.00229188       0.00402069
In       4.37486577       0.00000000      -0.00000000       14       0.00000000       0.00000000       0.00000000
In       1.45828859       2.06233150       3.57206294       15       0.00000000       0.00000000       0.00000000
O        0.85075646       4.12080373       3.90164823       16      -0.01226031       0.00992292      -0.01392535
O       -2.06582072       3.38085613       5.19664400       17      -0.01225568      -0.01703536      -0.00162082
O       -0.42132093       2.21801917       0.06661080       18      -0.01078295      -0.01806817       0.00017612
O       -0.85075647      -0.74766615       1.95416635       19       0.01225491      -0.00710344      -0.01556777
O        3.87610863       4.91078693       1.88755554       20      -0.01197209       0.00720629      -0.01574595
O        1.95704573       2.88305391       1.62458106       21       0.01197800       0.01723539      -0.00163214
O        1.95704573       6.15239602       0.26297449       22       0.01197106      -0.01002833      -0.01411201
O       -2.23160884       5.84487996       3.63867374       23       0.01343761       0.01618921       0.00017509
O        3.33789810       1.90664384       7.07751508       24       0.01078295       0.01806817      -0.00017612
O        5.14818602      -1.72021695       3.50545214       25      -0.01343761      -0.01618921      -0.00017509
O        6.25447528       3.22902774       1.68450739       26       0.01077601      -0.00888779       0.01573310
O        3.60154552       2.29107542       3.83503743       27       0.01344687      -0.00794162      -0.01411047
O        0.68496834       4.23803364       6.81454060       28       0.01343659      -0.00825093       0.01393409
O        2.23160883      -0.11337063       0.32958529       29      -0.01343659       0.00825093      -0.01393409
O       -3.33789811       0.89563527       5.45961849       30      -0.01077601       0.00888779      -0.01573310
O        4.98239789       0.74380688       1.94748188       31       0.01225568       0.01703536       0.00162082
O        0.95953145       1.24160910       5.51954483       32      -0.01197800      -0.01723539       0.00163214
O        3.33789810      -1.01100856       5.52622929       33       0.01078346      -0.00918707      -0.01555440
O        2.06582071       0.00385928       3.24247765       34       0.01226031      -0.00992292       0.01392535
O        0.95953145      -2.02773301       6.88115140       35      -0.01197106       0.01002833       0.01411201
O       -0.68496835       1.83358758       3.30908845       36      -0.01344687       0.00794162       0.01411047
O       -0.95953145      -0.78612392       5.25657034       37       0.01197209      -0.00720629       0.01574595
O       -0.42132093       5.13567157       1.61789659       38      -0.01078346       0.00918707       0.01555440
O        3.76733364       4.87232916       5.18995954       39      -0.01225491       0.00710344       0.01556777
40
Lattice="8.749731541259477 6.857819416005224e-10 -3.914790355363617e-15 -2.9165771810663874 8.249326008286605 -1.1878094884013844e-09 -2.916577180096544 -4.124663003457518 7.144125888067752" Properties=species:S:1:pos:R:3:spacegroup_kinds:I:1:forces:R:3 spacegroup="P 1" unit_cell=conventional occupancy="_JSON {\"0\": {\"In\": 1}, \"1\": {\"In\": 1}, \"2\": {\"In\": 1}, \"3\": {\"In\": 1}, \"4\": {\"In\": 1}, \"5\": {\"In\": 1}, \"6\": {\"In\": 1}, \"7\": {\"In\": 1}, \"8\": {\"In\": 1}, \"9\": {\"In\": 1}, \"10\": {\"In\": 1}, \"11\": {\"In\": 1}, \"12\": {\"In\": 1}, \"13\": {\"In\": 1}, \"14\": {\"In\": 1}, \"15\": {\"In\": 1}, \"16\": {\"O\": 1}, \"17\": {\"O\": 1}, \"18\": {\"O\": 1}, \"19\": {\"O\": 1}, \"20\": {\"O\": 1}, \"21\": {\"O\": 1}, \"22\": {\"O\": 1}, \"23\": {\"O\": 1}, \"24\": {\"O\": 1}, \"25\": {\"O\": 1}, \"26\": {\"O\": 1}, \"27\": {\"O\": 1}, \"28\": {\"O\": 1}, \"29\": {\"O\": 1}, \"30\": {\"O\": 1}, \"31\": {\"O\": 1}, \"32\": {\"O\": 1}, \"33\": {\"O\": 1}, \"34\": {\"O\": 1}, \"35\": {\"O\": 1}, \"36\": {\"O\": 1}, \"37\": {\"O\": 1}, \"38\": {\"O\": 1}, \"39\": {\"O\": 1}}" n_minim_iter=4 energy=-45150.18378993824 stress="-0.05329262601917963 2.327690720516168e-17 -1.734723475976807e-17 2.327690720516168e-17 -0.05329262601917954 1.734723475976807e-17 -1.734723475976807e-17 1.734723475976807e-17 -0.05329262601917969" pbc="T T T"
In      -4.17485673       2.95206950       5.60305446        0      -0.00323805       0.00227851      -0.00396618
In       7.09143391       1.17259350       1.54107142        1       0.00323805      -0.00227851       0.00396618
In       1.25827955      -0.88973800       5.11313436        2       0.00322699      -0.00231322       0.00397441
In      -1.45828859      -2.06233150       3.57206294        3       0.00000000       0.00000000       0.00000000
In      -1.25827955       3.98323525       3.32710289        4      -0.00320848       0.00228623       0.00396567
In       4.57487481      -2.81064175       5.35809441        5      -0.00322288      -0.00455342       0.00000051
In      -1.25827955       1.31402126       5.35809441        6      -0.00323162      -0.00455677       0.00001183
In      -1.65829764       6.93530476       1.78603147        7       0.00322288       0.00455342      -0.00000051
In       4.17485673       0.14142775       3.81702299        8       0.00320848      -0.00228623      -0.00396567
In      -1.45828859       4.12466301      -0.00000000        9       0.00000000       0.00000000       0.00000000
In       4.17485672       6.32842226       0.24496005       10       0.00323342      -0.00227568      -0.00392993
In      -1.25827955      -2.20375925       6.89916584       11      -0.00323342       0.00227568       0.00392993
In       4.17485673       2.81064175       1.78603147       12       0.00323162       0.00455677      -0.00001183
In       1.65829763       5.01440101       2.03099152       13      -0.00322699       0.00231322      -0.00397441
In       4.37486577       0.00000000      -0.00000000       14       0.00000000       0.00000000       0.00000000
In       1.45828859       2.06233150       3.57206294       15       0.00000000       0.00000000       0.00000000
O        0.85057205       4.12096836       3.90109215       16      -0.00856872       0.00921715      -0.00376307
O       -2.06600513       3.38029223       5.19677947       17      -0.00856435      -0.00788017      -0.00609943
O       -0.42175883       2.21763452       0.06643581       18      -0.00158354      -0.01281592       0.00244718
O       -0.85057205      -0.74806542       1.95374573       19       0.00856666       0.00135060      -0.00987612
O        3.87563845       4.91108516       1.88730992       20      -0.00457245       0.00006556      -0.01232253
O        1.95751591       2.88341575       1.62471653       21       0.00457271       0.01070350      -0.00609866
O        1.95751591       6.15233242       0.26259339       22       0.00456679      -0.01063537      -0.00621924
O       -2.23139215       5.84542104       3.63849875       23       0.01154734       0.00576878       0.00244718
O        3.33833601       1.90702849       7.07769008       24       0.00158354       0.01281592      -0.00244718
O        5.14796933      -1.72075803       3.50562713       25      -0.01154734      -0.00576878      -0.00244718
O        6.25491319       3.22868386       1.68475302       26       0.00158534      -0.00428809       0.01231918
O        3.60176221       2.29065334       3.83465634       27       0.01155042      -0.00076465      -0.00621436
O        0.68518503       4.23791464       6.81509668       28       0.01155197      -0.00500337       0.00376949
O        2.23139215      -0.11325163       0.32902920       29      -0.01155197       0.00500337      -0.00376949
O       -3.33833601       0.89597915       5.45937287       30      -0.00158534       0.00428809      -0.01231918
O        4.98258231       0.74437078       1.94734641       31       0.00856435       0.00788017       0.00609943
O        0.95906127       1.24124726       5.51940936       32      -0.00457271      -0.01070350       0.00609866
O        3.33833601      -1.01104934       5.52580867       33       0.00158380      -0.00852346      -0.00986609
O        2.06600513       0.00369465       3.24303374       34       0.00856872      -0.00921715       0.00376307
O        0.95906127      -2.02766942       6.88153249       35      -0.00456679       0.01063537       0.00621924
O       -0.68518503       1.83400967       3.30946955       36      -0.01155042       0.00076465       0.00621436
O       -0.95906127      -0.78642216       5.25681596       37       0.00457245      -0.00006556       0.01232253
O       -0.42175883       5.13571235       1.61831721       38      -0.00158380       0.00852346       0.00986609
O        3.76714923       4.87272843       5.19038015       39      -0.00856666      -0.00135060       0.00987612
40
Lattice="8.749731541259473 6.857819416005222e-10 -3.914790355363619e-15 -2.9165771810663865 8.249326008286602 -1.1878094884013842e-09 -2.916577180096543 -4.124663003457516 7.144125888067751" Properties=species:S:1:pos:R:3:spacegroup_kinds:I:1:forces:R:3 spacegroup="P 1" unit_cell=conventional occupancy="_JSON {\"0\": {\"In\": 1}, \"1\": {\"In\": 1}, \"2\": {\"In\": 1}, \"3\": {\"In\": 1}, \"4\": {\"In\": 1}, \"5\": {\"In\": 1}, \"6\": {\"In\": 1}, \"7\": {\"In\": 1}, \"8\": {\"In\": 1}, \"9\": {\"In\": 1}, \"10\": {\"In\": 1}, \"11\": {\"In\": 1}, \"12\": {\"In\": 1}, \"13\": {\"In\": 1}, \"14\": {\"In\": 1}, \"15\": {\"In\": 1}, \"16\": {\"O\": 1}, \"17\": {\"O\": 1}, \"18\": {\"O\": 1}, \"19\": {\"O\": 1}, \"20\": {\"O\": 1}, \"21\": {\"O\": 1}, \"22\": {\"O\": 1}, \"23\": {\"O\": 1}, \"24\": {\"O\": 1}, \"25\": {\"O\": 1}, \"26\": {\"O\": 1}, \"27\": {\"O\": 1}, \"28\": {\"O\": 1}, \"29\": {\"O\": 1}, \"30\": {\"O\": 1}, \"31\": {\"O\": 1}, \"32\": {\"O\": 1}, \"33\": {\"O\": 1}, \"34\": {\"O\": 1}, \"35\": {\"O\": 1}, \"36\": {\"O\": 1}, \"37\": {\"O\": 1}, \"38\": {\"O\": 1}, \"39\": {\"O\": 1}}" n_minim_iter=5 energy=-45150.18391089285 stress="-0.0533311886415941 2.5487215494066794e-18 -2.0816681711721685e-17 2.5487215494066794e-18 -0.053331188641594085 1.734723475976807e-17 -2.0816681711721685e-17 1.734723475976807e-17 -0.05333118864159418" pbc="T T T"
In      -4.17478059       2.95201567       5.60314771        0      -0.00852681       0.00606832      -0.01050321
In       7.09135777       1.17264734       1.54097817        1       0.00852681      -0.00606832       0.01050321
In       1.25820341      -0.88968416       5.11304112        2       0.00855586      -0.00608323       0.01054050
In      -1.45828859      -2.06233150       3.57206294        3       0.00000000       0.00000000       0.00000000
In      -1.25820341       3.98318142       3.32700964        4      -0.00857643       0.00606472       0.01051376
In       4.57495095      -2.81053408       5.35809441        5      -0.00855149      -0.01206130       0.00000874
In      -1.25820341       1.31412893       5.35809441        6      -0.00856100      -0.01208007       0.00003780
In      -1.65837377       6.93519708       1.78603147        7       0.00855149       0.01206130      -0.00000874
In       4.17478059       0.14148159       3.81711624        8       0.00857643      -0.00606472      -0.01051376
In      -1.45828859       4.12466301      -0.00000000        9       0.00000000       0.00000000       0.00000000
In       4.17478059       6.32847610       0.24505330       10       0.00856872      -0.00609789      -0.01049370
In      -1.25820341      -2.20381309       6.89907259       11      -0.00856872       0.00609789       0.01049370
In       4.17478059       2.81053408       1.78603147       12       0.00856100       0.01208007      -0.00003780
In       1.65837377       5.01434717       2.03108477       13      -0.00855586       0.00608323      -0.01054050
In       4.37486577       0.00000000      -0.00000000       14       0.00000000       0.00000000       0.00000000
In       1.45828859       2.06233150       3.57206294       15       0.00000000       0.00000000       0.00000000
O        0.84996901       4.12135650       3.90061241       16      -0.00288478       0.00306038       0.00424361
O       -2.06660817       3.37968270       5.19668320       17      -0.00288375       0.00213350      -0.00476451
O       -0.42216858       2.21688831       0.06657627       18       0.00394690      -0.00269040       0.00359286
O       -0.84996902      -0.74828682       1.95316973       19       0.00287706       0.00521394      -0.00053890
O        3.87526479       4.91138765       1.88659345       20       0.00297502      -0.00313649      -0.00412765
O        1.95788957       2.88418747       1.62462026       21      -0.00297451       0.00200418      -0.00477377
O        1.95788957       6.15186319       0.26197320       22      -0.00297965      -0.00514144       0.00065357
O       -2.23082520       5.84605609       3.63863921       23       0.00384714      -0.00282256       0.00358900
O        3.33874575       1.90777470       7.07754961       24      -0.00394690       0.00269040      -0.00359286
O        5.14740238      -1.72139308       3.50548667       25      -0.00384714       0.00282256      -0.00358900
O        6.25532293       3.22843240       1.68546948       26      -0.00394999       0.00175632       0.00412225
O        3.60232916       2.29045746       3.83403614       27       0.00384946       0.00452051       0.00065100
O        0.68575198       4.23747548       6.81557642       28       0.00384894      -0.00169641      -0.00424155
O        2.23082520      -0.11281247       0.32854947       29      -0.00384894       0.00169641       0.00424155
O       -3.33874576       0.89623061       5.45865640       30       0.00394999      -0.00175632      -0.00412225
O        4.98318534       0.74498031       1.94744268       31       0.00288375      -0.00213350       0.00476451
O        0.95868761       1.24047554       5.51950563       32       0.00297451      -0.00200418       0.00477377
O        3.33874575      -1.01154409       5.52523267       33      -0.00395153      -0.00444929      -0.00052733
O        2.06660816       0.00330651       3.24351347       34       0.00288478      -0.00306038      -0.00424361
O        0.95868761      -2.02720018       6.88215269       35       0.00297965       0.00514144      -0.00065357
O       -0.68575198       1.83420555       3.31008974       36      -0.00384946      -0.00452051      -0.00065100
O       -0.95868761      -0.78672465       5.25753243       37      -0.00297502       0.00313649       0.00412765
O       -0.42216858       5.13620710       1.61889321       38       0.00395153       0.00444929       0.00052733
O        3.76654619       4.87294983       5.19095616       39      -0.00287706      -0.00521394       0.00053890
40