40
Lattice="8.825819982506335 6.91744648235785e-10 -1.7692742070191767e-15 -2.9419399948209604 8.32106287865204 -1.198135819868127e-09 -2.9419399938426842 -4.160531438634274 7.206251840199093" Properties=species:S:1:pos:R:3:spacegroup_kinds:I:1:forces:R:3 spacegroup="P 1" unit_cell=conventional occupancy="_JSON {\"0\": {\"In\": 1}, \"1\": {\"In\": 1}, \"2\": {\"In\": 1}, \"3\": {\"In\": 1}, \"4\": {\"In\": 1}, \"5\": {\"In\": 1}, \"6\": {\"In\": 1}, \"7\": {\"In\": 1}, \"8\": {\"In\": 1}, \"9\": {\"In\": 1}, \"10\": {\"In\": 1}, \"11\": {\"In\": 1}, \"12\": {\"In\": 1}, \"13\": {\"In\": 1}, \"14\": {\"In\": 1}, \"15\": {\"In\": 1}, \"16\": {\"O\": 1}, \"17\": {\"O\": 1}, \"18\": {\"O\": 1}, \"19\": {\"O\": 1}, \"20\": {\"O\": 1}, \"21\": {\"O\": 1}, \"22\": {\"O\": 1}, \"23\": {\"O\": 1}, \"24\": {\"O\": 1}, \"25\": {\"O\": 1}, \"26\": {\"O\": 1}, \"27\": {\"O\": 1}, \"28\": {\"O\": 1}, \"29\": {\"O\": 1}, \"30\": {\"O\": 1}, \"31\": {\"O\": 1}, \"32\": {\"O\": 1}, \"33\": {\"O\": 1}, \"34\": {\"O\": 1}, \"35\": {\"O\": 1}, \"36\": {\"O\": 1}, \"37\": {\"O\": 1}, \"38\": {\"O\": 1}, \"39\": {\"O\": 1}}" n_minim_iter=1 energy=-45150.73206698508 stress="-0.0257729920329246 1.2425112074797443e-18 8.673617379884035e-18 1.2425112074797443e-18 -0.025772992032924637 -5.204170427930421e-18 8.673617379884035e-18 -5.204170427930421e-18 -0.025772992032924637" pbc="T T T"
In      -4.21034933       2.97716656       5.65277401        0      -0.01559040       0.01103852      -0.01905162
In       7.15228932       1.18336488       1.55347782        1       0.01559040      -0.01103852       0.01905162
In       1.26840933      -0.89690084       5.15660374        2       0.01551635      -0.01104315       0.01912618
In      -1.47097000      -2.08026572       3.60312592        3       0.00000000       0.00000000       0.00000000
In      -1.26840933       4.01729942       3.35504078        4      -0.01558269       0.01100561       0.01917272
In       4.61547066      -2.83393454       5.40468888        5      -0.01564594      -0.02212126       0.00002725
In      -1.26840933       1.32659690       5.40468888        6      -0.01558166      -0.02201687       0.00004345
In      -1.67353066       6.99446598       1.80156296        7       0.01564594       0.02212126      -0.00002725
In       4.21034932       0.14323202       3.85121105        8       0.01558269      -0.01100561      -0.01917272
In      -1.47097000       4.16053144      -0.00000000        9       0.00000000       0.00000000       0.00000000
In       4.21034932       6.38402918       0.24808513       10       0.01556186      -0.01102129      -0.01914701
In      -1.26840933      -2.22349774       6.95816670       11      -0.01556186       0.01102129       0.01914701
In       4.21034932       2.83393454       1.80156296       12       0.01558166       0.02201687      -0.00004345
In       1.67353066       5.05743228       2.04964809       13      -0.01551635       0.01104315      -0.01912618
In       4.41290999       0.00000000      -0.00000000       14       0.00000000       0.00000000       0.00000000
In       1.47097000       2.08026572       3.60312592       15       0.00000000       0.00000000       0.00000000
O        0.87004307       4.16066350       3.92430122       16      -0.02486411      -0.00619122       0.05712606
O       -2.07189692       3.39847853       5.24398686       17      -0.02485383       0.05256467      -0.02320395
O       -0.42833152       2.23630228       0.05068332       18       0.03545474       0.00992060       0.05064894
O       -0.87004308      -0.76192085       1.96203624       19       0.02484791       0.04638810       0.03391157
O        3.89474858       4.95171433       1.91135292       20       0.05782977      -0.01715286      -0.01674328
O        1.98913140       2.90084270       1.64086094       21      -0.05782849       0.00591354      -0.02322812
O        1.98913140       6.21140307       0.27049198       22      -0.05783748      -0.02306100       0.00647250
O       -2.25118318       5.89919789       3.65380924       23       0.00245309      -0.03673695       0.05066668
O        3.37027151       1.92422916       7.15556852       24      -0.03545474      -0.00992060      -0.05064894
O        5.19312317      -1.73866645       3.55244260       25      -0.00245309       0.03673695      -0.05066668
O        6.31221150       3.24230991       1.69177299       26      -0.03545680       0.04881034       0.01673788
O        3.63269681       2.29495840       3.87361790       27       0.00246903       0.06222584       0.00647841
O        0.69075681       4.28743803       6.88507653       28       0.00244461      -0.02551434      -0.05712323
O        2.25118318      -0.12690659       0.32117530       29      -0.00244461       0.02551434       0.05712323
O       -3.37027151       0.91822154       5.51447884       30       0.03545680      -0.04881034      -0.01673788
O        5.01383691       0.76205292       1.96226498       31       0.02485383      -0.05256467       0.02320395
O        0.95280859       1.25968875       5.56539090       32       0.05782849      -0.00591354       0.02322812
O        3.37027151      -1.00600762       5.56516216       33      -0.03545423      -0.03889977       0.03391954
O        2.07189692      -0.00013206       3.28195061       34       0.02486411       0.00619122      -0.05712606
O        0.95280859      -2.05087163       6.93575985       35       0.05783748       0.02306100      -0.00647250
O       -0.69075682       1.86557304       3.33263393       36      -0.00246903      -0.06222584      -0.00647841
O       -0.95280859      -0.79118288       5.29489891       37      -0.05782977       0.01715286       0.01674328
O       -0.42833152       5.16653906       1.64108967       38       0.03545423       0.03889977      -0.03391954
O        3.81198307       4.92245230       5.24421559       39      -0.02484791      -0.04638810      -0.03391157
40
Lattice="8.825819982506335 6.917446482357849e-10 -1.7692742070191767e-15 -2.9419399948209604 8.321062878652038 -1.1981358198681273e-09 -2.9419399938426842 -4.1605314386342735 7.206251840199097" Properties=species:S:1:pos:R:3:spacegroup_kinds:I:1:forces:R:3 spacegroup="P 1" unit_cell=conventional occupancy="_JSON {\"0\": {\"In\": 1}, \"1\": {\"In\": 1}, \"2\": {\"In\": 1}, \"3\": {\"In\": 1}, \"4\": {\"In\": 1}, \"5\": {\"In\": 1}, \"6\": {\"In\": 1}, \"7\": {\"In\": 1}, \"8\": {\"In\": 1}, \"9\": {\"In\": 1}, \"10\": {\"In\": 1}, \"11\": {\"In\": 1}, \"12\": {\"In\": 1}, \"13\": {\"In\": 1}, \"14\": {\"In\": 1}, \"15\": {\"In\": 1}, \"16\": {\"O\": 1}, \"17\": {\"O\": 1}, \"18\": {\"O\": 1}, \"19\": {\"O\": 1}, \"20\": {\"O\": 1}, \"21\": {\"O\": 1}, \"22\": {\"O\": 1}, \"23\": {\"O\": 1}, \"24\": {\"O\": 1}, \"25\": {\"O\": 1}, \"26\": {\"O\": 1}, \"27\": {\"O\": 1}, \"28\": {\"O\": 1}, \"29\": {\"O\": 1}, \"30\": {\"O\": 1}, \"31\": {\"O\": 1}, \"32\": {\"O\": 1}, \"33\": {\"O\": 1}, \"34\": {\"O\": 1}, \"35\": {\"O\": 1}, \"36\": {\"O\": 1}, \"37\": {\"O\": 1}, \"38\": {\"O\": 1}, \"39\": {\"O\": 1}}" n_minim_iter=2 energy=-45150.73585426578 stress="-0.025187513487853506 1.5047892784454666e-17 5.204170427930421e-18 1.5047892784454666e-17 -0.025187513487853495 1.214306433183765e-17 5.204170427930421e-18 1.214306433183765e-17 -0.025187513487853534" pbc="T T T"
In      -4.21146353       2.97795442       5.65140940        0       0.01394412      -0.00979616       0.01697442
In       7.15340352       1.18257702       1.55484243        1      -0.01394412       0.00979616      -0.01697442
In       1.26952353      -0.89768870       5.15796835        2      -0.01383845       0.00968200      -0.01693200
In      -1.47097000      -2.08026572       3.60312592        3       0.00000000       0.00000000       0.00000000
In      -1.26952354       4.01808728       3.35640539        4       0.01384102      -0.00976222      -0.01697982
In       4.61435645      -2.83551026       5.40468888        5       0.01385233       0.01970982      -0.00004011
In      -1.26952354       1.32502118       5.40468888        6       0.01384488       0.01968462       0.00008228
In      -1.67241646       6.99604170       1.80156296        7      -0.01385233      -0.01970982       0.00004011
In       4.21146353       0.14244416       3.84984644        8      -0.01384102       0.00976222       0.01697982
In      -1.47097000       4.16053144      -0.00000000        9       0.00000000       0.00000000       0.00000000
In       4.21146353       6.38324132       0.24672052       10      -0.01397343       0.00980413       0.01702379
In      -1.26952354      -2.22270988       6.95953131       11       0.01397343      -0.00980413      -0.01702379
In       4.21146353       2.83551026       1.80156296       12      -0.01384488      -0.01968462      -0.00008228
In       1.67241646       5.05822014       2.04828348       13       0.01383845      -0.00968200       0.01693200
In       4.41290999       0.00000000      -0.00000000       14       0.00000000       0.00000000       0.00000000
In       1.47097000       2.08026572       3.60312592       15       0.00000000       0.00000000       0.00000000
O        0.86826734       4.16022226       3.92838186       16      -0.02824023      -0.01499879      -0.00587986
O       -2.07367266       3.40223308       5.24232866       17      -0.02823637       0.00240552       0.01592850
O       -0.42579960       2.23701087       0.05430090       18      -0.02127717      -0.00251223       0.02444759
O       -0.86826734      -0.75860754       1.96445869       19       0.02823020      -0.01258581       0.01004144
O        3.89888033       4.95048962       1.91015779       20       0.01167769       0.02669834      -0.01439998
O        1.98499966       2.90126536       1.63920274       21      -0.01168155       0.02582313       0.01592901
O        1.98499966       6.20975570       0.27095504       22      -0.01167127       0.00088986      -0.03032154
O       -2.25100728       5.89657459       3.65742682       23      -0.00472646       0.02090770       0.02444374
O        3.36773960       1.92352057       7.15195094       24       0.02127717       0.00251223      -0.02444759
O        5.19294727      -1.73604314       3.54882502       25       0.00472646      -0.02090770      -0.02444374
O        6.30967959       3.24579712       1.69296813       26       0.02128488       0.01990651       0.01439432
O        3.63287271       2.29940297       3.87408096       27      -0.00472672       0.01071533      -0.03032462
O        0.69093272       4.28561677       6.88099589       28      -0.00472466      -0.03161660       0.00587780
O        2.25100727      -0.12508533       0.32525594       29       0.00472466       0.03161660      -0.00587780
O       -3.36773960       0.91473433       5.51328371       30      -0.02128488      -0.01990651      -0.01439432
O        5.01561265       0.75829836       1.96392317       31       0.02823637      -0.00240552      -0.01592850
O        0.95694033       1.25926609       5.56704909       32       0.01168155      -0.02582313      -0.01592901
O        3.36773960      -1.00878624       5.56758461       33       0.02127845      -0.02241848       0.01004504
O        2.07367266       0.00030918       3.27786997       34       0.02824023       0.01499879       0.00587986
O        0.95694033      -2.04922426       6.93529679       35       0.01167127      -0.00088986       0.03032154
O       -0.69093272       1.86112848       3.33217087       36       0.00472672      -0.01071533       0.03032462
O       -0.95694034      -0.78995818       5.29609405       37      -0.01167769      -0.02669834       0.01439998
O       -0.42579960       5.16931768       1.63866723       38      -0.02127845       0.02241848      -0.01004504
O        3.81020733       4.91913898       5.24179315       39      -0.02823020       0.01258581      -0.01004144
40
Lattice="8.825819982506339 6.917446482357851e-10 -1.7692742070191827e-15 -2.9419399948209612 8.321062878652041 -1.1981358198681277e-09 -2.941939993842685 -4.160531438634275 7.2062518401991005" Properties=species:S:1:pos:R:3:spacegroup_kinds:I:1:forces:R:3 spacegroup="P 1" unit_cell=conventional occupancy="_JSON {\"0\": {\"In\": 1}, \"1\": {\"In\": 1}, \"2\": {\"In\": 1}, \"3\": {\"In\": 1}, \"4\": {\"In\": 1}, \"5\": {\"In\": 1}, \"6\": {\"In\": 1}, \"7\": {\"In\": 1}, \"8\": {\"In\": 1}, \"9\": {\"In\": 1}, \"10\": {\"In\": 1}, \"11\": {\"In\": 1}, \"12\": {\"In\": 1}, \"13\": {\"In\": 1}, \"14\": {\"In\": 1}, \"15\": {\"In\": 1}, \"16\": {\"O\": 1}, \"17\": {\"O\": 1}, \"18\": {\"O\": 1}, \"19\": {\"O\": 1}, \"20\": {\"O\": 1}, \"21\": {\"O\": 1}, \"22\": {\"O\": 1}, \"23\": {\"O\": 1}, \"24\": {\"O\": 1}, \"25\": {\"O\": 1}, \"26\": {\"O\": 1}, \"27\": {\"O\": 1}, \"28\": {\"O\": 1}, \"29\": {\"O\": 1}, \"30\": {\"O\": 1}, \"31\": {\"O\": 1}, \"32\": {\"O\": 1}, \"33\": {\"O\": 1}, \"34\": {\"O\": 1}, \"35\": {\"O\": 1}, \"36\": {\"O\": 1}, \"37\": {\"O\": 1}, \"38\": {\"O\": 1}, \"39\": {\"O\": 1}}" n_minim_iter=3 energy=-45150.73730395237 stress="-0.024856364619182912 1.3402243340337798e-17 -5.204170427930421e-18 1.3402243340337798e-17 -0.02485636461918284 2.0816681711721685e-17 -5.204170427930421e-18 2.0816681711721685e-17 -0.02485636461918293" pbc="T T T"
In      -4.21095572       2.97759535       5.65203134        0       0.00256519      -0.00181288       0.00320385
In       7.15289571       1.18293610       1.55422050        1      -0.00256519       0.00181288      -0.00320385
In       1.26901572      -0.89732962       5.15734642        2      -0.00261456       0.00179797      -0.00319048
In      -1.47097000      -2.08026572       3.60312592        3       0.00000000       0.00000000       0.00000000
In      -1.26901573       4.01772821       3.35578346        4       0.00263075      -0.00180183      -0.00317428
In       4.61486426      -2.83479211       5.40468888        5       0.00258293       0.00367411       0.00000437
In      -1.26901573       1.32573933       5.40468888        6       0.00266392       0.00370419       0.00002520
In      -1.67292427       6.99532355       1.80156296        7      -0.00258293      -0.00367411      -0.00000437
In       4.21095572       0.14280324       3.85046838        8      -0.00263075       0.00180183       0.00317428
In      -1.47097000       4.16053144      -0.00000000        9       0.00000000       0.00000000       0.00000000
In       4.21095572       6.38360040       0.24734245       10      -0.00263898       0.00187485       0.00316117
In      -1.26901573      -2.22306895       6.95890938       11       0.00263898      -0.00187485      -0.00316117
In       4.21095572       2.83479211       1.80156296       12      -0.00266392      -0.00370419      -0.00002520
In       1.67292427       5.05786107       2.04890541       13       0.00261456      -0.00179797       0.00319048
In       4.41290999       0.00000000      -0.00000000       14       0.00000000       0.00000000       0.00000000
In       1.47097000       2.08026572       3.60312592       15       0.00000000       0.00000000       0.00000000
O        0.86536414       4.15891256       3.92983575       16      -0.01345407       0.00328716      -0.01338953
O       -2.07657585       3.40414704       5.24273595       17      -0.01345124      -0.01323835       0.00384406
O       -0.42619764       2.23715341       0.05777637       18      -0.01386108      -0.01295065       0.00334089
O       -0.86536414      -0.75800328       1.96631987       19       0.01345330      -0.00994991      -0.00954779
O        3.90165256       4.95189193       1.90854350       20      -0.00800564       0.01188184      -0.01288688
O        1.98222743       2.90336453       1.63961003       21       0.00799870       0.01709012       0.00384097
O        1.98222743       6.20905884       0.26893346       22       0.00800179      -0.00521857      -0.01672863
O       -2.25127434       5.89690234       3.66090229       23       0.00758450       0.01738529       0.00334449
O        3.36813763       1.92337803       7.14847547       24       0.01386108       0.01295065      -0.00334089
O        5.19321433      -1.73637090       3.54534955       25      -0.00758450      -0.01738529      -0.00334449
O        6.31007762       3.24887823       1.69458242       26       0.01386493      -0.00358386       0.01288380
O        3.63260565       2.30224894       3.87205938       27       0.00758553      -0.00580529      -0.01672863
O        0.69066565       4.28244305       6.87954200       28       0.00758733      -0.01159105       0.01339493
O        2.25127434      -0.12191160       0.32670983       29      -0.00758733       0.01159105      -0.01339493
O       -3.36813763       0.91165321       5.51166942       30      -0.01386493       0.00358386      -0.01288380
O        5.01851584       0.75638440       1.96351588       31       0.01345124       0.01323835      -0.00384406
O        0.95971256       1.25716691       5.56664180       32      -0.00799870      -0.01709012      -0.00384097
O        3.36813763      -1.01172482       5.56944579       33       0.01386467      -0.00936422      -0.00954265
O        2.07657585       0.00161888       3.27641608       34       0.01345407      -0.00328716       0.01338953
O        0.95971256      -2.04852740       6.93731837       35      -0.00800179       0.00521857       0.01672863
O       -0.69066566       1.85828251       3.33419245       36      -0.00758553       0.00580529       0.01672863
O       -0.95971256      -0.79136048       5.29770834       37       0.00800564      -0.01188184       0.01288688
O       -0.42619764       5.17225626       1.63680605       38      -0.01386467       0.00936422       0.00954265
O        3.80730414       4.91853472       5.23993197       39      -0.01345330       0.00994991       0.00954779
40
Lattice="8.825819982506342 6.917446482357852e-10 -1.769274207019183e-15 -2.9419399948209626 8.321062878652041 -1.1981358198681285e-09 -2.9419399938426865 -4.160531438634275 7.206251840199103" Properties=species:S:1:pos:R:3:spacegroup_kinds:I:1:forces:R:3 spacegroup="P 1" unit_cell=conventional occupancy="_JSON {\"0\": {\"In\": 1}, \"1\": {\"In\": 1}, \"2\": {\"In\": 1}, \"3\": {\"In\": 1}, \"4\": {\"In\": 1}, \"5\": {\"In\": 1}, \"6\": {\"In\": 1}, \"7\": {\"In\": 1}, \"8\": {\"In\": 1}, \"9\": {\"In\": 1}, \"10\": {\"In\": 1}, \"11\": {\"In\": 1}, \"12\": {\"In\": 1}, \"13\": {\"In\": 1}, \"14\": {\"In\": 1}, \"15\": {\"In\": 1}, \"16\": {\"O\": 1}, \"17\": {\"O\": 1}, \"18\": {\"O\": 1}, \"19\": {\"O\": 1}, \"20\": {\"O\": 1}, \"21\": {\"O\": 1}, \"22\": {\"O\": 1}, \"23\": {\"O\": 1}, \"24\": {\"O\": 1}, \"25\": {\"O\": 1}, \"26\": {\"O\": 1}, \"27\": {\"O\": 1}, \"28\": {\"O\": 1}, \"29\": {\"O\": 1}, \"30\": {\"O\": 1}, \"31\": {\"O\": 1}, \"32\": {\"O\": 1}, \"33\": {\"O\": 1}, \"34\": {\"O\": 1}, \"35\": {\"O\": 1}, \"36\": {\"O\": 1}, \"37\": {\"O\": 1}, \"38\": {\"O\": 1}, \"39\": {\"O\": 1}}" n_minim_iter=4 energy=-45150.737511031024 stress="-0.02485269198847679 2.0301596797457106e-17 -1.734723475976807e-18 2.0301596797457106e-17 -0.024852691988476724 3.469446951953614e-17 -1.734723475976807e-18 3.469446951953614e-17 -0.024852691988476814" pbc="T T T"
In      -4.21069745       2.97741272       5.65234765        0      -0.00499925       0.00356972      -0.00609840
In       7.15263744       1.18311872       1.55390418        1       0.00499925      -0.00356972       0.00609840
In       1.26875745      -0.89714700       5.15703010        2       0.00497817      -0.00356278       0.00611408
In      -1.47097000      -2.08026572       3.60312592        3       0.00000000       0.00000000       0.00000000
In      -1.26875746       4.01754558       3.35546714        4      -0.00498743       0.00354889       0.00610483
In       4.61512253      -2.83442686       5.40468888        5      -0.00502162      -0.00709290      -0.00000154
In      -1.26875746       1.32610458       5.40468888        6      -0.00496737      -0.00707002       0.00000823
In      -1.67318254       6.99495830       1.80156296        7       0.00502162       0.00709290       0.00000154
In       4.21069745       0.14298586       3.85078469        8       0.00498743      -0.00354889      -0.00610483
In      -1.47097000       4.16053144      -0.00000000        9       0.00000000       0.00000000       0.00000000
In       4.21069745       6.38378302       0.24765877       10       0.00494372      -0.00350416      -0.00610843
In      -1.26875746      -2.22325158       6.95859306       11      -0.00494372       0.00350416       0.00610843
In       4.21069745       2.83442686       1.80156296       12       0.00496737       0.00707002      -0.00000823
In       1.67318254       5.05767844       2.04922173       13      -0.00497817       0.00356278      -0.00611408
In       4.41290999       0.00000000      -0.00000000       14       0.00000000       0.00000000       0.00000000
In       1.47097000       2.08026572       3.60312592       15       0.00000000       0.00000000       0.00000000
O        0.86462028       4.15870614       3.92958587       16      -0.00772128       0.00784804      -0.00579064
O       -2.07731971       3.40403385       5.24303966       17      -0.00771922      -0.00893793      -0.00390576
O       -0.42674693       2.23690264       0.05831838       18      -0.00359312      -0.01185330       0.00114517
O       -0.86462028      -0.75832290       1.96637370       19       0.00771742      -0.00108578      -0.00969949
O        3.90179379       4.95252447       1.90805531       20      -0.00586289       0.00174681      -0.01083900
O        1.98208619       2.90410358       1.63991374       21       0.00585440       0.01025305      -0.00390962
O        1.98208619       6.20895233       0.26814157       22       0.00585826      -0.00851267      -0.00693169
O       -2.25122101       5.89750381       3.66144430       23       0.00997640       0.00734024       0.00114723
O        3.36868692       1.92362881       7.14793346       24       0.00359312       0.01185330      -0.00114517
O        5.19316100      -1.73697236       3.54480754       25      -0.00997640      -0.00734024      -0.00114723
O        6.31062691       3.24922224       1.69507060       26       0.00359826      -0.00493986       0.01083771
O        3.63265898       2.30241760       3.87126749       27       0.00997511      -0.00268449      -0.00692758
O        0.69071899       4.28167292       6.87979188       28       0.00997845      -0.00466295       0.00579347
O        2.25122100      -0.12114148       0.32645995       29      -0.00997845       0.00466295      -0.00579347
O       -3.36868692       0.91130920       5.51118123       30      -0.00359826       0.00493986      -0.01083771
O        5.01925971       0.75649759       1.96321218       31       0.00771922       0.00893793       0.00390576
O        0.95985380       1.25642786       5.56633809       32      -0.00585440      -0.01025305       0.00390962
O        3.36868692      -1.01231960       5.56949962       33       0.00359260      -0.00691344      -0.00969486
O        2.07731971       0.00182531       3.27666596       34       0.00772128      -0.00784804       0.00579064
O        0.95985380      -2.04842089       6.93811026       35      -0.00585826       0.00851267       0.00693169
O       -0.69071899       1.85811385       3.33498434       36      -0.00997511       0.00268449       0.00692758
O       -0.95985380      -0.79199303       5.29819652       37       0.00586289      -0.00174681       0.01083900
O       -0.42674693       5.17285104       1.63675222       38      -0.00359260       0.00691344       0.00969486
O        3.80656027       4.91885434       5.23987814       39      -0.00771742       0.00108578       0.00969949
40
Lattice="8.825819982506342 6.917446482357852e-10 -1.7692742070191771e-15 -2.9419399948209626 8.321062878652041 -1.1981358198681285e-09 -2.9419399938426865 -4.160531438634275 7.206251840199103" Properties=species:S:1:pos:R:3:spacegroup_kinds:I:1:forces:R:3 spacegroup="P 1" unit_cell=conventional occupancy="_JSON {\"0\": {\"In\": 1}, \"1\": {\"In\": 1}, \"2\": {\"In\": 1}, \"3\": {\"In\": 1}, \"4\": {\"In\": 1}, \"5\": {\"In\": 1}, \"6\": {\"In\": 1}, \"7\": {\"In\": 1}, \"8\": {\"In\": 1}, \"9\": {\"In\": 1}, \"10\": {\"In\": 1}, \"11\": {\"In\": 1}, \"12\": {\"In\": 1}, \"13\": {\"In\": 1}, \"14\": {\"In\": 1}, \"15\": {\"In\": 1}, \"16\": {\"O\": 1}, \"17\": {\"O\": 1}, \"18\": {\"O\": 1}, \"19\": {\"O\": 1}, \"20\": {\"O\": 1}, \"21\": {\"O\": 1}, \"22\": {\"O\": 1}, \"23\": {\"O\": 1}, \"24\": {\"O\": 1}, \"25\": {\"O\": 1}, \"26\": {\"O\": 1}, \"27\": {\"O\": 1}, \"28\": {\"O\": 1}, \"29\": {\"O\": 1}, \"30\": {\"O\": 1}, \"31\": {\"O\": 1}, \"32\": {\"O\": 1}, \"33\": {\"O\": 1}, \"34\": {\"O\": 1}, \"35\": {\"O\": 1}, \"36\": {\"O\": 1}, \"37\": {\"O\": 1}, \"38\": {\"O\": 1}, \"39\": {\"O\": 1}}" n_minim_iter=5 energy=-45150.737655251374 stress="-0.02486003724988904 2.3604007372697864e-17 5.204170427930421e-18 2.3604007372697864e-17 -0.02486003724988897 4.683753385137379e-17 5.204170427930421e-18 4.683753385137379e-17 -0.02486003724988904" pbc="T T T"
In      -4.21068217       2.97740192       5.65236636        0      -0.01109200       0.00786346      -0.01353609
In       7.15262216       1.18312952       1.55388547        1       0.01109200      -0.00786346       0.01353609
In       1.26874218      -0.89713619       5.15701139        2       0.01102669      -0.00784289       0.01353917
In      -1.47097000      -2.08026572       3.60312592        3       0.00000000       0.00000000       0.00000000
In      -1.26874218       4.01753478       3.35544843        4      -0.01104777       0.00782901       0.01357337
In       4.61513781      -2.83440525       5.40468888        5      -0.01104135      -0.01567473      -0.00000051
In      -1.26874218       1.32612619       5.40468888        6      -0.01097990      -0.01559066      -0.00000129
In      -1.67319782       6.99493670       1.80156296        7       0.01104135       0.01567473       0.00000051
In       4.21068217       0.14299666       3.85080340        8       0.01104777      -0.00782901      -0.01357337
In      -1.47097000       4.16053144      -0.00000000        9       0.00000000       0.00000000       0.00000000
In       4.21068217       6.38379382       0.24767748       10       0.01102875      -0.00777090      -0.01357825
In      -1.26874218      -2.22326238       6.95857435       11      -0.01102875       0.00777090       0.01357825
In       4.21068217       2.83440526       1.80156296       12       0.01097990       0.01559066       0.00000129
In       1.67319781       5.05766764       2.04924044       13      -0.01102669       0.00784289      -0.01353917
In       4.41290999       0.00000000      -0.00000000       14       0.00000000       0.00000000       0.00000000
In       1.47097000       2.08026572       3.60312592       15       0.00000000       0.00000000       0.00000000
O        0.86351247       4.15884253       3.92913006       16      -0.00043554       0.00567982       0.00246852
O       -2.07842752       3.40357090       5.24314944       17      -0.00043503      -0.00070165      -0.00615548
O       -0.42742407       2.23613516       0.05895562       18       0.00455265      -0.00422818      -0.00004782
O       -0.86351247      -0.75864944       1.96602766       19       0.00043272       0.00497868      -0.00369030
O        3.90172659       4.95321893       1.90707204       20      -0.00052733      -0.00500748      -0.00363580
O        1.98215339       2.90530235       1.64002352       21       0.00052091       0.00063763      -0.00615728
O        1.98215339       6.20844802       0.26704852       22       0.00052142      -0.00565257       0.00252431
O       -2.25072314       5.89839805       3.66208154       23       0.00549882      -0.00288375      -0.00004602
O        3.36936406       1.92439628       7.14729622       24      -0.00455265       0.00422818       0.00004782
O        5.19266313      -1.73786660       3.54417030       25      -0.00549882       0.00288375       0.00004602
O        6.31130405       3.24939037       1.69605387       26      -0.00455034      -0.00215947       0.00363605
O        3.63315685       2.30252234       3.87017444       27       0.00549856       0.00139225       0.00252200
O        0.69121686       4.28067393       6.88024770       28       0.00550396       0.00148096      -0.00246312
O        2.25072314      -0.12014249       0.32600414       29      -0.00550396      -0.00148096       0.00246312
O       -3.36936406       0.91114108       5.51019796       30       0.00455034       0.00215947      -0.00363605
O        5.02036751       0.75696054       1.96310239       31       0.00043503       0.00070165       0.00615548
O        0.95978660       1.25522910       5.56622831       32      -0.00052091      -0.00063763       0.00615728
O        3.36936406      -1.01325520       5.56915358       33      -0.00455214      -0.00206562      -0.00368131
O        2.07842752       0.00168891       3.27712178       34       0.00043554      -0.00567982      -0.00246852
O        0.95978660      -2.04791658       6.93920332       35      -0.00052142       0.00565257      -0.00252431
O       -0.69121686       1.85800910       3.33607740       36      -0.00549856      -0.00139225      -0.00252200
O       -0.95978660      -0.79268749       5.29917979       37       0.00052733       0.00500748       0.00363580
O       -0.42742407       5.17378665       1.63709825       38       0.00455214       0.00206562       0.00368131
O        3.80545246       4.91918089       5.24022417       39      -0.00043272      -0.00497868       0.00369030
40