40
Lattice="9.117792012565436 7.146258635329364e-10 1.6316951134324148e-15 -3.0392640048622344 8.5963367484732 -1.2377770312995982e-09 -3.0392640038516037 -4.298168373521968 7.444646004488695" Properties=species:S:1:pos:R:3:spacegroup_kinds:I:1:forces:R:3 spacegroup="P 1" unit_cell=conventional occupancy="_JSON {\"0\": {\"In\": 1}, \"1\": {\"In\": 1}, \"2\": {\"In\": 1}, \"3\": {\"In\": 1}, \"4\": {\"In\": 1}, \"5\": {\"In\": 1}, \"6\": {\"In\": 1}, \"7\": {\"In\": 1}, \"8\": {\"In\": 1}, \"9\": {\"In\": 1}, \"10\": {\"In\": 1}, \"11\": {\"In\": 1}, \"12\": {\"In\": 1}, \"13\": {\"In\": 1}, \"14\": {\"In\": 1}, \"15\": {\"In\": 1}, \"16\": {\"O\": 1}, \"17\": {\"O\": 1}, \"18\": {\"O\": 1}, \"19\": {\"O\": 1}, \"20\": {\"O\": 1}, \"21\": {\"O\": 1}, \"22\": {\"O\": 1}, \"23\": {\"O\": 1}, \"24\": {\"O\": 1}, \"25\": {\"O\": 1}, \"26\": {\"O\": 1}, \"27\": {\"O\": 1}, \"28\": {\"O\": 1}, \"29\": {\"O\": 1}, \"30\": {\"O\": 1}, \"31\": {\"O\": 1}, \"32\": {\"O\": 1}, \"33\": {\"O\": 1}, \"34\": {\"O\": 1}, \"35\": {\"O\": 1}, \"36\": {\"O\": 1}, \"37\": {\"O\": 1}, \"38\": {\"O\": 1}, \"39\": {\"O\": 1}}" n_minim_iter=1 energy=-45149.841072599476 stress="0.055728498335029505 -2.2433815954471953e-17 1.0408340855860843e-17 -2.2433815954471953e-17 0.05572849833502953 -5.551115123125783e-17 1.0408340855860843e-17 -5.551115123125783e-17 0.05572849833502962" pbc="T T T"
In      -4.34666421       3.07355574       5.84341430        0       0.01943831      -0.01378343       0.02377808
In       7.38592821       1.22461264       1.60123169        1      -0.01943831       0.01378343      -0.02377808
In       1.30740020      -0.92447155       5.32355470        2      -0.01937866       0.01360962      -0.02361790
In      -1.51963200      -2.14908419       3.72232300        3       0.00000000       0.00000000       0.00000000
In      -1.30740021       4.14809783       3.46239319        4       0.01927350      -0.01365256      -0.02371689
In       4.77112780      -2.92348519       5.58348450        5       0.01938355       0.02754114       0.00003265
In      -1.30740021       1.37468318       5.58348450        6       0.01925782       0.02735731       0.00010696
In      -1.73186380       7.22165357       1.86116150        7      -0.01938355      -0.02754114      -0.00003265
In       4.34666421       0.15007054       3.98225280        8      -0.01927350       0.01365256       0.02371689
In      -1.51963200       4.29816838      -0.00000000        9       0.00000000       0.00000000       0.00000000
In       4.34666421       6.59732311       0.25992980       10      -0.01933110       0.01357697       0.02377936
In      -1.30740021      -2.29915473       7.18471620       11       0.01933110      -0.01357697      -0.02377936
In       4.34666421       2.92348520       1.86116150       12      -0.01925782      -0.02735731      -0.00010696
In       1.73186380       5.22263993       2.12109130       13       0.01937866      -0.01360962       0.02361790
In       4.55889600       0.00000000      -0.00000000       14       0.00000000       0.00000000       0.00000000
In       1.51963200       2.14908419       3.72232300       15       0.00000000       0.00000000       0.00000000
O        0.91810409       4.30259230       4.04238727       16       0.02260977       0.01425060      -0.05151566
O       -2.12115992       3.49859811       5.41962114       17       0.02261260      -0.05173291       0.01342476
O       -0.44363647       2.31240990       0.02951337       18      -0.02781137      -0.01607402      -0.04834471
O       -0.91810409      -0.79514634       2.01736240       19      -0.02262031      -0.03748874      -0.03808653
O        4.00556323       5.11035428       1.98784903       20      -0.05632079       0.00959202       0.01024328
O        2.07296478       2.98273357       1.69729813       21       0.05630922      -0.00407211       0.01342142
O        2.07296478       6.42578909       0.29055089       22       0.05631873       0.01366567      -0.00317686
O       -2.32803979       6.09471374       3.75183637       23       0.00588500       0.03156724      -0.04833237
O        3.48290047       1.98575848       7.41513263       24       0.02781137       0.01607402       0.04834471
O        5.36730379      -1.79654536       3.69280963       25      -0.00588500      -0.03156724       0.04833237
O        6.52216447       3.33084847       1.73447397       26       0.02781291      -0.04990049      -0.01024636
O        3.75048822       2.35091293       4.01287389       27       0.00589451      -0.05764954      -0.00318431
O        0.71122422       4.44887846       7.12458173       28       0.00588783       0.02606533       0.05151797
O        2.32803978      -0.15071008       0.32006426       29      -0.00588783      -0.02606533      -0.05151797
O       -3.48290047       0.96731991       5.71017203       30      -0.02781291       0.04990049       0.01024636
O        5.16042392       0.79957027       2.02502486       31      -0.02261260       0.05173291      -0.01342476
O        0.96629922       1.31543481       5.74734786       32      -0.05630922       0.00407211      -0.01342142
O        3.48290047      -1.01843857       5.73968540       33       0.02781060       0.03381489      -0.03809552
O        2.12115991      -0.00442392       3.40225873       34      -0.02260977      -0.01425060       0.05151566
O        0.96629923      -2.12762071       7.15409511       35      -0.05631873      -0.01366567       0.00317686
O       -0.71122422       1.94725544       3.43177211       36      -0.00589451       0.05764954       0.00318431
O       -0.96629923      -0.81218590       5.45679697       37       0.05632079      -0.00959202      -0.01024328
O       -0.44363647       5.31660694       1.70496060       38      -0.02781060      -0.03381489       0.03809552
O        3.95736809       5.09331472       5.42728360       39       0.02262031       0.03748874       0.03808653
40
Lattice="9.117792012565435 7.146258635329359e-10 1.6316951134324164e-15 -3.0392640048622335 8.596336748473195 -1.237777031299598e-09 -3.039264003851603 -4.298168373521965 7.4446460044886935" Properties=species:S:1:pos:R:3:spacegroup_kinds:I:1:forces:R:3 spacegroup="P 1" unit_cell=conventional occupancy="_JSON {\"0\": {\"In\": 1}, \"1\": {\"In\": 1}, \"2\": {\"In\": 1}, \"3\": {\"In\": 1}, \"4\": {\"In\": 1}, \"5\": {\"In\": 1}, \"6\": {\"In\": 1}, \"7\": {\"In\": 1}, \"8\": {\"In\": 1}, \"9\": {\"In\": 1}, \"10\": {\"In\": 1}, \"11\": {\"In\": 1}, \"12\": {\"In\": 1}, \"13\": {\"In\": 1}, \"14\": {\"In\": 1}, \"15\": {\"In\": 1}, \"16\": {\"O\": 1}, \"17\": {\"O\": 1}, \"18\": {\"O\": 1}, \"19\": {\"O\": 1}, \"20\": {\"O\": 1}, \"21\": {\"O\": 1}, \"22\": {\"O\": 1}, \"23\": {\"O\": 1}, \"24\": {\"O\": 1}, \"25\": {\"O\": 1}, \"26\": {\"O\": 1}, \"27\": {\"O\": 1}, \"28\": {\"O\": 1}, \"29\": {\"O\": 1}, \"30\": {\"O\": 1}, \"31\": {\"O\": 1}, \"32\": {\"O\": 1}, \"33\": {\"O\": 1}, \"34\": {\"O\": 1}, \"35\": {\"O\": 1}, \"36\": {\"O\": 1}, \"37\": {\"O\": 1}, \"38\": {\"O\": 1}, \"39\": {\"O\": 1}}" n_minim_iter=2 energy=-45149.84550519821 stress="0.05523544766272986 -3.7053674773682324e-17 4.163336342344337e-17 -3.7053674773682324e-17 0.05523544766272975 -8.326672684688674e-17 4.163336342344337e-17 -8.326672684688674e-17 0.05523544766272999" pbc="T T T"
In      -4.34528110       3.07257773       5.84510826        0       0.00255979      -0.00186251       0.00312183
In       7.38454510       1.22559065       1.59953774        1      -0.00255979       0.00186251      -0.00312183
In       1.30601709      -0.92349354       5.32186074        2      -0.00269220       0.00177895      -0.00310306
In      -1.51963200      -2.14908419       3.72232300        3       0.00000000       0.00000000       0.00000000
In      -1.30601710       4.14711983       3.46069924        4       0.00250914      -0.00181906      -0.00314163
In       4.77251091      -2.92152918       5.58348450        5       0.00264464       0.00372476      -0.00003265
In      -1.30601710       1.37663919       5.58348450        6       0.00256185       0.00353758      -0.00000103
In      -1.73324691       7.21969756       1.86116150        7      -0.00264464      -0.00372476       0.00003265
In       4.34528110       0.15104855       3.98394676        8      -0.00250914       0.00181906       0.00314163
In      -1.51963200       4.29816838      -0.00000000        9       0.00000000       0.00000000       0.00000000
In       4.34528110       6.59830111       0.26162376       10      -0.00254411       0.00169410       0.00326324
In      -1.30601710      -2.30013273       7.18302224       11       0.00254411      -0.00169410      -0.00326324
In       4.34528110       2.92152918       1.86116150       12      -0.00256185      -0.00353758       0.00000103
In       1.73324691       5.22166192       2.12278526       13       0.00269220      -0.00177895       0.00310306
In       4.55889600       0.00000000      -0.00000000       14       0.00000000       0.00000000       0.00000000
In       1.51963200       2.14908419       3.72232300       15       0.00000000       0.00000000       0.00000000
O        0.91971949       4.30360962       4.03870757       16       0.02557219       0.00929685      -0.00867182
O       -2.11954452       3.49490274       5.42057996       17       0.02556345      -0.01214589      -0.00370753
O       -0.44562289       2.31126140       0.02606088       18       0.00582432       0.00181828      -0.02790110
O       -0.91971949      -0.79782439       2.01464153       19      -0.02557914      -0.00286267      -0.01237215
O        4.00154074       5.11103903       1.98858064       20      -0.01999136      -0.01323758       0.01552304
O        2.07698727       2.98244234       1.69825696       21       0.01997670      -0.02005255      -0.00371627
O        2.07698727       6.42676506       0.29032369       22       0.01998236       0.00682011       0.01922774
O       -2.32761911       6.09696939       3.74838388       23       0.00022677      -0.00610663      -0.02789544
O        3.48488689       1.98690697       7.41858512       24      -0.00582432      -0.00181828       0.02790110
O        5.36688311      -1.79880101       3.69626212       25      -0.00022677       0.00610663       0.02789544
O        6.52415090       3.32728428       1.73374235       26      -0.00582741      -0.02324792      -0.01552227
O        3.75090890       2.34679517       4.01264669       27       0.00023937      -0.02111159       0.01922645
O        0.71164489       4.45074058       7.12826143       28       0.00023114       0.02719739       0.00867002
O        2.32761911      -0.15257220       0.31638457       29      -0.00023114      -0.02719739      -0.00867002
O       -3.48488690       0.97088410       5.71090365       30       0.00582741       0.02324792       0.01552227
O        5.15880852       0.80326564       2.02406604       31      -0.02556345       0.01214589       0.00370753
O        0.96227673       1.31572603       5.74638904       32      -0.01997670       0.02005255       0.00371627
O        3.48488689      -1.01602287       5.73696453       33      -0.00582843       0.02506286      -0.01237626
O        2.11954451      -0.00544124       3.40593843       34      -0.02557219      -0.00929685       0.00867182
O        0.96227673      -2.12859668       7.15432231       35      -0.01998236      -0.00682011      -0.01922774
O       -0.71164490       1.95137321       3.43199931       36      -0.00023937       0.02111159      -0.01922645
O       -0.96227673      -0.81287065       5.45606535       37       0.01999136       0.01323758      -0.01552304
O       -0.44562289       5.31419125       1.70768147       38       0.00582843      -0.02506286       0.01237626
O        3.95898349       5.09599277       5.43000447       39       0.02557914       0.00286267       0.01237215
40
Lattice="9.117792012565433 7.146258635329358e-10 1.6316951134324162e-15 -3.039264004862233 8.596336748473194 -1.237777031299598e-09 -3.0392640038516023 -4.298168373521964 7.444646004488693" Properties=species:S:1:pos:R:3:spacegroup_kinds:I:1:forces:R:3 spacegroup="P 1" unit_cell=conventional occupancy="_JSON {\"0\": {\"In\": 1}, \"1\": {\"In\": 1}, \"2\": {\"In\": 1}, \"3\": {\"In\": 1}, \"4\": {\"In\": 1}, \"5\": {\"In\": 1}, \"6\": {\"In\": 1}, \"7\": {\"In\": 1}, \"8\": {\"In\": 1}, \"9\": {\"In\": 1}, \"10\": {\"In\": 1}, \"11\": {\"In\": 1}, \"12\": {\"In\": 1}, \"13\": {\"In\": 1}, \"14\": {\"In\": 1}, \"15\": {\"In\": 1}, \"16\": {\"O\": 1}, \"17\": {\"O\": 1}, \"18\": {\"O\": 1}, \"19\": {\"O\": 1}, \"20\": {\"O\": 1}, \"21\": {\"O\": 1}, \"22\": {\"O\": 1}, \"23\": {\"O\": 1}, \"24\": {\"O\": 1}, \"25\": {\"O\": 1}, \"26\": {\"O\": 1}, \"27\": {\"O\": 1}, \"28\": {\"O\": 1}, \"29\": {\"O\": 1}, \"30\": {\"O\": 1}, \"31\": {\"O\": 1}, \"32\": {\"O\": 1}, \"33\": {\"O\": 1}, \"34\": {\"O\": 1}, \"35\": {\"O\": 1}, \"36\": {\"O\": 1}, \"37\": {\"O\": 1}, \"38\": {\"O\": 1}, \"39\": {\"O\": 1}}" n_minim_iter=3 energy=-45149.84629160726 stress="0.05498570877471197 -3.4541585310694126e-17 4.163336342344337e-17 -3.4541585310694126e-17 0.05498570877471189 -6.938893903907228e-17 4.163336342344337e-17 -6.938893903907228e-17 0.05498570877471214" pbc="T T T"
In      -4.34465692       3.07213637       5.84587272        0      -0.00408368       0.00289301      -0.00509438
In       7.38392092       1.22603201       1.59877328        1       0.00408368      -0.00289301       0.00509438
In       1.30539291      -0.92305218       5.32109628        2       0.00399087      -0.00299045       0.00501211
In      -1.51963200      -2.14908419       3.72232300        3       0.00000000       0.00000000       0.00000000
In      -1.30539292       4.14667847       3.45993478        4      -0.00418653       0.00292849       0.00503422
In       4.77313509      -2.92064646       5.58348450        5      -0.00398855      -0.00569525      -0.00008305
In      -1.30539292       1.37752192       5.58348450        6      -0.00413099      -0.00584592      -0.00001620
In      -1.73387109       7.21881484       1.86116150        7       0.00398855       0.00569525       0.00008305
In       4.34465692       0.15148991       3.98471122        8       0.00418653      -0.00292849      -0.00503422
In      -1.51963200       4.29816838      -0.00000000        9       0.00000000       0.00000000       0.00000000
In       4.34465692       6.59874247       0.26238822       10       0.00411557      -0.00298839      -0.00486041
In      -1.30539292      -2.30057410       7.18225778       11      -0.00411557       0.00298839       0.00486041
In       4.34465692       2.92064646       1.86116150       12       0.00413099       0.00584592       0.00001620
In       1.73387109       5.22122056       2.12354972       13      -0.00399087       0.00299045      -0.00501211
In       4.55889600       0.00000000      -0.00000000       14       0.00000000       0.00000000       0.00000000
In       1.51963200       2.14908419       3.72232300       15       0.00000000       0.00000000       0.00000000
O        0.92091806       4.30422259       4.03700904       16       0.02535879       0.00533375       0.01057906
O       -2.11834594       3.49312528       5.42089837       17       0.02535005       0.00650592      -0.00989849
O       -0.44632125       2.31082528       0.02405603       18       0.01960518       0.01057803      -0.01695411
O       -0.92091807      -0.79898888       2.01326141       19      -0.02536959       0.01182373       0.00068340
O        3.99946541       5.11104601       1.98920538       20      -0.00233045      -0.02160910       0.01763340
O        2.07906260       2.98190480       1.69857537       21       0.00231811      -0.02607202      -0.00990980
O        2.07906260       6.42730959       0.29063000       22       0.00232633       0.00446601       0.02753755
O       -2.32744072       6.09777318       3.74637903       23      -0.00343885      -0.02201559      -0.01695540
O        3.48558525       1.98734310       7.42058997       24      -0.01960518      -0.01057803       0.01695411
O        5.36670472      -1.79960480       3.69826697       25       0.00343885       0.02201559       0.01695540
O        6.52484926       3.32532997       1.73311762       26      -0.01960466      -0.00939147      -0.01763391
O        3.75108729       2.34465702       4.01295301       27      -0.00342728      -0.00367976       0.02752957
O        0.71182328       4.45207493       7.12995996       28      -0.00343422       0.02567658      -0.01058343
O        2.32744072      -0.15390655       0.31468604       29       0.00343422      -0.02567658       0.01058343
O       -3.48558526       0.97283841       5.71152838       30       0.01960466       0.00939147       0.01763391
O        5.15760994       0.80504310       2.02374763       31      -0.02535005      -0.00650592       0.00989849
O        0.96020140       1.31626358       5.74607063       32      -0.00231811       0.02607202       0.00990980
O        3.48558525      -1.01450468       5.73558441       33      -0.01960106       0.01996385       0.00068160
O        2.11834594      -0.00605422       3.40763696       34      -0.02535879      -0.00533375      -0.01057906
O        0.96020140      -2.12914121       7.15401599       35      -0.00232633      -0.00446601      -0.02753755
O       -0.71182329       1.95351136       3.43169299       36       0.00342728       0.00367976      -0.02752957
O       -0.96020141      -0.81287763       5.45544062       37       0.00233045       0.02160910      -0.01763340
O       -0.44632125       5.31267306       1.70906158       38       0.01960106      -0.01996385      -0.00068160
O        3.96018207       5.09715726       5.43138459       39       0.02536959      -0.01182373      -0.00068340
40
Lattice="9.117792012565427 7.146258635329352e-10 1.631695113432414e-15 -3.0392640048622312 8.596336748473183 -1.2377770312995978e-09 -3.0392640038516006 -4.298168373521959 7.444646004488689" Properties=species:S:1:pos:R:3:spacegroup_kinds:I:1:forces:R:3 spacegroup="P 1" unit_cell=conventional occupancy="_JSON {\"0\": {\"In\": 1}, \"1\": {\"In\": 1}, \"2\": {\"In\": 1}, \"3\": {\"In\": 1}, \"4\": {\"In\": 1}, \"5\": {\"In\": 1}, \"6\": {\"In\": 1}, \"7\": {\"In\": 1}, \"8\": {\"In\": 1}, \"9\": {\"In\": 1}, \"10\": {\"In\": 1}, \"11\": {\"In\": 1}, \"12\": {\"In\": 1}, \"13\": {\"In\": 1}, \"14\": {\"In\": 1}, \"15\": {\"In\": 1}, \"16\": {\"O\": 1}, \"17\": {\"O\": 1}, \"18\": {\"O\": 1}, \"19\": {\"O\": 1}, \"20\": {\"O\": 1}, \"21\": {\"O\": 1}, \"22\": {\"O\": 1}, \"23\": {\"O\": 1}, \"24\": {\"O\": 1}, \"25\": {\"O\": 1}, \"26\": {\"O\": 1}, \"27\": {\"O\": 1}, \"28\": {\"O\": 1}, \"29\": {\"O\": 1}, \"30\": {\"O\": 1}, \"31\": {\"O\": 1}, \"32\": {\"O\": 1}, \"33\": {\"O\": 1}, \"34\": {\"O\": 1}, \"35\": {\"O\": 1}, \"36\": {\"O\": 1}, \"37\": {\"O\": 1}, \"38\": {\"O\": 1}, \"39\": {\"O\": 1}}" n_minim_iter=4 energy=-45149.84713393571 stress="0.05461171254780298 -7.562040029785274e-17 3.122502256758253e-17 -7.562040029785274e-17 0.05461171254780284 -1.5959455978986625e-16 3.122502256758253e-17 -1.5959455978986625e-16 0.054611712547803164" pbc="T T T"
In      -4.34401132       3.07167986       5.84666342        0      -0.00642493       0.00449326      -0.00787992
In       7.38327532       1.22648852       1.59798258        1       0.00642493      -0.00449326       0.00787992
In       1.30474731      -0.92259567       5.32030558        2       0.00626346      -0.00452154       0.00775908
In      -1.51963200      -2.14908419       3.72232300        3       0.00000000       0.00000000       0.00000000
In      -1.30474731       4.14622196       3.45914408        4      -0.00641336       0.00453928       0.00778530
In       4.77378069      -2.91973344       5.58348450        5      -0.00624495      -0.00892301      -0.00011904
In      -1.30474731       1.37843494       5.58348450        6      -0.00631180      -0.00907060      -0.00005348
In      -1.73451669       7.21790182       1.86116150        7       0.00624495       0.00892301       0.00011904
In       4.34401132       0.15194642       3.98550192        8       0.00641336      -0.00453928      -0.00778530
In      -1.51963200       4.29816838      -0.00000000        9       0.00000000       0.00000000       0.00000000
In       4.34401132       6.59919898       0.26317892       10       0.00638585      -0.00460356      -0.00770868
In      -1.30474731      -2.30103061       7.18146708       11      -0.00638585       0.00460356       0.00770868
In       4.34401132       2.91973344       1.86116150       12       0.00631180       0.00907060       0.00005348
In       1.73451669       5.22076405       2.12434042       13      -0.00626346       0.00452154      -0.00775908
In       4.55889600       0.00000000      -0.00000000       14       0.00000000       0.00000000       0.00000000
In       1.51963200       2.14908419       3.72232300       15       0.00000000       0.00000000       0.00000000
O        0.92432548       4.30545632       4.03522987       16       0.01821652      -0.00473674       0.02839809
O       -2.11493852       3.49096761       5.42071952       17       0.01820907       0.02697833      -0.01008824
O       -0.44605655       2.31088985       0.02002816       18       0.02702667       0.02074340       0.00069471
O       -0.92432548      -0.79991282       2.01130339       19      -0.01822141       0.02222179       0.01830986
O        3.99629533       5.10964446       1.99127523       20       0.01934807      -0.02181555       0.01761514
O        2.08223267       2.97941148       1.69839652       21      -0.01935424      -0.02616380      -0.01009621
O        2.08223267       6.42840136       0.29287871       22      -0.01935012       0.00434748       0.02770878
O       -2.32741336       6.09750209       3.74235116       23      -0.01054821      -0.03240130       0.00068880
O        3.48532055       1.98727853       7.42461784       24      -0.02702667      -0.02074340      -0.00069471
O        5.36667736      -1.79933371       3.70229484       25       0.01054821       0.03240130      -0.00068880
O        6.52458455       3.32187401       1.73104776       26      -0.02702564       0.01097938      -0.01761463
O        3.75111465       2.34130432       4.01520171       27      -0.01054075       0.01679573       0.02770261
O        0.71185064       4.45569872       7.13173913       28      -0.01054564       0.01558191      -0.02840529
O        2.32741336      -0.15753034       0.31290687       29       0.01054564      -0.01558191       0.02840529
O       -3.48532055       0.97629437       5.71359823       30       0.02702564      -0.01097938       0.01761463
O        5.15420252       0.80720077       2.02392648       31      -0.01820907      -0.02697833       0.01008824
O        0.95703133       1.31875690       5.74624948       32       0.01935424       0.02616380       0.01009621
O        3.48532055      -1.01098416       5.73362639       33      -0.02702358       0.00976428       0.01831140
O        2.11493852      -0.00728794       3.40941613       34      -0.01821652       0.00473674      -0.02839809
O        0.95703133      -2.13023298       7.15176729       35       0.01935012      -0.00434748      -0.02770878
O       -0.71185065       1.95686406       3.42944428       36       0.01054075      -0.01679573      -0.02770261
O       -0.95703133      -0.81147608       5.45337077       37      -0.01934807       0.02181555      -0.01761514
O       -0.44605655       5.30915253       1.71101960       38       0.02702358      -0.00976428      -0.01831140
O        3.96358949       5.09808120       5.43334261       39       0.01822141      -0.02222179      -0.01830986
40
Lattice="9.11779201256542 7.146258635329346e-10 1.6316951134323898e-15 -3.0392640048622286 8.596336748473174 -1.2377770312995967e-09 -3.039264003851598 -4.298168373521954 7.444646004488682" Properties=species:S:1:pos:R:3:spacegroup_kinds:I:1:forces:R:3 spacegroup="P 1" unit_cell=conventional occupancy="_JSON {\"0\": {\"In\": 1}, \"1\": {\"In\": 1}, \"2\": {\"In\": 1}, \"3\": {\"In\": 1}, \"4\": {\"In\": 1}, \"5\": {\"In\": 1}, \"6\": {\"In\": 1}, \"7\": {\"In\": 1}, \"8\": {\"In\": 1}, \"9\": {\"In\": 1}, \"10\": {\"In\": 1}, \"11\": {\"In\": 1}, \"12\": {\"In\": 1}, \"13\": {\"In\": 1}, \"14\": {\"In\": 1}, \"15\": {\"In\": 1}, \"16\": {\"O\": 1}, \"17\": {\"O\": 1}, \"18\": {\"O\": 1}, \"19\": {\"O\": 1}, \"20\": {\"O\": 1}, \"21\": {\"O\": 1}, \"22\": {\"O\": 1}, \"23\": {\"O\": 1}, \"24\": {\"O\": 1}, \"25\": {\"O\": 1}, \"26\": {\"O\": 1}, \"27\": {\"O\": 1}, \"28\": {\"O\": 1}, \"29\": {\"O\": 1}, \"30\": {\"O\": 1}, \"31\": {\"O\": 1}, \"32\": {\"O\": 1}, \"33\": {\"O\": 1}, \"34\": {\"O\": 1}, \"35\": {\"O\": 1}, \"36\": {\"O\": 1}, \"37\": {\"O\": 1}, \"38\": {\"O\": 1}, \"39\": {\"O\": 1}}" n_minim_iter=5 energy=-45149.84863695662 stress="0.05463497254227522 -5.969058937713661e-17 3.8163916471489756e-17 -5.969058937713661e-17 0.054634972542275125 -1.5265566588595902e-16 3.8163916471489756e-17 -1.5265566588595902e-16 0.05463497254227549" pbc="T T T"
In      -4.34452537       3.07204335       5.84603384        0       0.01088965      -0.00774365       0.01328026
In       7.38378937       1.22612503       1.59861216        1      -0.01088965       0.00774365      -0.01328026
In       1.30526136      -0.92295916       5.32093516        2      -0.01095393       0.00763335      -0.01328823
In      -1.51963200      -2.14908419       3.72232300        3       0.00000000       0.00000000       0.00000000
In      -1.30526137       4.14658544       3.45977366        4       0.01081946      -0.00766369      -0.01331677
In       4.77326664      -2.92046041       5.58348450        5       0.01092565       0.01550735      -0.00004885
In      -1.30526137       1.37770796       5.58348450        6       0.01086960       0.01531221       0.00000154
In      -1.73400264       7.21862879       1.86116150        7      -0.01092565      -0.01550735       0.00004885
In       4.34452537       0.15158293       3.98487234        8      -0.01081946       0.00766369       0.01331677
In      -1.51963200       4.29816838      -0.00000000        9       0.00000000       0.00000000       0.00000000
In       4.34452537       6.59883550       0.26254934       10      -0.01087242       0.00756264       0.01343556
In      -1.30526137      -2.30066712       7.18209666       11       0.01087242      -0.00756264      -0.01343556
In       4.34452537       2.92046042       1.86116150       12      -0.01086960      -0.01531221      -0.00000154
In       1.73400264       5.22112754       2.12371084       13       0.01095393      -0.00763335       0.01328823
In       4.55889600       0.00000000      -0.00000000       14       0.00000000       0.00000000       0.00000000
In       1.51963200       2.14908419       3.72232300       15       0.00000000       0.00000000       0.00000000
O        0.92818536       4.30599801       4.03707521       16       0.00264875      -0.01108326       0.00226206
O       -2.11107864       3.49229488       5.41932774       17       0.00263821       0.00751919       0.00847950
O       -0.44300786       2.31279071       0.01764287       18      -0.00250066       0.01115756       0.00216667
O       -0.92818537      -0.79804387       2.01175694       19      -0.00265672      -0.00358977       0.01075055
O        3.99626006       5.10639837       1.99411407       20       0.00619199       0.00485090       0.00857334
O        2.08226794       2.97532992       1.69700474       21      -0.00620433      -0.00499360       0.00847024
O        2.08226794       6.42923682       0.29710933       22      -0.00619610       0.00984655       0.00009667
O       -2.32818928       6.09399414       3.73996587       23      -0.01134808      -0.00137374       0.00217464
O        3.48227186       1.98537767       7.42700313       24       0.00250066      -0.01115756      -0.00216667
O        5.36745328      -1.79582576       3.70468013       25       0.01134808       0.00137374      -0.00217464
O        6.52153586       3.32075872       1.72820893       26       0.00249577       0.00746494      -0.00857489
O        3.75033873       2.34099258       4.01943233       27      -0.01133651       0.00256082       0.00009179
O        0.71107472       4.45951841       7.12989379       28      -0.01135014      -0.00121022      -0.00226026
O        2.32818928      -0.16135004       0.31475221       29       0.01135014       0.00121022       0.00226026
O       -3.48227186       0.97740966       5.71643707       30      -0.00249577      -0.00746494       0.00857489
O        5.15034264       0.80587350       2.02531826       31      -0.00263821      -0.00751919      -0.00847950
O        0.95699606       1.32283845       5.74764126       32       0.00620433       0.00499360      -0.00847024
O        3.48227186      -1.00796800       5.73407995       33       0.00250014       0.00368748       0.01074284
O        2.11107864      -0.00782963       3.40757079       34      -0.00264875       0.01108326      -0.00226206
O        0.95699606      -2.13106844       7.14753667       35       0.00619610      -0.00984655      -0.00009667
O       -0.71107473       1.95717580       3.42521366       36       0.01133651      -0.00256082      -0.00009179
O       -0.95699606      -0.80822999       5.45053193       37      -0.00619199      -0.00485090      -0.00857334
O       -0.44300786       5.30613638       1.71056605       38      -0.00250014      -0.00368748      -0.01074284
O        3.96744937       5.09621225       5.43288905       39       0.00265672       0.00358977      -0.01075055
40