40
Lattice="9.257016417268629 7.255379912732717e-10 -1.4763413487425486e-15 -3.085672139773589 8.72759877603261 -1.256678902347195e-09 -3.0856721387475217 -4.363799387290759 7.558322254920008" Properties=species:S:1:pos:R:3:spacegroup_kinds:I:1:forces:R:3 spacegroup="P 1" unit_cell=conventional occupancy="_JSON {\"0\": {\"In\": 1}, \"1\": {\"In\": 1}, \"2\": {\"In\": 1}, \"3\": {\"In\": 1}, \"4\": {\"In\": 1}, \"5\": {\"In\": 1}, \"6\": {\"In\": 1}, \"7\": {\"In\": 1}, \"8\": {\"In\": 1}, \"9\": {\"In\": 1}, \"10\": {\"In\": 1}, \"11\": {\"In\": 1}, \"12\": {\"In\": 1}, \"13\": {\"In\": 1}, \"14\": {\"In\": 1}, \"15\": {\"In\": 1}, \"16\": {\"O\": 1}, \"17\": {\"O\": 1}, \"18\": {\"O\": 1}, \"19\": {\"O\": 1}, \"20\": {\"O\": 1}, \"21\": {\"O\": 1}, \"22\": {\"O\": 1}, \"23\": {\"O\": 1}, \"24\": {\"O\": 1}, \"25\": {\"O\": 1}, \"26\": {\"O\": 1}, \"27\": {\"O\": 1}, \"28\": {\"O\": 1}, \"29\": {\"O\": 1}, \"30\": {\"O\": 1}, \"31\": {\"O\": 1}, \"32\": {\"O\": 1}, \"33\": {\"O\": 1}, \"34\": {\"O\": 1}, \"35\": {\"O\": 1}, \"36\": {\"O\": 1}, \"37\": {\"O\": 1}, \"38\": {\"O\": 1}, \"39\": {\"O\": 1}}" n_minim_iter=7 energy=-45149.041754189726 stress="0.06763486103178977 -4.315942416875261e-17 5.898059818321144e-17 -4.315942416875261e-17 0.06763486103178959 -1.5265566588595902e-16 5.898059818321144e-17 -1.5265566588595902e-16 0.06763486103178992" pbc="T T T"
In      -4.40497265       3.11478603       5.94251572        0       0.00227568      -0.00155243       0.00267061
In       7.49064479       1.24901336       1.61580653        1      -0.00227568       0.00155243      -0.00267061
In       1.31930051      -0.93288633       5.39496766        2      -0.00227877       0.00147710      -0.00268295
In      -1.54283607      -2.18189969       3.77916113        3       0.00000000       0.00000000       0.00000000
In      -1.31930051       4.20573588       3.50538709        4       0.00211782      -0.00150461      -0.00268063
In       4.85204377      -2.95672252       5.66874169        5       0.00231091       0.00326659      -0.00005528
In      -1.31930051       1.40707687       5.66874169        6       0.00215150       0.00308198       0.00002494
In      -1.76637163       7.32052191       1.88958056        7      -0.00231091      -0.00326659       0.00005528
In       4.40497265       0.15806351       4.05293515        8      -0.00211782       0.00150461       0.00268063
In      -1.54283607       4.36379939      -0.00000000        9       0.00000000       0.00000000       0.00000000
In       4.40497265       6.70376259       0.27377403       10      -0.00217952       0.00145653       0.00285033
In      -1.31930051      -2.33996320       7.28454822       11       0.00217952      -0.00145653      -0.00285033
In       4.40497265       2.95672252       1.88958056       12      -0.00215150      -0.00308198      -0.00002494
In       1.76637163       5.29668573       2.16335459       13       0.00227877      -0.00147710       0.00268295
In       4.62850821       0.00000000      -0.00000000       14       0.00000000       0.00000000       0.00000000
In       1.54283607       2.18189970       3.77916112       15       0.00000000       0.00000000       0.00000000
O        0.95835976       4.37349530       4.09431017       16      -0.00130535       0.00414950       0.00243432
O       -2.12731238       3.54092866       5.50277026       17      -0.00130509       0.00003137      -0.00480308
O       -0.44721532       2.35292063       0.00213827       18       0.00350236      -0.00336686       0.00108012
O       -0.95835976      -0.81317481       2.03875818       19       0.00130021       0.00417650      -0.00237441
O        4.04752368       5.17820874       2.03661990       20       0.00046203      -0.00355198      -0.00345222
O        2.12382059       3.00723949       1.72360913       21      -0.00047205       0.00121742      -0.00480848
O        2.12382059       6.53476864       0.31301077       22      -0.00046203      -0.00476683       0.00134983
O       -2.36742662       6.18303085       3.78129940       23       0.00433514      -0.00218518       0.00108141
O        3.53288745       2.01087876       7.55618398       24      -0.00350236       0.00336686      -0.00108012
O        5.45309876      -1.81923146       3.77702285       25      -0.00433514       0.00218518      -0.00108141
O        6.61855959       3.36021181       1.74254122       26      -0.00350030      -0.00073919       0.00345788
O        3.80391766       2.36508561       4.09217189       27       0.00434696       0.00203374       0.00134777
O        0.71824552       4.54328171       7.24317321       28       0.00434645       0.00014501      -0.00243561
O        2.36742662      -0.17948232       0.31514904       29      -0.00434645      -0.00014501       0.00243561
O       -3.53288745       1.00358758       5.81578103       30       0.00350030       0.00073919      -0.00345788
O        5.21298452       0.82287073       2.05555199       31       0.00130509      -0.00003137       0.00480308
O        0.96185154       1.35655990       5.83471312       32       0.00047205      -0.00121742       0.00480848
O        3.53288745      -1.00729117       5.81791930       33      -0.00350056      -0.00262278      -0.00237493
O        2.12731238      -0.00969591       3.46401208       34       0.00130535      -0.00414950      -0.00243432
O        0.96185154      -2.17096925       7.24531148       35       0.00046203       0.00476683      -0.00134983
O       -0.71824552       1.99871378       3.46615036       36      -0.00434696      -0.00203374      -0.00134777
O       -0.96185155      -0.81440934       5.52170235       37      -0.00046203       0.00355198       0.00345222
O       -0.44721532       5.37109057       1.74040295       38       0.00350056       0.00262278       0.00237493
O        4.04403190       5.17697420       5.51956407       39      -0.00130021      -0.00417650       0.00237441
