40
Lattice="8.51313546491978 6.672373223282816e-10 3.2164950373012384e-15 -2.8377118222690063 8.026261088316877 -1.1556974658562747e-09 -2.8377118213253922 -4.0131305434911955 6.950946000659426" Properties=species:S:1:pos:R:3:spacegroup_kinds:I:1:forces:R:3 spacegroup="P 1" unit_cell=conventional occupancy="_JSON {\"0\": {\"In\": 1}, \"1\": {\"In\": 1}, \"2\": {\"In\": 1}, \"3\": {\"In\": 1}, \"4\": {\"In\": 1}, \"5\": {\"In\": 1}, \"6\": {\"In\": 1}, \"7\": {\"In\": 1}, \"8\": {\"In\": 1}, \"9\": {\"In\": 1}, \"10\": {\"In\": 1}, \"11\": {\"In\": 1}, \"12\": {\"In\": 1}, \"13\": {\"In\": 1}, \"14\": {\"In\": 1}, \"15\": {\"In\": 1}, \"16\": {\"O\": 1}, \"17\": {\"O\": 1}, \"18\": {\"O\": 1}, \"19\": {\"O\": 1}, \"20\": {\"O\": 1}, \"21\": {\"O\": 1}, \"22\": {\"O\": 1}, \"23\": {\"O\": 1}, \"24\": {\"O\": 1}, \"25\": {\"O\": 1}, \"26\": {\"O\": 1}, \"27\": {\"O\": 1}, \"28\": {\"O\": 1}, \"29\": {\"O\": 1}, \"30\": {\"O\": 1}, \"31\": {\"O\": 1}, \"32\": {\"O\": 1}, \"33\": {\"O\": 1}, \"34\": {\"O\": 1}, \"35\": {\"O\": 1}, \"36\": {\"O\": 1}, \"37\": {\"O\": 1}, \"38\": {\"O\": 1}, \"39\": {\"O\": 1}}" n_minim_iter=4 energy=-45147.744645514256 stress="-0.1239329231788305 7.814734888278243e-17 -1.5265566588595902e-16 7.814734888278243e-17 -0.12393292317883 3.0531133177191805e-16 -1.5265566588595902e-16 3.0531133177191805e-16 -0.12393292317883062" pbc="T T T"
In      -4.06044231       2.87116629       5.45341311        0      -0.00313160       0.00212579      -0.00353784
In       6.89815413       1.14196426       1.49753289        1       0.00313160      -0.00212579       0.00353784
In       1.22273048      -0.86460101       4.97300589        2       0.00309715      -0.00200418       0.00333395
In      -1.41885591      -2.00656527       3.47547300        3       0.00000000       0.00000000       0.00000000
In      -1.22273049       3.87444893       3.23526939        4      -0.00288452       0.00226668       0.00358000
In       4.45269316      -2.73248467       5.21320950        5      -0.00288349      -0.00415876      -0.00006222
In      -1.22273049       1.28064588       5.21320950        6      -0.00302156      -0.00434722      -0.00006171
In      -1.61498134       6.74561521       1.73773650        7       0.00288349       0.00415876       0.00006222
In       4.06044230       0.13868162       3.71567661        8       0.00288452      -0.00226668      -0.00358000
In      -1.41885591       4.01313055      -0.00000000        9       0.00000000       0.00000000       0.00000000
In       4.06044230       6.15837744       0.24020361       10       0.00326890      -0.00208696      -0.00365277
In      -1.22273048      -2.14524689       6.71074239       11      -0.00326890       0.00208696       0.00365277
In       4.06044230       2.73248467       1.73773650       12       0.00302156       0.00434722       0.00006171
In       1.61498134       4.87773156       1.97794011       13      -0.00309715       0.00200418      -0.00333395
In       4.25656773       0.00000000      -0.00000000       14       0.00000000       0.00000000       0.00000000
In       1.41885591       2.00656527       3.47547300       15       0.00000000       0.00000000       0.00000000
O        0.81653100       4.00678621       3.80750366       16      -0.00151258      -0.00095748       0.00023911
O       -2.02118082       3.30056707       5.05268852       17      -0.00152595       0.00070602       0.00069857
O       -0.40561579       2.15819008       0.08039751       18      -0.00075410       0.00014707       0.00164576
O       -0.81653101      -0.71890781       1.90924619       19       0.00152364      -0.00026354       0.00095002
O        3.78553141       4.77845589       1.82884868       20       0.00116934       0.00121279      -0.00068803
O        1.88989223       2.81196380       1.57721552       21      -0.00117654       0.00120430       0.00069523
O        1.88989223       5.97962263       0.25163315       22      -0.00117525      -0.00001311      -0.00138814
O       -2.16996638       5.68271736       3.55587051       23      -0.00039312       0.00065306       0.00163934
O        3.24332761       1.85494047       6.87054849       24       0.00075410      -0.00014707      -0.00164576
O        5.00767820      -1.66958681       3.39507549       25       0.00039312      -0.00065306      -0.00163934
O        6.08103943       3.15528660       1.64662432       26       0.00075333       0.00150692       0.00069857
O        3.50545726       2.24468079       3.72710615       27      -0.00038824       0.00110583      -0.00139071
O        0.66774544       4.11199349       6.61891533       28      -0.00038849      -0.00176378      -0.00025737
O        2.16996638      -0.09886294       0.33203066       29       0.00038849       0.00176378       0.00025737
O       -3.24332761       0.85784395       5.30432168       30      -0.00075333      -0.00150692      -0.00069857
O        4.85889264       0.71256348       1.89825747       31       0.00152595      -0.00070602      -0.00069857
O        0.94781959       1.20116675       5.37373047       32       0.00117654      -0.00120430      -0.00069523
O        3.24332761      -0.99709652       5.38471919       33       0.00075436      -0.00134674       0.00094874
O        2.02118082       0.00634434       3.14344233       34       0.00151258       0.00095748      -0.00023911
O        0.94781959      -1.96649208       6.69931285       35       0.00117525       0.00001311       0.00138814
O       -0.66774544       1.76844976       3.22383985       36       0.00038824      -0.00110583       0.00139071
O       -0.94781959      -0.76532534       5.12209732       37      -0.00116934      -0.00121279       0.00068803
O       -0.40561579       5.01022707       1.56622681       38      -0.00075436       0.00134674      -0.00094874
O        3.65424282       4.73203836       5.04169981       39      -0.00152364       0.00026354      -0.00095002
