40
Lattice="9.587900773295202 7.514694961676219e-10 9.875496362342318e-16 -3.195966925140226 9.039559538603882 -1.3015980399107394e-09 -3.195966924077488 -4.519779768550459 7.828488200320632" Properties=species:S:1:pos:R:3:spacegroup_kinds:I:1:forces:R:3 spacegroup="P 1" unit_cell=conventional occupancy="_JSON {\"0\": {\"In\": 1}, \"1\": {\"In\": 1}, \"2\": {\"In\": 1}, \"3\": {\"In\": 1}, \"4\": {\"In\": 1}, \"5\": {\"In\": 1}, \"6\": {\"In\": 1}, \"7\": {\"In\": 1}, \"8\": {\"In\": 1}, \"9\": {\"In\": 1}, \"10\": {\"In\": 1}, \"11\": {\"In\": 1}, \"12\": {\"In\": 1}, \"13\": {\"In\": 1}, \"14\": {\"In\": 1}, \"15\": {\"In\": 1}, \"16\": {\"O\": 1}, \"17\": {\"O\": 1}, \"18\": {\"O\": 1}, \"19\": {\"O\": 1}, \"20\": {\"O\": 1}, \"21\": {\"O\": 1}, \"22\": {\"O\": 1}, \"23\": {\"O\": 1}, \"24\": {\"O\": 1}, \"25\": {\"O\": 1}, \"26\": {\"O\": 1}, \"27\": {\"O\": 1}, \"28\": {\"O\": 1}, \"29\": {\"O\": 1}, \"30\": {\"O\": 1}, \"31\": {\"O\": 1}, \"32\": {\"O\": 1}, \"33\": {\"O\": 1}, \"34\": {\"O\": 1}, \"35\": {\"O\": 1}, \"36\": {\"O\": 1}, \"37\": {\"O\": 1}, \"38\": {\"O\": 1}, \"39\": {\"O\": 1}}" n_minim_iter=1 energy=-45141.600020394864 stress="0.10734548659453093 -2.0381406536107318e-17 4.163336342344337e-17 -2.0381406536107318e-17 0.10734548659453096 -6.245004513516506e-17 4.163336342344337e-17 -6.245004513516506e-17 0.10734548659453114" pbc="T T T"
In      -4.53724510       3.20831678       6.18576463        0       0.01484375      -0.01046208       0.01816253
In       7.73321202       1.31146299       1.64272357        1      -0.01484375       0.01046208      -0.01816253
In       1.34127818      -0.94842689       5.55696767        2      -0.01467380       0.01026025      -0.01794913
In      -1.59798346      -2.25988988       3.91424410        3       0.00000000       0.00000000       0.00000000
In      -1.34127818       4.33826172       3.59984562        4       0.01459718      -0.01026025      -0.01796970
In       5.05065567      -3.02679873       5.87136615        5       0.01457250       0.02081874       0.00001877
In      -1.34127818       1.49298104       5.87136615        6       0.01459847       0.02085139       0.00021417
In      -1.85468875       7.54657850       1.95712205        7      -0.01457250      -0.02081874      -0.00001877
In       4.53724510       0.18151805       4.22864258        8      -0.01459718       0.01026025       0.01796970
In      -1.59798346       4.51977977      -0.00000000        9       0.00000000       0.00000000       0.00000000
In       4.53724510       6.96118770       0.31439848       10      -0.01482524       0.01038931       0.01787714
In      -1.34127818      -2.44140793       7.51408972       11       0.01482524      -0.01038931      -0.01787714
In       4.53724510       3.02679873       1.95712205       12      -0.01459847      -0.02085139      -0.00021417
In       1.85468875       5.46820667       2.27152053       13       0.01467380      -0.01026025       0.01794913
In       4.79395039       0.00000000      -0.00000000       14       0.00000000       0.00000000       0.00000000
In       1.59798346       2.25988989       3.91424410       15       0.00000000       0.00000000       0.00000000
O        1.06897145       4.54259315       4.21326094       16       0.02088250       0.00977302      -0.05940277
O       -2.12699548       3.63738432       5.70210076       17       0.02089253      -0.05632799       0.02124091
O       -0.45409794       2.45446712      -0.07751476       18      -0.03693107      -0.01544616      -0.04957833
O       -1.06897145      -0.85958207       2.08687350       19      -0.02087890      -0.04655625      -0.03816366
O        4.13835731       5.33460868       2.16438825       20      -0.06006637       0.01793705       0.01140336
O        2.25357654       3.05277901       1.78785666       21       0.06007589      -0.00091120       0.02123834
O        2.25357653       6.80160944       0.37653159       22       0.06008694       0.01884773      -0.00981647
O       -2.46545977       6.38964159       3.83672934       23       0.00225743       0.03997372      -0.04958707
O        3.65006486       2.06531265       7.90600295       24       0.03693107       0.01544616       0.04957833
O        5.66142669      -1.86986181       3.99175885       25      -0.00225743      -0.03997372       0.04958707
O        6.84603178       3.41999370       1.74985584       26       0.03693493      -0.05066539      -0.01142033
O        3.92647408       2.38777418       4.29077569       27       0.00225563      -0.06291696      -0.00982599
O        0.73050715       4.78192355       7.52947136       28       0.00225049       0.02295892       0.05940174
O        2.46545977      -0.26214378       0.29901684       29      -0.00225049      -0.02295892      -0.05940174
O       -3.65006486       1.09978607       6.07863235       30      -0.03693493       0.05066539       0.01142033
O        5.32296240       0.88239546       2.12638743       31      -0.02089253       0.05632799      -0.02124091
O        0.94239039       1.46700076       6.04063153       32      -0.06007589       0.00091120      -0.02123834
O        3.65006486      -0.96552658       6.00111760       33       0.03693981       0.03520535      -0.03816623
O        2.12699547      -0.02281338       3.61522726       34      -0.02088250      -0.00977302       0.05940277
O        0.94239039      -2.28182966       7.45195661       35      -0.06008694      -0.01884773       0.00981647
O       -0.73050716       2.13200560       3.53771251       36      -0.00225563       0.06291696       0.00982599
O       -0.94239039      -0.81482891       5.66409994       37       0.06006637      -0.01793705      -0.01140336
O       -0.45409794       5.48530635       1.82737059       38      -0.03693981      -0.03520535       0.03816623
O        4.26493837       5.37936185       5.74161469       39       0.02087890       0.04655625       0.03816366
40
Lattice="9.587900773295207 7.514694961676225e-10 9.87549636234243e-16 -3.1959669251402287 9.039559538603886 -1.3015980399107405e-09 -3.195966924077491 -4.51977976855046 7.828488200320639" Properties=species:S:1:pos:R:3:spacegroup_kinds:I:1:forces:R:3 spacegroup="P 1" unit_cell=conventional occupancy="_JSON {\"0\": {\"In\": 1}, \"1\": {\"In\": 1}, \"2\": {\"In\": 1}, \"3\": {\"In\": 1}, \"4\": {\"In\": 1}, \"5\": {\"In\": 1}, \"6\": {\"In\": 1}, \"7\": {\"In\": 1}, \"8\": {\"In\": 1}, \"9\": {\"In\": 1}, \"10\": {\"In\": 1}, \"11\": {\"In\": 1}, \"12\": {\"In\": 1}, \"13\": {\"In\": 1}, \"14\": {\"In\": 1}, \"15\": {\"In\": 1}, \"16\": {\"O\": 1}, \"17\": {\"O\": 1}, \"18\": {\"O\": 1}, \"19\": {\"O\": 1}, \"20\": {\"O\": 1}, \"21\": {\"O\": 1}, \"22\": {\"O\": 1}, \"23\": {\"O\": 1}, \"24\": {\"O\": 1}, \"25\": {\"O\": 1}, \"26\": {\"O\": 1}, \"27\": {\"O\": 1}, \"28\": {\"O\": 1}, \"29\": {\"O\": 1}, \"30\": {\"O\": 1}, \"31\": {\"O\": 1}, \"32\": {\"O\": 1}, \"33\": {\"O\": 1}, \"34\": {\"O\": 1}, \"35\": {\"O\": 1}, \"36\": {\"O\": 1}, \"37\": {\"O\": 1}, \"38\": {\"O\": 1}, \"39\": {\"O\": 1}}" n_minim_iter=2 energy=-45141.60777632017 stress="0.10624002475198177 -7.642089774365153e-17 2.0816681711721685e-17 -7.642089774365153e-17 0.10624002475198158 -1.3877787807814457e-16 2.0816681711721685e-17 -1.3877787807814457e-16 0.10624002475198188" pbc="T T T"
In      -4.53516444       3.20684553       6.18831291        0       0.00437833      -0.00290920       0.00496429
In       7.73113136       1.31293425       1.64017528        1      -0.00437833       0.00290920      -0.00496429
In       1.33919751      -0.94695564       5.55441938        2      -0.00469072       0.00316271      -0.00511238
In      -1.59798346      -2.25988988       3.91424410        3       0.00000000       0.00000000       0.00000000
In      -1.33919751       4.33679047       3.59729733        4       0.00428423      -0.00303879      -0.00505248
In       5.05273634      -3.02385622       5.87136615        5       0.00431123       0.00608734      -0.00034736
In      -1.33919751       1.49592355       5.87136615        6       0.00476554       0.00596753       0.00002828
In      -1.85676942       7.54363600       1.95712205        7      -0.00431123      -0.00608734       0.00034736
In       4.53516443       0.18298930       4.23119086        8      -0.00428423       0.00303879       0.00505248
In      -1.59798346       4.51977977      -0.00000000        9       0.00000000       0.00000000       0.00000000
In       4.53516443       6.96265896       0.31694676       10      -0.00474780       0.00265209       0.00522397
In      -1.33919751      -2.44287918       7.51154143       11       0.00474780      -0.00265209      -0.00522397
In       4.53516443       3.02385623       1.95712205       12      -0.00476554      -0.00596753      -0.00002828
In       1.85676941       5.46673541       2.27406881       13       0.00469072      -0.00316271       0.00511238
In       4.79395039       0.00000000      -0.00000000       14       0.00000000       0.00000000       0.00000000
In       1.59798346       2.25988989       3.91424410       15       0.00000000       0.00000000       0.00000000
O        1.07192985       4.54397761       4.20484717       16       0.01559606      -0.00561658       0.00659462
O       -2.12403708       3.62940556       5.70510866       17       0.01561097       0.00851987       0.00157197
O       -0.45932897       2.45227916      -0.08453682       18       0.00796014       0.01394541      -0.00779250
O       -1.07192985      -0.86617637       2.08146764       19      -0.01560351       0.00290483       0.00816788
O        4.12984873       5.33714879       2.16600446       20       0.00280327      -0.00743100       0.01598352
O        2.26208512       3.05264939       1.79086456       21      -0.00279659      -0.01755755       0.00155397
O        2.26208512       6.80427917       0.37513989       22      -0.00282590       0.01012655       0.01442003
O       -2.46514063       6.39530277       3.82970728       23      -0.01050296      -0.01214306      -0.00783055
O        3.65529589       2.06750061       7.91302501       24      -0.00796014      -0.01394541       0.00779250
O        5.66110755      -1.87552300       3.99878091       25       0.01050296       0.01214306       0.00783055
O        6.85126281       3.41281844       1.74823964       26      -0.00797145       0.00021957      -0.01595884
O        3.92679322       2.37886230       4.28938399       27      -0.01048393      -0.00069728       0.01442260
O        0.73082630       4.78517425       7.53788512       28      -0.01048804       0.01282132      -0.00660954
O        2.46514062      -0.26539447       0.29060307       29       0.01048804      -0.01282132       0.00660954
O       -3.65529589       1.10696134       6.08024856       30       0.00797145      -0.00021957       0.01595884
O        5.32000400       0.89037422       2.12337953       31      -0.01561097      -0.00851987      -0.00157197
O        0.93388180       1.46713038       6.03762363       32       0.00279659       0.01755755      -0.00155397
O        3.65529589      -0.96053927       5.99571174       33      -0.00795397       0.01373972       0.00815785
O        2.12403707      -0.02419784       3.62364102       34      -0.01559606       0.00561658      -0.00659462
O        0.93388180      -2.28449940       7.45334830       35       0.00282590      -0.01012655      -0.01442003
O       -0.73082630       2.14091748       3.53910420       36       0.01048393       0.00069728      -0.01442260
O       -0.93388181      -0.81736902       5.66248374       37      -0.00280327       0.00743100      -0.01598352
O       -0.45932897       5.48031904       1.83277645       38       0.00795397      -0.01373972      -0.00815785
O        4.26789677       5.38595615       5.74702055       39       0.01560351      -0.00290483      -0.00816788
40
Lattice="9.587900773295221 7.514694961676237e-10 9.87549636234274e-16 -3.195966925140233 9.039559538603896 -1.3015980399107421e-09 -3.1959669240774953 -4.519779768550466 7.82848820032065" Properties=species:S:1:pos:R:3:spacegroup_kinds:I:1:forces:R:3 spacegroup="P 1" unit_cell=conventional occupancy="_JSON {\"0\": {\"In\": 1}, \"1\": {\"In\": 1}, \"2\": {\"In\": 1}, \"3\": {\"In\": 1}, \"4\": {\"In\": 1}, \"5\": {\"In\": 1}, \"6\": {\"In\": 1}, \"7\": {\"In\": 1}, \"8\": {\"In\": 1}, \"9\": {\"In\": 1}, \"10\": {\"In\": 1}, \"11\": {\"In\": 1}, \"12\": {\"In\": 1}, \"13\": {\"In\": 1}, \"14\": {\"In\": 1}, \"15\": {\"In\": 1}, \"16\": {\"O\": 1}, \"17\": {\"O\": 1}, \"18\": {\"O\": 1}, \"19\": {\"O\": 1}, \"20\": {\"O\": 1}, \"21\": {\"O\": 1}, \"22\": {\"O\": 1}, \"23\": {\"O\": 1}, \"24\": {\"O\": 1}, \"25\": {\"O\": 1}, \"26\": {\"O\": 1}, \"27\": {\"O\": 1}, \"28\": {\"O\": 1}, \"29\": {\"O\": 1}, \"30\": {\"O\": 1}, \"31\": {\"O\": 1}, \"32\": {\"O\": 1}, \"33\": {\"O\": 1}, \"34\": {\"O\": 1}, \"35\": {\"O\": 1}, \"36\": {\"O\": 1}, \"37\": {\"O\": 1}, \"38\": {\"O\": 1}, \"39\": {\"O\": 1}}" n_minim_iter=3 energy=-45141.61075215735 stress="0.10618493529138959 -7.293536743275632e-17 2.7755575615628914e-17 -7.293536743275632e-17 0.10618493529138945 -8.326672684688674e-17 2.7755575615628914e-17 -8.326672684688674e-17 0.10618493529138975" pbc="T T T"
In      -4.53377116       3.20586033       6.19001932        0       0.00323702      -0.00196689       0.00372990
In       7.72973808       1.31391944       1.63846887        1      -0.00323702       0.00196689      -0.00372990
In       1.33780423      -0.94597044       5.55271297        2      -0.00322751       0.00232659      -0.00372964
In      -1.59798346      -2.25988988       3.91424410        3       0.00000000       0.00000000       0.00000000
In      -1.33780424       4.33580528       3.59559092        4       0.00337123      -0.00215150      -0.00344451
In       5.05412961      -3.02188583       5.87136615        5       0.00290303       0.00427035      -0.00020235
In      -1.33780424       1.49789394       5.87136615        6       0.00355635       0.00450020       0.00010002
In      -1.85816269       7.54166561       1.95712205        7      -0.00290303      -0.00427035       0.00020235
In       4.53377116       0.18397450       4.23289727        8      -0.00337123       0.00215150       0.00344451
In      -1.59798346       4.51977977      -0.00000000        9       0.00000000       0.00000000       0.00000000
In       4.53377116       6.96364415       0.31865317       10      -0.00352215       0.00201832       0.00368491
In      -1.33780424      -2.44386438       7.50983502       11       0.00352215      -0.00201832      -0.00368491
In       4.53377116       3.02188584       1.95712205       12      -0.00355635      -0.00450020      -0.00010002
In       1.85816269       5.46575022       2.27577522       13       0.00322751      -0.00232659       0.00372964
In       4.79395039       0.00000000      -0.00000000       14       0.00000000       0.00000000       0.00000000
In       1.59798346       2.25988989       3.91424410       15       0.00000000       0.00000000       0.00000000
O        1.07673901       4.54237775       4.20637203       16       0.00782027       0.01294268      -0.00262844
O       -2.11922791       3.63152605       5.70573175       17       0.00784624      -0.00875409      -0.00987381
O       -0.45723506       2.45631963      -0.08723922       18       0.00657097      -0.00784958      -0.01141698
O       -1.07673902      -0.86565574       2.08361558       19      -0.00781924       0.00420195      -0.01250430
O        4.13024489       5.33506793       2.17085480       20      -0.01086625      -0.01080763      -0.00108089
O        2.26168896       3.04740844       1.79148765       21       0.01085546      -0.00447218      -0.00990646
O        2.26168895       6.80743926       0.37936714       22       0.01084877      -0.00632543       0.00880809
O       -2.46825204       6.39198179       3.82700488       23       0.00959690      -0.00357640      -0.01142393
O        3.65320198       2.06346015       7.91572741       24      -0.00657097       0.00784958       0.01141698
O        5.66421896      -1.87220202       4.00148332       25      -0.00959690       0.00357640       0.01142393
O        6.84916890       3.41249832       1.74338929       26      -0.00658922      -0.01379243       0.00109915
O        3.92368181       2.37818244       4.29361124       27       0.00959561      -0.00809872       0.00881837
O        0.72771488       4.78917508       7.53636027       28       0.00958250       0.01167718       0.00262175
O        2.46825204      -0.26939531       0.29212793       29      -0.00958250      -0.01167718      -0.00262175
O       -3.65320198       1.10728145       6.08509890       30       0.00658922       0.01379243      -0.00109915
O        5.31519483       0.88825373       2.12275644       31      -0.00784624       0.00875409       0.00987381
O        0.93427797       1.47237133       6.03700054       32      -0.01085546       0.00447218       0.00990646
O        3.65320198      -0.95617869       5.99785968       33      -0.00656943       0.00597267      -0.01253310
O        2.11922791      -0.02259798       3.62211617       34      -0.00782027      -0.01294268       0.00262844
O        0.93427797      -2.28765948       7.44912105       35      -0.01084877       0.00632543      -0.00880809
O       -0.72771489       2.14159733       3.53487695       36      -0.00959561       0.00809872      -0.00881837
O       -0.93427797      -0.81528815       5.65763339       37       0.01086625       0.01080763       0.00108089
O       -0.45723506       5.47595846       1.83062851       38       0.00656943      -0.00597267       0.01253310
O        4.27270594       5.38543552       5.74487261       39       0.00781924      -0.00420195       0.01250430
40
Lattice="9.587900773295226 7.514694961676242e-10 9.875496362342284e-16 -3.1959669251402354 9.039559538603902 -1.301598039910743e-09 -3.1959669240774975 -4.519779768550468 7.828488200320655" Properties=species:S:1:pos:R:3:spacegroup_kinds:I:1:forces:R:3 spacegroup="P 1" unit_cell=conventional occupancy="_JSON {\"0\": {\"In\": 1}, \"1\": {\"In\": 1}, \"2\": {\"In\": 1}, \"3\": {\"In\": 1}, \"4\": {\"In\": 1}, \"5\": {\"In\": 1}, \"6\": {\"In\": 1}, \"7\": {\"In\": 1}, \"8\": {\"In\": 1}, \"9\": {\"In\": 1}, \"10\": {\"In\": 1}, \"11\": {\"In\": 1}, \"12\": {\"In\": 1}, \"13\": {\"In\": 1}, \"14\": {\"In\": 1}, \"15\": {\"In\": 1}, \"16\": {\"O\": 1}, \"17\": {\"O\": 1}, \"18\": {\"O\": 1}, \"19\": {\"O\": 1}, \"20\": {\"O\": 1}, \"21\": {\"O\": 1}, \"22\": {\"O\": 1}, \"23\": {\"O\": 1}, \"24\": {\"O\": 1}, \"25\": {\"O\": 1}, \"26\": {\"O\": 1}, \"27\": {\"O\": 1}, \"28\": {\"O\": 1}, \"29\": {\"O\": 1}, \"30\": {\"O\": 1}, \"31\": {\"O\": 1}, \"32\": {\"O\": 1}, \"33\": {\"O\": 1}, \"34\": {\"O\": 1}, \"35\": {\"O\": 1}, \"36\": {\"O\": 1}, \"37\": {\"O\": 1}, \"38\": {\"O\": 1}, \"39\": {\"O\": 1}}" n_minim_iter=4 energy=-45141.611772040094 stress="0.10599181612675816 -4.209294208391583e-17 1.249000902703301e-16 -4.209294208391583e-17 0.10599181612675795 -1.8735013540549517e-16 1.249000902703301e-16 -1.8735013540549517e-16 0.10599181612675841" pbc="T T T"
In      -4.53289343       3.20523969       6.19109431        0       0.00094719      -0.00032344       0.00099399
In       7.72886035       1.31454009       1.63739388        1      -0.00094719       0.00032344      -0.00099399
In       1.33692650      -0.94534980       5.55163798        2      -0.00090811       0.00062555      -0.00094591
In      -1.59798346      -2.25988988       3.91424410        3       0.00000000       0.00000000       0.00000000
In      -1.33692651       4.33518463       3.59451593        4       0.00104130      -0.00045251      -0.00069291
In       5.05500734      -3.02064454       5.87136615        5       0.00060190       0.00105878      -0.00018178
In      -1.33692651       1.49913523       5.87136615        6       0.00123387       0.00126627       0.00013858
In      -1.85904042       7.54042431       1.95712205        7      -0.00060190      -0.00105878       0.00018178
In       4.53289343       0.18459515       4.23397227        8      -0.00104130       0.00045251       0.00069291
In      -1.59798346       4.51977977      -0.00000000        9       0.00000000       0.00000000       0.00000000
In       4.53289343       6.96426480       0.31972816       10      -0.00122693       0.00045431       0.00088189
In      -1.33692651      -2.44448503       7.50876003       11       0.00122693      -0.00045431      -0.00088189
In       4.53289343       3.02064454       1.95712205       12      -0.00123387      -0.00126627      -0.00013858
In       1.85904042       5.46512957       2.27685021       13       0.00090811      -0.00062555       0.00094591
In       4.79395039       0.00000000      -0.00000000       14       0.00000000       0.00000000       0.00000000
In       1.59798346       2.25988989       3.91424410       15       0.00000000       0.00000000       0.00000000
O        1.07916178       4.54215680       4.20582090       16       0.00397313       0.01615450       0.00314960
O       -2.11680514       3.63115924       5.70619867       17       0.00399472      -0.00535381      -0.01554052
O       -0.45698162       2.45748677      -0.08942918       18       0.01151777      -0.01067162      -0.00631772
O       -1.07916178      -0.86624351       2.08353138       19      -0.00397030       0.01081457      -0.01239812
O        4.12909147       5.33439132       2.17296055       20      -0.00637942      -0.01446991      -0.00607346
O        2.26284238       3.04524650       1.79195457       21       0.00636400      -0.00197949      -0.01557549
O        2.26284238       6.80892459       0.38100598       22       0.00635937      -0.01248091       0.00948480
O       -2.46926795       6.39135380       3.82481492       23       0.01390710      -0.00729911      -0.00633468
O        3.65294854       2.06229301       7.91791738       24      -0.01151777       0.01067162       0.00631772
O        5.66523487      -1.87157403       4.00367328       25      -0.01390710       0.00729911       0.00633468
O        6.84891547       3.41118533       1.74128354       26      -0.01154194      -0.01078861       0.00609274
O        3.92266590       2.37659987       4.29525008       27       0.01390838      -0.00181340       0.00949457
O        0.72669898       4.79138564       7.53691139       28       0.01389167       0.00912947      -0.00314857
O        2.46926795      -0.27160587       0.29157680       29      -0.01389167      -0.00912947       0.00314857
O       -3.65294854       1.10859445       6.08720465       30       0.01154194       0.01078861      -0.00609274
O        5.31277206       0.88862054       2.12228952       31      -0.00399472       0.00535381       0.01554052
O        0.93312454       1.47453327       6.03653362       32      -0.00636400       0.00197949       0.01557549
O        3.65294854      -0.95369856       5.99777548       33      -0.01151263       0.00014810      -0.01242717
O        2.11680514      -0.02237702       3.62266729       34      -0.00397313      -0.01615450      -0.00314960
O        0.93312454      -2.28914482       7.44748221       35      -0.00635937       0.01248091      -0.00948480
O       -0.72669898       2.14317990       3.53323811       36      -0.01390838       0.00181340      -0.00949457
O       -0.93312455      -0.81461155       5.65552764       37       0.00637942       0.01446991       0.00607346
O       -0.45698162       5.47347833       1.83071272       38       0.01151263      -0.00014810       0.01242717
O        4.27512871       5.38602328       5.74495682       39       0.00397030      -0.01081457       0.01239812
40
Lattice="9.58790077329523 7.514694961676244e-10 9.875496362342483e-16 -3.1959669251402363 9.039559538603909 -1.3015980399107438e-09 -3.1959669240774984 -4.519779768550472 7.828488200320657" Properties=species:S:1:pos:R:3:spacegroup_kinds:I:1:forces:R:3 spacegroup="P 1" unit_cell=conventional occupancy="_JSON {\"0\": {\"In\": 1}, \"1\": {\"In\": 1}, \"2\": {\"In\": 1}, \"3\": {\"In\": 1}, \"4\": {\"In\": 1}, \"5\": {\"In\": 1}, \"6\": {\"In\": 1}, \"7\": {\"In\": 1}, \"8\": {\"In\": 1}, \"9\": {\"In\": 1}, \"10\": {\"In\": 1}, \"11\": {\"In\": 1}, \"12\": {\"In\": 1}, \"13\": {\"In\": 1}, \"14\": {\"In\": 1}, \"15\": {\"In\": 1}, \"16\": {\"O\": 1}, \"17\": {\"O\": 1}, \"18\": {\"O\": 1}, \"19\": {\"O\": 1}, \"20\": {\"O\": 1}, \"21\": {\"O\": 1}, \"22\": {\"O\": 1}, \"23\": {\"O\": 1}, \"24\": {\"O\": 1}, \"25\": {\"O\": 1}, \"26\": {\"O\": 1}, \"27\": {\"O\": 1}, \"28\": {\"O\": 1}, \"29\": {\"O\": 1}, \"30\": {\"O\": 1}, \"31\": {\"O\": 1}, \"32\": {\"O\": 1}, \"33\": {\"O\": 1}, \"34\": {\"O\": 1}, \"35\": {\"O\": 1}, \"36\": {\"O\": 1}, \"37\": {\"O\": 1}, \"38\": {\"O\": 1}, \"39\": {\"O\": 1}}" n_minim_iter=5 energy=-45141.6129686608 stress="0.1057772732830077 5.7886877527095015e-18 6.938893903907228e-17 5.7886877527095015e-18 0.10577727328300755 -2.7755575615628914e-17 6.938893903907228e-17 -2.7755575615628914e-17 0.10577727328300772" pbc="T T T"
In      -4.53186404       3.20451180       6.19235505        0      -0.00226617       0.00190493      -0.00295600
In       7.72783096       1.31526798       1.63613314        1       0.00226617      -0.00190493       0.00295600
In       1.33589711      -0.94462191       5.55037724        2       0.00224226      -0.00159434       0.00298994
In      -1.59798346      -2.25988988       3.91424410        3       0.00000000       0.00000000       0.00000000
In      -1.33589712       4.33445674       3.59325519        4      -0.00219804       0.00167970       0.00311232
In       5.05603673      -3.01918876       5.87136615        5      -0.00250014      -0.00343294      -0.00012213
In      -1.33589712       1.50059101       5.87136615        6      -0.00199595      -0.00324782       0.00003728
In      -1.86006981       7.53896853       1.95712205        7       0.00250014       0.00343294       0.00012213
In       4.53186404       0.18532303       4.23523301        8       0.00219804      -0.00167970      -0.00311232
In      -1.59798346       4.51977977      -0.00000000        9       0.00000000       0.00000000       0.00000000
In       4.53186404       6.96499269       0.32098890       10       0.00201317      -0.00173087      -0.00298685
In      -1.33589712      -2.44521291       7.50749929       11      -0.00201317       0.00173087       0.00298685
In       4.53186404       3.01918876       1.95712205       12       0.00199595       0.00324782      -0.00003728
In       1.86006981       5.46440168       2.27811095       13      -0.00224226       0.00159434      -0.00298994
In       4.79395039       0.00000000      -0.00000000       14       0.00000000       0.00000000       0.00000000
In       1.59798346       2.25988989       3.91424410       15       0.00000000       0.00000000       0.00000000
O        1.08213277       4.54264610       4.20545777       16       0.00012856       0.01353532       0.00842242
O       -2.11383415       3.63060011       5.70595649       17       0.00014784       0.00052013      -0.01591924
O       -0.45605713       2.45837473      -0.09217780       18       0.01331060      -0.00878109       0.00021057
O       -1.08213278      -0.86631334       2.08292607       19      -0.00013550       0.01405776      -0.00750377
O        4.12757399       5.33287424       2.17510386       20       0.00042886      -0.01395055      -0.00769583
O        2.26435986       3.04263180       1.79171239       21      -0.00043169      -0.00031650      -0.01594238
O        2.26435986       6.81002221       0.38339147       22      -0.00044891      -0.01362685       0.00822342
O       -2.46979697       6.39018619       3.82206630       23       0.01271462      -0.00961747       0.00018975
O        3.65202405       2.06140504       7.92066599       24      -0.01331060       0.00878109      -0.00021057
O        5.66576389      -1.87040642       4.00642189       25      -0.01271462       0.00961747      -0.00018975
O        6.84799097       3.40924894       1.73914023       26      -0.01332706      -0.00419861       0.00771794
O        3.92213688       2.37480331       4.29763557       27       0.01271873       0.00498460       0.00823499
O        0.72616996       4.79434982       7.53727452       28       0.01271179       0.00463956      -0.00841239
O        2.46979696      -0.27457004       0.29121367       29      -0.01271179      -0.00463956       0.00841239
O       -3.65202405       1.11053083       6.08934796       30       0.01332706       0.00419861      -0.00771794
O        5.30980107       0.88917967       2.12253170       31      -0.00014784      -0.00052013       0.01591924
O        0.93160706       1.47714797       6.03677580       32       0.00043169       0.00031650       0.01594238
O        3.65202405      -0.95087421       5.99717017       33      -0.01330006      -0.00455368      -0.00752331
O        2.11383415      -0.02286632       3.62303042       34      -0.00012856      -0.01353532      -0.00842242
O        0.93160706      -2.29024243       7.44509673       35       0.00044891       0.01362685      -0.00822342
O       -0.72616996       2.14497647       3.53085263       36      -0.01271873      -0.00498460      -0.00823499
O       -0.93160707      -0.81309446       5.65338433       37      -0.00042886       0.01395055       0.00769583
O       -0.45605713       5.47065398       1.83131803       38       0.01330006       0.00455368       0.00752331
O        4.27809970       5.38609311       5.74556213       39       0.00013550      -0.01405776       0.00750377
40