20
Lattice="5.4571685949655855 8.307674413329068e-60 -9.706498439132009e-43 -6.0406857349381865e-59 5.5681556831988726 -5.774709523159044e-17 -6.479796487416252e-43 -1.1024044470398631e-18 7.823429321249068" Properties=species:S:1:pos:R:3:spacegroup_kinds:I:1:forces:R:3 spacegroup="P 1" unit_cell=conventional occupancy="_JSON {\"0\": {\"In\": 1}, \"1\": {\"In\": 1}, \"2\": {\"In\": 1}, \"3\": {\"In\": 1}, \"4\": {\"In\": 1}, \"5\": {\"In\": 1}, \"6\": {\"In\": 1}, \"7\": {\"In\": 1}, \"8\": {\"O\": 1}, \"9\": {\"O\": 1}, \"10\": {\"O\": 1}, \"11\": {\"O\": 1}, \"12\": {\"O\": 1}, \"13\": {\"O\": 1}, \"14\": {\"O\": 1}, \"15\": {\"O\": 1}, \"16\": {\"O\": 1}, \"17\": {\"O\": 1}, \"18\": {\"O\": 1}, \"19\": {\"O\": 1}}" n_minim_iter=7 energy=-22574.767241912705 stress="-0.029716143376709248 3.527918638983567e-13 9.167210653291552e-13 3.527918638983567e-13 -0.029704190000128524 -3.017043683654349e-13 9.167210653291552e-13 -3.017043683654349e-13 -0.029705242494911296" free_energy=-22574.767241912705 pbc="T T T"
In       1.35654655       2.95768883       0.89917849        0      -0.00184072       0.00001465       0.00233110
In       1.37203774       0.17361099       3.01253617        1       0.00184072       0.00001465      -0.00233110
In       1.37203774       2.61046685       4.81089315        2       0.00184072      -0.00001465       0.00233110
In       1.35654655       5.39454469       6.92425083        3      -0.00184072      -0.00001465      -0.00233110
In       4.10062204       2.61046685       6.92425083        4       0.00184072      -0.00001465      -0.00233110
In       4.08513085       5.39454469       4.81089315        5      -0.00184072      -0.00001465       0.00233110
In       4.08513085       2.95768883       3.01253617        6      -0.00184072       0.00001465      -0.00233110
In       4.10062204       0.17361099       0.89917849        7       0.00184072       0.00001465       0.00233110
O        2.12597857       3.35893213       6.64890366        8       0.00122647      -0.00121673       0.00049512
O        0.60260573       0.57485429       5.08624032        9      -0.00122647      -0.00121673      -0.00049512
O        0.60260573       2.20922355       2.73718900       10      -0.00122647       0.00121673       0.00049512
O        2.12597857       4.99330140       1.17452566       11       0.00122647       0.00121673      -0.00049512
O        3.33119003       2.20922355       1.17452566       12      -0.00122647       0.00121673      -0.00049512
O        4.85456286       4.99330140       2.73718900       13       0.00122647       0.00121673       0.00049512
O        4.85456286       3.35893213       5.08624032       14       0.00122647      -0.00121673      -0.00049512
O        3.33119003       0.57485429       6.64890366       15      -0.00122647      -0.00121673       0.00049512
O        5.21816255       4.17611676       0.00000000       16       0.00431762      -0.00000000      -0.00000000
O        2.96759034       1.39203892       3.91171466       17      -0.00431762       0.00000000      -0.00000000
O        0.23900604       1.39203892       0.00000000       18      -0.00431762       0.00000000       0.00000000
O        2.48957826       4.17611676       3.91171466       19       0.00431762      -0.00000000      -0.00000000
