20
Lattice="5.807527504222741 7.068050580108137e-59 9.215754094280826e-43 -9.43262347148316e-60 5.982241682779459 -3.768512743418017e-16 -1.6168569577628575e-42 5.429212678586322e-16 9.246746561143482" Properties=species:S:1:pos:R:3:spacegroup_kinds:I:1:forces:R:3 spacegroup="P 1" unit_cell=conventional occupancy="_JSON {\"0\": {\"In\": 1}, \"1\": {\"In\": 1}, \"2\": {\"In\": 1}, \"3\": {\"In\": 1}, \"4\": {\"In\": 1}, \"5\": {\"In\": 1}, \"6\": {\"In\": 1}, \"7\": {\"In\": 1}, \"8\": {\"O\": 1}, \"9\": {\"O\": 1}, \"10\": {\"O\": 1}, \"11\": {\"O\": 1}, \"12\": {\"O\": 1}, \"13\": {\"O\": 1}, \"14\": {\"O\": 1}, \"15\": {\"O\": 1}, \"16\": {\"O\": 1}, \"17\": {\"O\": 1}, \"18\": {\"O\": 1}, \"19\": {\"O\": 1}}" n_minim_iter=10 energy=-22571.1073054326 stress="0.13089306440583826 -7.584258804925152e-14 3.510272659212171e-13 -7.584258804925152e-14 0.13090241839350197 -1.521235149393562e-13 3.510272659212171e-13 -1.521235149393562e-13 0.13086052356997693" free_energy=-22571.1073054326 pbc="T T T"
In       1.37548338       3.20237847       1.16285260        0       0.00706811       0.00435316      -0.00194724
In       1.52828037       0.21125763       3.46052068        1      -0.00706811       0.00435316       0.00194724
In       1.52828037       2.77986321       5.78622588        2      -0.00706811      -0.00435316      -0.00194724
In       1.37548338       5.77098406       8.08389396        3       0.00706811      -0.00435316       0.00194724
In       4.43204412       2.77986321       8.08389396        4      -0.00706811      -0.00435316       0.00194724
In       4.27924714       5.77098406       5.78622588        5       0.00706811      -0.00435316      -0.00194724
In       4.27924714       3.20237847       3.46052068        6       0.00706811       0.00435316       0.00194724
In       4.43204412       0.21125763       1.16285260        7      -0.00706811       0.00435316      -0.00194724
O        2.35060890       3.61952424       7.69590053        8       0.00186296      -0.00645810       0.00698878
O        0.55315486       0.62840340       6.17421931        9      -0.00186296      -0.00645810      -0.00698878
O        0.55315486       2.36271744       3.07252725       10      -0.00186296       0.00645810       0.00698878
O        2.35060890       5.35383828       1.55084603       11       0.00186296       0.00645810      -0.00698878
O        3.45691861       2.36271744       1.55084603       12      -0.00186296       0.00645810      -0.00698878
O        5.25437265       5.35383828       3.07252725       13       0.00186296       0.00645810       0.00698878
O        5.25437265       3.61952424       6.17421931       14       0.00186296      -0.00645810      -0.00698878
O        3.45691861       0.62840340       7.69590053       15      -0.00186296      -0.00645810       0.00698878
O        5.56161536       4.48668126       0.00000000       16       0.00976858      -0.00000000      -0.00000000
O        3.14967590       1.49556042       4.62337328       17      -0.00976858      -0.00000000       0.00000000
O        0.24591215       1.49556042       0.00000000       18      -0.00976858       0.00000000       0.00000000
O        2.65785160       4.48668126       4.62337328       19       0.00976858       0.00000000       0.00000000
