20
Lattice="5.787886488796144 -5.282607340560409e-61 -4.6469729892253084e-43 -6.755042341538278e-61 5.813683680872209 -5.8020924096928e-18 4.546650169989083e-43 5.189029844946923e-18 8.401473325936031" Properties=species:S:1:pos:R:3:spacegroup_kinds:I:1:forces:R:3 spacegroup="P 1" unit_cell=conventional occupancy="_JSON {\"0\": {\"In\": 1}, \"1\": {\"In\": 1}, \"2\": {\"In\": 1}, \"3\": {\"In\": 1}, \"4\": {\"In\": 1}, \"5\": {\"In\": 1}, \"6\": {\"In\": 1}, \"7\": {\"In\": 1}, \"8\": {\"O\": 1}, \"9\": {\"O\": 1}, \"10\": {\"O\": 1}, \"11\": {\"O\": 1}, \"12\": {\"O\": 1}, \"13\": {\"O\": 1}, \"14\": {\"O\": 1}, \"15\": {\"O\": 1}, \"16\": {\"O\": 1}, \"17\": {\"O\": 1}, \"18\": {\"O\": 1}, \"19\": {\"O\": 1}}" n_minim_iter=5 energy=-22574.213240796762 stress="0.054689174009655624 -5.746944654200526e-13 -8.602410006371705e-13 -5.746944654200526e-13 0.054654018049162735 -1.221847169494509e-13 -8.602410006371705e-13 -1.221847169494509e-13 0.054648687384083953" free_energy=-22574.213240796762 pbc="T T T"
In       1.43428375       3.04683059       0.97492628        0      -0.00236838       0.00439387       0.00522165
In       1.45965950       0.13998875       3.22581039        1       0.00236838       0.00439387      -0.00522165
In       1.45965950       2.76685309       5.17566294        2       0.00236838      -0.00439387       0.00522165
In       1.43428375       5.67369493       7.42654705        3      -0.00236838      -0.00439387      -0.00522165
In       4.35360274       2.76685309       7.42654705        4       0.00236838      -0.00439387      -0.00522165
In       4.32822699       5.67369493       5.17566294        5      -0.00236838      -0.00439387       0.00522165
In       4.32822699       3.04683059       3.22581039        6      -0.00236838       0.00439387      -0.00522165
In       4.35360274       0.13998875       0.97492628        7       0.00236838       0.00439387       0.00522165
O        2.26317218       3.49944620       7.12371682        8       0.00196307      -0.00032713      -0.00187978
O        0.63077107       0.59260436       5.47849317        9      -0.00196307      -0.00032713       0.00187978
O        0.63077107       2.31423748       2.92298016       10      -0.00196307       0.00032713      -0.00187978
O        2.26317218       5.22107932       1.27775651       11       0.00196307       0.00032713       0.00187978
O        3.52471431       2.31423748       1.27775651       12      -0.00196307       0.00032713       0.00187978
O        5.15711542       5.22107932       2.92298016       13       0.00196307       0.00032713      -0.00187978
O        5.15711542       3.49944620       5.47849317       14       0.00196307      -0.00032713       0.00187978
O        3.52471431       0.59260436       7.12371682       15      -0.00196307      -0.00032713      -0.00187978
O        5.53481486       4.36026276      -0.00000000       16       0.00471804      -0.00000000       0.00000000
O        3.14701488       1.45342092       4.20073666       17      -0.00471804      -0.00000000       0.00000000
O        0.25307163       1.45342092      -0.00000000       18      -0.00471804      -0.00000000      -0.00000000
O        2.64087161       4.36026276       4.20073666       19       0.00471804      -0.00000000       0.00000000
