20
Lattice="5.466813811401769 3.7835547604092797e-60 3.6314743771423594e-43 -1.873570272955587e-59 5.57057621384107 4.8340783397363294e-17 1.4445187924150655e-43 6.572952663588852e-17 7.806232833477021" Properties=species:S:1:pos:R:3:spacegroup_kinds:I:1:forces:R:3 spacegroup="P 1" unit_cell=conventional occupancy="_JSON {\"0\": {\"In\": 1}, \"1\": {\"In\": 1}, \"2\": {\"In\": 1}, \"3\": {\"In\": 1}, \"4\": {\"In\": 1}, \"5\": {\"In\": 1}, \"6\": {\"In\": 1}, \"7\": {\"In\": 1}, \"8\": {\"O\": 1}, \"9\": {\"O\": 1}, \"10\": {\"O\": 1}, \"11\": {\"O\": 1}, \"12\": {\"O\": 1}, \"13\": {\"O\": 1}, \"14\": {\"O\": 1}, \"15\": {\"O\": 1}, \"16\": {\"O\": 1}, \"17\": {\"O\": 1}, \"18\": {\"O\": 1}, \"19\": {\"O\": 1}}" n_minim_iter=8 energy=-22574.520195449917 stress="-0.04768025335948784 1.7670588215738283e-13 -9.634568854284943e-14 1.7670588215738283e-13 -0.047581937461389015 6.254474011439188e-13 -9.634568854284943e-14 6.254474011439188e-13 -0.047994532994464364" free_energy=-22574.520195449917 pbc="T T T"
In       1.35892261       2.96429202       0.90750409        0       0.00336174       0.00158390      -0.00226668
In       1.37448430       0.17900391       2.99561233        1      -0.00336174       0.00158390       0.00226668
In       1.37448430       2.60628420       4.81062050        2      -0.00336174      -0.00158390      -0.00226668
In       1.35892261       5.39157230       6.89872875        3       0.00336174      -0.00158390       0.00226668
In       4.10789120       2.60628420       6.89872875        4      -0.00336174      -0.00158390       0.00226668
In       4.09232951       5.39157230       4.81062050        5       0.00336174      -0.00158390      -0.00226668
In       4.09232951       2.96429202       2.99561233        6       0.00336174       0.00158390       0.00226668
In       4.10789120       0.17900391       0.90750409        7      -0.00336174       0.00158390      -0.00226668
O        2.12791313       3.35726764       6.64292493        8       0.00578828      -0.00049781       0.00110489
O        0.60549378       0.57197953       5.06642432        9      -0.00578828      -0.00049781      -0.00110489
O        0.60549378       2.21330858       2.73980851       10      -0.00578828       0.00049781       0.00110489
O        2.12791313       4.99859669       1.16330791       11       0.00578828       0.00049781      -0.00110489
O        3.33890069       2.21330858       1.16330791       12      -0.00578828       0.00049781      -0.00110489
O        4.86132003       4.99859669       2.73980851       13       0.00578828       0.00049781       0.00110489
O        4.86132003       3.35726764       5.06642432       14       0.00578828      -0.00049781      -0.00110489
O        3.33890069       0.57197953       6.64292493       15      -0.00578828      -0.00049781       0.00110489
O        5.22597401       4.17793216       0.00000000       16      -0.00785927      -0.00000000      -0.00000000
O        2.97424671       1.39264405       3.90311642       17       0.00785927      -0.00000000       0.00000000
O        0.24083981       1.39264405       0.00000000       18       0.00785927       0.00000000      -0.00000000
O        2.49256710       4.17793216       3.90311642       19      -0.00785927       0.00000000      -0.00000000
