20
Lattice="5.457168594965584 8.10720891689636e-60 4.5199285940823915e-43 -8.337078067495608e-60 5.568155683198874 7.846123911794593e-19 -6.479796487416251e-43 -1.1024044470398631e-18 7.823429321249068" Properties=species:S:1:pos:R:3:spacegroup_kinds:I:1:forces:R:3 spacegroup="P 1" unit_cell=conventional occupancy="_JSON {\"0\": {\"In\": 1}, \"1\": {\"In\": 1}, \"2\": {\"In\": 1}, \"3\": {\"In\": 1}, \"4\": {\"In\": 1}, \"5\": {\"In\": 1}, \"6\": {\"In\": 1}, \"7\": {\"In\": 1}, \"8\": {\"O\": 1}, \"9\": {\"O\": 1}, \"10\": {\"O\": 1}, \"11\": {\"O\": 1}, \"12\": {\"O\": 1}, \"13\": {\"O\": 1}, \"14\": {\"O\": 1}, \"15\": {\"O\": 1}, \"16\": {\"O\": 1}, \"17\": {\"O\": 1}, \"18\": {\"O\": 1}, \"19\": {\"O\": 1}}" n_minim_iter=1 energy=-22574.51573836711 stress="-0.05092550470773961 -5.871886092934732e-13 1.6406075121232948e-13 -5.871886092934732e-13 -0.04962383858213741 -2.736076103460475e-14 1.6406075121232948e-13 -2.736076103460475e-14 -0.047654773124739376" free_energy=-22574.51573836711 pbc="T T T"
In       1.35654655       2.95768883       0.89917849        0       0.03011433       0.04453272       0.05147664
In       1.37203774       0.17361099       3.01253617        1      -0.03011433       0.04453272      -0.05147664
In       1.37203774       2.61046685       4.81089315        2      -0.03011433      -0.04453272       0.05147664
In       1.35654655       5.39454469       6.92425083        3       0.03011433      -0.04453272      -0.05147664
In       4.10062204       2.61046685       6.92425083        4      -0.03011433      -0.04453272      -0.05147664
In       4.08513085       5.39454469       4.81089315        5       0.03011433      -0.04453272       0.05147664
In       4.08513085       2.95768883       3.01253617        6       0.03011433       0.04453272      -0.05147664
In       4.10062204       0.17361099       0.89917849        7      -0.03011433       0.04453272       0.05147664
O        2.12597857       3.35893213       6.64890366        8      -0.02557996       0.01440813       0.02364232
O        0.60260573       0.57485429       5.08624032        9       0.02557996       0.01440813      -0.02364232
O        0.60260573       2.20922355       2.73718900       10       0.02557996      -0.01440813       0.02364232
O        2.12597857       4.99330140       1.17452566       11      -0.02557996      -0.01440813      -0.02364232
O        3.33119003       2.20922355       1.17452566       12       0.02557996      -0.01440813      -0.02364232
O        4.85456286       4.99330140       2.73718900       13      -0.02557996      -0.01440813       0.02364232
O        4.85456286       3.35893213       5.08624032       14      -0.02557996       0.01440813      -0.02364232
O        3.33119003       0.57485429       6.64890366       15       0.02557996       0.01440813       0.02364232
O        5.21816255       4.17611676       0.00000000       16       0.02885591      -0.00000000      -0.00000000
O        2.96759034       1.39203892       3.91171466       17      -0.02885591      -0.00000000       0.00000000
O        0.23900604       1.39203892       0.00000000       18      -0.02885591      -0.00000000      -0.00000000
O        2.48957826       4.17611676       3.91171466       19       0.02885591      -0.00000000       0.00000000
20
Lattice="5.466549759509207 6.94084789976916e-60 4.5987049854520725e-43 -9.960430641088302e-60 5.5695518070308685 5.7249758650098994e-18 -6.406998223057954e-43 5.852601921197732e-18 7.808045768131053" Properties=species:S:1:pos:R:3:spacegroup_kinds:I:1:forces:R:3 spacegroup="P 1" unit_cell=conventional occupancy="_JSON {\"0\": {\"In\": 1}, \"1\": {\"In\": 1}, \"2\": {\"In\": 1}, \"3\": {\"In\": 1}, \"4\": {\"In\": 1}, \"5\": {\"In\": 1}, \"6\": {\"In\": 1}, \"7\": {\"In\": 1}, \"8\": {\"O\": 1}, \"9\": {\"O\": 1}, \"10\": {\"O\": 1}, \"11\": {\"O\": 1}, \"12\": {\"O\": 1}, \"13\": {\"O\": 1}, \"14\": {\"O\": 1}, \"15\": {\"O\": 1}, \"16\": {\"O\": 1}, \"17\": {\"O\": 1}, \"18\": {\"O\": 1}, \"19\": {\"O\": 1}}" n_minim_iter=2 energy=-22574.51660552086 stress="-0.04876136043008312 2.8279139250860418e-15 -2.930370588556614e-13 2.8279139250860418e-15 -0.04916258946795173 3.971994548173854e-14 -2.930370588556614e-13 3.971994548173854e-14 -0.0494053235466929" free_energy=-22574.51660552086 pbc="T T T"
In       1.35902153       2.95864158       0.89765394        0       0.05099468       0.04015194       0.04479589
In       1.37425335       0.17386568       3.00636895        1      -0.05099468       0.04015194      -0.04479589
In       1.37425335       2.61091022       4.80167682        2      -0.05099468      -0.04015194       0.04479589
In       1.35902153       5.39568613       6.91039183        3       0.05099468      -0.04015194      -0.04479589
In       4.10752823       2.61091022       6.91039183        4      -0.05099468      -0.04015194      -0.04479589
In       4.09229641       5.39568613       4.80167682        5       0.05099468      -0.04015194       0.04479589
In       4.09229641       2.95864158       3.00636895        6       0.05099468       0.04015194      -0.04479589
In       4.10752823       0.17386568       0.89765394        7      -0.05099468       0.04015194       0.04479589
O        2.12951177       3.35984264       6.63594149        8      -0.00684652       0.01282957       0.03763001
O        0.60376311       0.57506674       5.07612716        9       0.00684652       0.01282957      -0.03763001
O        0.60376311       2.20970916       2.73191860       10       0.00684652      -0.01282957       0.03763001
O        2.12951177       4.99448507       1.17210428       11      -0.00684652      -0.01282957      -0.03763001
O        3.33703799       2.20970916       1.17210428       12       0.00684652      -0.01282957      -0.03763001
O        4.86278665       4.99448507       2.73191860       13      -0.00684652      -0.01282957       0.03763001
O        4.86278665       3.35984264       5.07612716       14      -0.00684652       0.01282957      -0.03763001
O        3.33703799       0.57506674       6.63594149       15       0.00684652       0.01282957       0.03763001
O        5.22726988       4.17716386       0.00000000       16       0.03226090       0.00000000       0.00000000
O        2.97255476       1.39238795       3.90402288       17      -0.03226090      -0.00000000      -0.00000000
O        0.23927988       1.39238795       0.00000000       18      -0.03226090       0.00000000      -0.00000000
O        2.49399500       4.17716386       3.90402288       19       0.03226090       0.00000000      -0.00000000
20
Lattice="5.465267129086599 5.231411977006586e-60 4.545942276037669e-43 -1.27249938915756e-59 5.576177984177948 1.8061198675957834e-17 -6.310602572007963e-43 2.3218603899231498e-17 7.800597734569299" Properties=species:S:1:pos:R:3:spacegroup_kinds:I:1:forces:R:3 spacegroup="P 1" unit_cell=conventional occupancy="_JSON {\"0\": {\"In\": 1}, \"1\": {\"In\": 1}, \"2\": {\"In\": 1}, \"3\": {\"In\": 1}, \"4\": {\"In\": 1}, \"5\": {\"In\": 1}, \"6\": {\"In\": 1}, \"7\": {\"In\": 1}, \"8\": {\"O\": 1}, \"9\": {\"O\": 1}, \"10\": {\"O\": 1}, \"11\": {\"O\": 1}, \"12\": {\"O\": 1}, \"13\": {\"O\": 1}, \"14\": {\"O\": 1}, \"15\": {\"O\": 1}, \"16\": {\"O\": 1}, \"17\": {\"O\": 1}, \"18\": {\"O\": 1}, \"19\": {\"O\": 1}}" n_minim_iter=3 energy=-22574.51855504135 stress="-0.04888793049442009 1.3773086947348265e-12 3.2221907033402814e-13 1.3773086947348265e-12 -0.047688560651531424 6.052310930896782e-13 3.2221907033402814e-13 6.052310930896782e-13 -0.04880124884142554" free_energy=-22574.51855504135 pbc="T T T"
In       1.36156415       2.96463460       0.89955898        0      -0.01261606       0.00038210       0.02457373
In       1.37106942       0.17654561       3.00073988        1       0.01261606       0.00038210      -0.02457373
In       1.37106942       2.61154338       4.79985785        2       0.01261606      -0.00038210       0.02457373
In       1.36156415       5.39963238       6.90103875        3      -0.01261606      -0.00038210      -0.02457373
In       4.10370298       2.61154338       6.90103875        4       0.01261606      -0.00038210      -0.02457373
In       4.09419771       5.39963238       4.79985785        5      -0.01261606      -0.00038210       0.02457373
In       4.09419771       2.96463460       3.00073988        6      -0.01261606       0.00038210      -0.02457373
In       4.10370298       0.17654561       0.89955898        7       0.01261606       0.00038210       0.02457373
O        2.12839722       3.36463202       6.63172207        8      -0.01015153      -0.00610432       0.01281207
O        0.60423634       0.57654303       5.06917453        9       0.01015153      -0.00610432      -0.01281207
O        0.60423634       2.21154596       2.73142320       10       0.01015153       0.00610432       0.01281207
O        2.12839722       4.99963495       1.16887567       11      -0.01015153       0.00610432      -0.01281207
O        3.33686991       2.21154596       1.16887567       12       0.01015153       0.00610432      -0.01281207
O        4.86103078       4.99963495       2.73142320       13      -0.01015153       0.00610432       0.01281207
O        4.86103078       3.36463202       5.06917453       14      -0.01015153      -0.00610432      -0.01281207
O        3.33686991       0.57654303       6.63172207       15       0.01015153      -0.00610432       0.01281207
O        5.22795869       4.18213349       0.00000000       16      -0.02225792      -0.00000000       0.00000000
O        2.96994200       1.39404450       3.90029887       17       0.02225792      -0.00000000      -0.00000000
O        0.23730844       1.39404450       0.00000000       18       0.02225792       0.00000000       0.00000000
O        2.49532513       4.18213349       3.90029887       19      -0.02225792      -0.00000000      -0.00000000
20
Lattice="5.468284058407188 4.135542612513356e-60 4.576430735318361e-43 -1.4646051522991154e-59 5.570928483333097 2.799513313807842e-17 -6.190845752108354e-43 3.714100650154863e-17 7.803640503719507" Properties=species:S:1:pos:R:3:spacegroup_kinds:I:1:forces:R:3 spacegroup="P 1" unit_cell=conventional occupancy="_JSON {\"0\": {\"In\": 1}, \"1\": {\"In\": 1}, \"2\": {\"In\": 1}, \"3\": {\"In\": 1}, \"4\": {\"In\": 1}, \"5\": {\"In\": 1}, \"6\": {\"In\": 1}, \"7\": {\"In\": 1}, \"8\": {\"O\": 1}, \"9\": {\"O\": 1}, \"10\": {\"O\": 1}, \"11\": {\"O\": 1}, \"12\": {\"O\": 1}, \"13\": {\"O\": 1}, \"14\": {\"O\": 1}, \"15\": {\"O\": 1}, \"16\": {\"O\": 1}, \"17\": {\"O\": 1}, \"18\": {\"O\": 1}, \"19\": {\"O\": 1}}" n_minim_iter=4 energy=-22574.518729793006 stress="-0.04828092154322561 7.067054656748948e-13 -1.090615672417597e-12 7.067054656748948e-13 -0.04855055680493796 1.2696315949125044e-12 -1.090615672417597e-12 1.2696315949125044e-12 -0.048313472482571576" free_energy=-22574.518729793006 pbc="T T T"
In       1.36249915       2.96206605       0.90029571        0      -0.01492973      -0.01484773       0.02911308
In       1.37164288       0.17660181       3.00152454        1       0.01492973      -0.01484773      -0.02911308
In       1.37164288       2.60886243       4.80211596        2       0.01492973       0.01484773       0.02911308
In       1.36249915       5.39432667       6.90334479        3      -0.01492973       0.01484773      -0.02911308
In       4.10578491       2.60886243       6.90334479        4       0.01492973       0.01484773      -0.02911308
In       4.09664118       5.39432667       4.80211596        5      -0.01492973       0.01484773       0.02911308
In       4.09664118       2.96206605       3.00152454        6      -0.01492973      -0.01484773      -0.02911308
In       4.10578491       0.17660181       0.90029571        7       0.01492973      -0.01484773       0.02911308
O        2.12945946       3.36150009       6.63457028        8      -0.00657302      -0.01417616       0.00866376
O        0.60468257       0.57603585       5.07089048        9       0.00657302      -0.01417616      -0.00866376
O        0.60468257       2.20942840       2.73275003       10       0.00657302       0.01417616       0.00866376
O        2.12945946       4.99489264       1.16907022       11      -0.00657302       0.01417616      -0.00866376
O        3.33882460       2.20942840       1.16907022       12       0.00657302       0.01417616      -0.00866376
O        4.86360149       4.99489264       2.73275003       13      -0.00657302       0.01417616       0.00866376
O        4.86360149       3.36150009       5.07089048       14      -0.00657302      -0.01417616      -0.00866376
O        3.33882460       0.57603585       6.63457028       15       0.00657302      -0.01417616       0.00866376
O        5.23088793       4.17819636       0.00000000       16      -0.02230962       0.00000000       0.00000000
O        2.97153816       1.39273212       3.90182025       17       0.02230962       0.00000000      -0.00000000
O        0.23739613       1.39273212       0.00000000       18       0.02230962       0.00000000      -0.00000000
O        2.49674590       4.17819636       3.90182025       19      -0.02230962      -0.00000000       0.00000000
20
Lattice="5.468818547601432 3.492827913900066e-60 4.575118585673756e-43 -1.5625711858318399e-59 5.568363561337961 3.1887862643997864e-17 -6.1912073591274834e-43 4.257443302064451e-17 7.806472016103676" Properties=species:S:1:pos:R:3:spacegroup_kinds:I:1:forces:R:3 spacegroup="P 1" unit_cell=conventional occupancy="_JSON {\"0\": {\"In\": 1}, \"1\": {\"In\": 1}, \"2\": {\"In\": 1}, \"3\": {\"In\": 1}, \"4\": {\"In\": 1}, \"5\": {\"In\": 1}, \"6\": {\"In\": 1}, \"7\": {\"In\": 1}, \"8\": {\"O\": 1}, \"9\": {\"O\": 1}, \"10\": {\"O\": 1}, \"11\": {\"O\": 1}, \"12\": {\"O\": 1}, \"13\": {\"O\": 1}, \"14\": {\"O\": 1}, \"15\": {\"O\": 1}, \"16\": {\"O\": 1}, \"17\": {\"O\": 1}, \"18\": {\"O\": 1}, \"19\": {\"O\": 1}}" n_minim_iter=5 energy=-22574.519489831393 stress="-0.048023761897349436 3.434107022296844e-13 -2.00437095494152e-13 3.434107022296844e-13 -0.048156666331097886 1.1070745072745183e-12 -2.00437095494152e-13 1.1070745072745183e-12 -0.04812447355697974" free_energy=-22574.519489831393 pbc="T T T"
In       1.36221174       2.96042097       0.90405075        0      -0.01257975       0.00582342      -0.00474835
In       1.37219753       0.17623919       2.99918526        1       0.01257975       0.00582342       0.00474835
In       1.37219753       2.60794259       4.80728676        2       0.01257975      -0.00582342      -0.00474835
In       1.36221174       5.39212437       6.90242127        3      -0.01257975      -0.00582342       0.00474835
In       4.10660681       2.60794259       6.90242127        4       0.01257975      -0.00582342       0.00474835
In       4.09662102       5.39212437       4.80728676        5      -0.01257975      -0.00582342      -0.00474835
In       4.09662102       2.96042097       2.99918526        6      -0.01257975       0.00582342       0.00474835
In       4.10660681       0.17623919       0.90405075        7       0.01257975       0.00582342      -0.00474835
O        2.12880462       3.35906279       6.63851867        8      -0.00034391      -0.00846102       0.02320785
O        0.60560465       0.57488101       5.07118936        9       0.00034391      -0.00846102      -0.02320785
O        0.60560465       2.20930077       2.73528266       10       0.00034391       0.00846102       0.02320785
O        2.12880462       4.99348255       1.16795335       11      -0.00034391       0.00846102      -0.02320785
O        3.34001392       2.20930077       1.16795335       12       0.00034391       0.00846102      -0.02320785
O        4.86321390       4.99348255       2.73528266       13      -0.00034391       0.00846102       0.02320785
O        4.86321390       3.35906279       5.07118936       14      -0.00034391      -0.00846102      -0.02320785
O        3.34001392       0.57488101       6.63851867       15       0.00034391      -0.00846102       0.02320785
O        5.22995028       4.17627267       0.00000000       16      -0.00713087      -0.00000000       0.00000000
O        2.97327755       1.39209089       3.90323601       17       0.00713087      -0.00000000      -0.00000000
O        0.23886827       1.39209089       0.00000000       18       0.00713087       0.00000000      -0.00000000
O        2.49554100       4.17627267       3.90323601       19      -0.00713087      -0.00000000       0.00000000
20
Lattice="5.468303869842986 1.4681833452262205e-60 4.230318393725074e-43 -1.854475055114557e-59 5.5670635013005425 4.5281307719818123e-17 -5.701062464208115e-43 6.13650089766017e-17 7.809029956808318" Properties=species:S:1:pos:R:3:spacegroup_kinds:I:1:forces:R:3 spacegroup="P 1" unit_cell=conventional occupancy="_JSON {\"0\": {\"In\": 1}, \"1\": {\"In\": 1}, \"2\": {\"In\": 1}, \"3\": {\"In\": 1}, \"4\": {\"In\": 1}, \"5\": {\"In\": 1}, \"6\": {\"In\": 1}, \"7\": {\"In\": 1}, \"8\": {\"O\": 1}, \"9\": {\"O\": 1}, \"10\": {\"O\": 1}, \"11\": {\"O\": 1}, \"12\": {\"O\": 1}, \"13\": {\"O\": 1}, \"14\": {\"O\": 1}, \"15\": {\"O\": 1}, \"16\": {\"O\": 1}, \"17\": {\"O\": 1}, \"18\": {\"O\": 1}, \"19\": {\"O\": 1}}" n_minim_iter=6 energy=-22574.519747407274 stress="-0.04790910832056403 -2.148443543210833e-13 1.5239088048793238e-12 -2.148443543210833e-13 -0.04783650690943088 6.914343497258928e-13 1.5239088048793238e-12 6.914343497258928e-13 -0.04783729328146578" free_energy=-22574.519747407274 pbc="T T T"
In       1.36132758       2.95986836       0.90707551        0      -0.01047424       0.01807885      -0.02084183
In       1.37282436       0.17633660       2.99743947        1       0.01047424       0.01807885       0.02084183
In       1.37282436       2.60719515       4.81159049        2       0.01047424      -0.01807885      -0.02084183
In       1.36132758       5.39072690       6.90195445        3      -0.01047424      -0.01807885       0.02084183
In       4.10697629       2.60719515       6.90195445        4       0.01047424      -0.01807885       0.02084183
In       4.09547951       5.39072690       4.81159049        5      -0.01047424      -0.01807885      -0.02084183
In       4.09547951       2.95986836       2.99743947        6      -0.01047424       0.01807885       0.02084183
In       4.10697629       0.17633660       0.90707551        7       0.01047424       0.01807885      -0.02084183
O        2.12783619       3.35725361       6.64298158        8       0.00436448      -0.00499193       0.02069114
O        0.60631575       0.57372186       5.07056336        9      -0.00436447      -0.00499193      -0.02069114
O        0.60631575       2.20980989       2.73846660       10      -0.00436448       0.00499193       0.02069114
O        2.12783619       4.99334164       1.16604838       11       0.00436448       0.00499193      -0.02069114
O        3.34046768       2.20980989       1.16604838       12      -0.00436447       0.00499193      -0.02069114
O        4.86198812       4.99334164       2.73846660       13       0.00436448       0.00499193       0.02069114
O        4.86198812       3.35725361       5.07056336       14       0.00436447      -0.00499193      -0.02069114
O        3.34046768       0.57372186       6.64298158       15      -0.00436448      -0.00499193       0.02069114
O        5.22805098       4.17529763       0.00000000       16       0.00349047      -0.00000000       0.00000000
O        2.97440483       1.39176588       3.90451498       17      -0.00349048       0.00000000      -0.00000000
O        0.24025289       1.39176588       0.00000000       18      -0.00349048      -0.00000000       0.00000000
O        2.49389904       4.17529763       3.90451498       19       0.00349048       0.00000000       0.00000000
20
Lattice="5.467426681718304 4.2166274076734273e-60 3.7725298827963014e-43 -1.8471116285793267e-59 5.568881034663498 5.167441186242354e-17 1.532886998820422e-43 7.038031916235843e-17 7.807733762498784" Properties=species:S:1:pos:R:3:spacegroup_kinds:I:1:forces:R:3 spacegroup="P 1" unit_cell=conventional occupancy="_JSON {\"0\": {\"In\": 1}, \"1\": {\"In\": 1}, \"2\": {\"In\": 1}, \"3\": {\"In\": 1}, \"4\": {\"In\": 1}, \"5\": {\"In\": 1}, \"6\": {\"In\": 1}, \"7\": {\"In\": 1}, \"8\": {\"O\": 1}, \"9\": {\"O\": 1}, \"10\": {\"O\": 1}, \"11\": {\"O\": 1}, \"12\": {\"O\": 1}, \"13\": {\"O\": 1}, \"14\": {\"O\": 1}, \"15\": {\"O\": 1}, \"16\": {\"O\": 1}, \"17\": {\"O\": 1}, \"18\": {\"O\": 1}, \"19\": {\"O\": 1}}" n_minim_iter=7 energy=-22574.520064931123 stress="-0.04783190457150548 -4.0290683666079653e-13 -5.830024091271722e-13 -4.0290683666079653e-13 -0.047850373239938494 2.356894232378356e-13 -5.830024091271722e-13 2.356894232378356e-13 -0.04780276842811646" free_energy=-22574.520064931123 pbc="T T T"
In       1.35999275       2.96173101       0.90669939        0      -0.00357435       0.00841927       0.00442325
In       1.37372059       0.17729049       2.99716750        1       0.00357435       0.00841927      -0.00442325
In       1.37372059       2.60715003       4.81056627        2       0.00357435      -0.00841927       0.00442325
In       1.35999275       5.39159055       6.90103438        3      -0.00357435      -0.00841927      -0.00442325
In       4.10743393       2.60715003       6.90103438        4       0.00357435      -0.00841927      -0.00442325
In       4.09370609       5.39159055       4.81056627        5      -0.00357435      -0.00841927       0.00442325
In       4.09370609       2.96173101       2.99716750        6      -0.00357435       0.00841927      -0.00442325
In       4.10743393       0.17729049       0.90669939        7       0.00357435       0.00841927       0.00442325
O        2.12746290       3.35754510       6.64401549        8       0.00572219      -0.00633106      -0.00722748
O        0.60625044       0.57310459       5.06758515        9      -0.00572219      -0.00633106       0.00722748
O        0.60625044       2.21133593       2.74014861       10      -0.00572219       0.00633106      -0.00722748
O        2.12746290       4.99577645       1.16371827       11       0.00572219       0.00633106       0.00722748
O        3.33996378       2.21133593       1.16371827       12      -0.00572219       0.00633106       0.00722748
O        4.86117624       4.99577645       2.74014861       13       0.00572219       0.00633106      -0.00722748
O        4.86117624       3.35754510       5.06758515       14       0.00572219      -0.00633106       0.00722748
O        3.33996378       0.57310459       6.64401549       15      -0.00572219      -0.00633106      -0.00722748
O        5.22668096       4.17666078       0.00000000       16       0.00145914       0.00000000       0.00000000
O        2.97445906       1.39222026       3.90386688       17      -0.00145914      -0.00000000      -0.00000000
O        0.24074572       1.39222026       0.00000000       18      -0.00145914      -0.00000000      -0.00000000
O        2.49296762       4.17666078       3.90386688       19       0.00145914      -0.00000000       0.00000000
20
Lattice="5.466813811401769 3.7835547604092797e-60 3.6314743771423594e-43 -1.873570272955587e-59 5.57057621384107 4.8340783397363294e-17 1.4445187924150655e-43 6.572952663588852e-17 7.806232833477021" Properties=species:S:1:pos:R:3:spacegroup_kinds:I:1:forces:R:3 spacegroup="P 1" unit_cell=conventional occupancy="_JSON {\"0\": {\"In\": 1}, \"1\": {\"In\": 1}, \"2\": {\"In\": 1}, \"3\": {\"In\": 1}, \"4\": {\"In\": 1}, \"5\": {\"In\": 1}, \"6\": {\"In\": 1}, \"7\": {\"In\": 1}, \"8\": {\"O\": 1}, \"9\": {\"O\": 1}, \"10\": {\"O\": 1}, \"11\": {\"O\": 1}, \"12\": {\"O\": 1}, \"13\": {\"O\": 1}, \"14\": {\"O\": 1}, \"15\": {\"O\": 1}, \"16\": {\"O\": 1}, \"17\": {\"O\": 1}, \"18\": {\"O\": 1}, \"19\": {\"O\": 1}}" n_minim_iter=8 energy=-22574.520195449917 stress="-0.04768025335948784 1.7670588215738283e-13 -9.634568854284943e-14 1.7670588215738283e-13 -0.047581937461389015 6.254474011439188e-13 -9.634568854284943e-14 6.254474011439188e-13 -0.047994532994464364" free_energy=-22574.520195449917 pbc="T T T"
In       1.35892261       2.96429202       0.90750409        0       0.00336174       0.00158390      -0.00226668
In       1.37448430       0.17900391       2.99561233        1      -0.00336174       0.00158390       0.00226668
In       1.37448430       2.60628420       4.81062050        2      -0.00336174      -0.00158390      -0.00226668
In       1.35892261       5.39157230       6.89872875        3       0.00336174      -0.00158390       0.00226668
In       4.10789120       2.60628420       6.89872875        4      -0.00336174      -0.00158390       0.00226668
In       4.09232951       5.39157230       4.81062050        5       0.00336174      -0.00158390      -0.00226668
In       4.09232951       2.96429202       2.99561233        6       0.00336174       0.00158390       0.00226668
In       4.10789120       0.17900391       0.90750409        7      -0.00336174       0.00158390      -0.00226668
O        2.12791313       3.35726764       6.64292493        8       0.00578828      -0.00049781       0.00110489
O        0.60549378       0.57197953       5.06642432        9      -0.00578828      -0.00049781      -0.00110489
O        0.60549378       2.21330858       2.73980851       10      -0.00578828       0.00049781       0.00110489
O        2.12791313       4.99859669       1.16330791       11       0.00578828       0.00049781      -0.00110489
O        3.33890069       2.21330858       1.16330791       12      -0.00578828       0.00049781      -0.00110489
O        4.86132003       4.99859669       2.73980851       13       0.00578828       0.00049781       0.00110489
O        4.86132003       3.35726764       5.06642432       14       0.00578828      -0.00049781      -0.00110489
O        3.33890069       0.57197953       6.64292493       15      -0.00578828      -0.00049781       0.00110489
O        5.22597401       4.17793216       0.00000000       16      -0.00785927      -0.00000000      -0.00000000
O        2.97424671       1.39264405       3.90311642       17       0.00785927      -0.00000000       0.00000000
O        0.24083981       1.39264405       0.00000000       18       0.00785927       0.00000000      -0.00000000
O        2.49256710       4.17793216       3.90311642       19      -0.00785927       0.00000000      -0.00000000
