20
Lattice="5.343578784411463 4.017097265976548e-59 8.99511071925256e-44 -3.784460281838452e-59 5.356718037405919 5.365131454645308e-18 1.701560943962622e-43 -2.2241870122334117e-18 7.407251933384121" Properties=species:S:1:pos:R:3:spacegroup_kinds:I:1:forces:R:3 spacegroup="P 1" unit_cell=conventional occupancy="_JSON {\"0\": {\"In\": 1}, \"1\": {\"In\": 1}, \"2\": {\"In\": 1}, \"3\": {\"In\": 1}, \"4\": {\"In\": 1}, \"5\": {\"In\": 1}, \"6\": {\"In\": 1}, \"7\": {\"In\": 1}, \"8\": {\"O\": 1}, \"9\": {\"O\": 1}, \"10\": {\"O\": 1}, \"11\": {\"O\": 1}, \"12\": {\"O\": 1}, \"13\": {\"O\": 1}, \"14\": {\"O\": 1}, \"15\": {\"O\": 1}, \"16\": {\"O\": 1}, \"17\": {\"O\": 1}, \"18\": {\"O\": 1}, \"19\": {\"O\": 1}}" n_minim_iter=10 energy=-22571.523047915834 stress="-0.23499281279458795 -1.3963210250302178e-13 -9.543964237483164e-13 -1.3963210250302178e-13 -0.23458473164275284 8.964935692679184e-13 -9.543964237483164e-13 8.964935692679184e-13 -0.23449419168371166" free_energy=-22571.523047915834 pbc="T T T"
In       1.32581616       2.86665795       0.90255552        0       0.00067173       0.00087434       0.00602752
In       1.34597323       0.18829893       2.80107045        1      -0.00067173       0.00087434      -0.00602752
In       1.34597323       2.49006009       4.60618149        2      -0.00067173      -0.00087434       0.00602752
In       1.32581616       5.16841911       6.50469641        3       0.00067173      -0.00087434      -0.00602752
In       4.01776262       2.49006009       6.50469641        4      -0.00067173      -0.00087434      -0.00602752
In       3.99760555       5.16841911       4.60618149        5       0.00067173      -0.00087434       0.00602753
In       3.99760555       2.86665795       2.80107045        6       0.00067173       0.00087434      -0.00602753
In       4.01776262       0.18829893       0.90255552        7      -0.00067173       0.00087434       0.00602753
O        2.09728363       3.22949977       6.34301447        8      -0.00034422       0.00097383       0.00143008
O        0.57450576       0.55114076       4.76786343        9       0.00034422       0.00097383      -0.00143008
O        0.57450576       2.12721826       2.63938850       10       0.00034422      -0.00097383       0.00143008
O        2.09728363       4.80557728       1.06423746       11      -0.00034422      -0.00097383      -0.00143008
O        3.24629516       2.12721826       1.06423746       12       0.00034422      -0.00097383      -0.00143008
O        4.76907302       4.80557728       2.63938850       13      -0.00034422      -0.00097383       0.00143008
O        4.76907302       3.22949977       4.76786343       14      -0.00034422       0.00097383      -0.00143008
O        3.24629516       0.55114076       6.34301447       15       0.00034422       0.00097383       0.00143008
O        5.08895048       4.01753853       0.00000000       16      -0.00247755      -0.00000000      -0.00000000
O        2.92641770       1.33917951       3.70362597       17       0.00247755      -0.00000000      -0.00000000
O        0.25462831       1.33917951       0.00000000       18       0.00247755      -0.00000000      -0.00000000
O        2.41716109       4.01753853       3.70362597       19      -0.00247755      -0.00000000       0.00000000
