20
Lattice="5.593732000000001 0.0 0.0 0.0 5.688408 0.0 0.0 0.0 8.082655000000003" Properties=species:S:1:pos:R:3:spacegroup_kinds:I:1:forces:R:3 spacegroup="P 1" unit_cell=conventional occupancy="_JSON {\"0\": {\"In\": 1}, \"1\": {\"In\": 1}, \"2\": {\"In\": 1}, \"3\": {\"In\": 1}, \"4\": {\"In\": 1}, \"5\": {\"In\": 1}, \"6\": {\"In\": 1}, \"7\": {\"In\": 1}, \"8\": {\"O\": 1}, \"9\": {\"O\": 1}, \"10\": {\"O\": 1}, \"11\": {\"O\": 1}, \"12\": {\"O\": 1}, \"13\": {\"O\": 1}, \"14\": {\"O\": 1}, \"15\": {\"O\": 1}, \"16\": {\"O\": 1}, \"17\": {\"O\": 1}, \"18\": {\"O\": 1}, \"19\": {\"O\": 1}}" n_minim_iter=1 energy=-22574.95656767943 stress="0.00124462945504528 -2.4356265100626717e-13 3.28561044664112e-13 -2.4356265100626717e-13 0.00016124751073609697 -8.801673581603749e-13 3.28561044664112e-13 -8.801673581603749e-13 6.475126437509293e-05" free_energy=-22574.95656767943 pbc="T T T"
In       1.38447664       3.00681852       0.92905270        0       0.02850975      -0.01190114      -0.00404806
In       1.41238936       0.16261452       3.11227480        1      -0.02850975      -0.01190114       0.00404806
In       1.41238936       2.68158948       4.97038020        2      -0.02850975       0.01190114      -0.00404806
In       1.38447664       5.52579348       7.15360230        3       0.02850975       0.01190114       0.00404806
In       4.20925536       2.68158948       7.15360230        4      -0.02850975       0.01190114       0.00404806
In       4.18134264       5.52579348       4.97038020        5       0.02850975       0.01190114      -0.00404806
In       4.18134264       3.00681852       3.11227480        6       0.02850975      -0.01190114       0.00404806
In       4.20925536       0.16261452       0.92905270        7      -0.02850975      -0.01190114      -0.00404806
O        2.18204773       3.43912046       6.86822800        8       0.00549983      -0.02022556      -0.02956072
O        0.61481827       0.59491646       5.25575450        9      -0.00549983      -0.02022556       0.02956072
O        0.61481827       2.24928754       2.82690050       10      -0.00549983       0.02022556      -0.02956072
O        2.18204773       5.09349154       1.21442700       11       0.00549983       0.02022556       0.02956072
O        3.41168427       2.24928754       1.21442700       12      -0.00549983       0.02022556       0.02956072
O        4.97891373       5.09349154       2.82690050       13       0.00549983       0.02022556      -0.02956072
O        4.97891373       3.43912046       5.25575450       14       0.00549983      -0.02022556       0.02956072
O        3.41168427       0.59491646       6.86822800       15      -0.00549983      -0.02022556      -0.02956072
O        5.35463352       4.26630600      -0.00000000       16       0.03218657      -0.00000000       0.00000000
O        3.03596448       1.42210200       4.04132750       17      -0.03218657      -0.00000000      -0.00000000
O        0.23909848       1.42210200      -0.00000000       18      -0.03218657       0.00000000       0.00000000
O        2.55776752       4.26630600       4.04132750       19       0.03218657      -0.00000000      -0.00000000
20
Lattice="5.5879959210984715 2.919708119388566e-63 1.9351806930116956e-44 -1.1101989475999303e-63 5.687651949073922 7.480326565018464e-19 2.0053552016501548e-44 1.0631714074707617e-18 8.082223593325876" Properties=species:S:1:pos:R:3:spacegroup_kinds:I:1:forces:R:3 spacegroup="P 1" unit_cell=conventional occupancy="_JSON {\"0\": {\"In\": 1}, \"1\": {\"In\": 1}, \"2\": {\"In\": 1}, \"3\": {\"In\": 1}, \"4\": {\"In\": 1}, \"5\": {\"In\": 1}, \"6\": {\"In\": 1}, \"7\": {\"In\": 1}, \"8\": {\"O\": 1}, \"9\": {\"O\": 1}, \"10\": {\"O\": 1}, \"11\": {\"O\": 1}, \"12\": {\"O\": 1}, \"13\": {\"O\": 1}, \"14\": {\"O\": 1}, \"15\": {\"O\": 1}, \"16\": {\"O\": 1}, \"17\": {\"O\": 1}, \"18\": {\"O\": 1}, \"19\": {\"O\": 1}}" n_minim_iter=2 energy=-22574.956767815176 stress="-0.0001881297713189949 -1.3339211672213758e-12 8.685171590942274e-14 -1.3339211672213758e-12 -0.00044333352480318536 -6.146108975813301e-13 8.685171590942274e-14 -6.146108975813301e-13 -0.00037895738237398016" free_energy=-22574.956767815176 pbc="T T T"
In       1.38314822       3.00638074       0.92899014        0       0.02240007      -0.00601841      -0.00555667
In       1.41084974       0.16255477       3.11212166        1      -0.02240007      -0.00601841       0.00555667
In       1.41084974       2.68127121       4.97010194        2      -0.02240007       0.00601841      -0.00555667
In       1.38314822       5.52509718       7.15323345        3       0.02240007       0.00601841       0.00555667
In       4.20484770       2.68127121       7.15323345        4      -0.02240007       0.00601841       0.00555667
In       4.17714618       5.52509718       4.97010194        5       0.02240007       0.00601841      -0.00555667
In       4.17714618       3.00638074       3.11212166        6       0.02240007      -0.00601841       0.00555667
In       4.20484770       0.16255477       0.92899014        7      -0.02240007      -0.00601841      -0.00555667
O        2.17982776       3.43859855       6.86776667        8       0.00225384      -0.01749876      -0.03036084
O        0.61417020       0.59477257       5.25556872        9      -0.00225384      -0.01749876       0.03036084
O        0.61417020       2.24905340       2.82665487       10      -0.00225384       0.01749876      -0.03036084
O        2.17982776       5.09287938       1.21445692       11       0.00225384       0.01749876       0.03036084
O        3.40816816       2.24905340       1.21445692       12      -0.00225384       0.01749876       0.03036084
O        4.97382572       5.09287938       2.82665487       13       0.00225384       0.01749876      -0.03036084
O        4.97382572       3.43859855       5.25556872       14       0.00225384      -0.01749876       0.03036084
O        3.40816816       0.59477257       6.86776667       15      -0.00225384      -0.01749876      -0.03036084
O        5.34924568       4.26573896      -0.00000000       16       0.02986271      -0.00000000       0.00000000
O        3.03274820       1.42191299       4.04111180       17      -0.02986271      -0.00000000      -0.00000000
O        0.23875024       1.42191299      -0.00000000       18      -0.02986271       0.00000000      -0.00000000
O        2.55524772       4.26573896       4.04111180       19       0.02986271      -0.00000000      -0.00000000
20
Lattice="5.586074809569605 5.793198365166937e-63 2.077966271711678e-44 -3.216061418304321e-63 5.690811486865006 1.8183101932124485e-18 1.0066825253667205e-44 2.583820771607518e-18 8.086352392147303" Properties=species:S:1:pos:R:3:spacegroup_kinds:I:1:forces:R:3 spacegroup="P 1" unit_cell=conventional occupancy="_JSON {\"0\": {\"In\": 1}, \"1\": {\"In\": 1}, \"2\": {\"In\": 1}, \"3\": {\"In\": 1}, \"4\": {\"In\": 1}, \"5\": {\"In\": 1}, \"6\": {\"In\": 1}, \"7\": {\"In\": 1}, \"8\": {\"O\": 1}, \"9\": {\"O\": 1}, \"10\": {\"O\": 1}, \"11\": {\"O\": 1}, \"12\": {\"O\": 1}, \"13\": {\"O\": 1}, \"14\": {\"O\": 1}, \"15\": {\"O\": 1}, \"16\": {\"O\": 1}, \"17\": {\"O\": 1}, \"18\": {\"O\": 1}, \"19\": {\"O\": 1}}" n_minim_iter=3 energy=-22574.956884991636 stress="-0.0002895195123724344 8.74534470733563e-13 -5.6156344663099027e-14 8.74534470733563e-13 0.00034159623764810546 -1.0241653540747242e-12 -5.6156344663099027e-14 -1.0241653540747242e-12 0.00037140049389845336" free_energy=-22574.956884991636 pbc="T T T"
In       1.38285181       3.00799444       0.92942597        0       0.01519955      -0.00548226      -0.00679690
In       1.41018560       0.16258870       3.11375023        1      -0.01519955      -0.00548226       0.00679690
In       1.41018560       2.68281704       4.97260216        2      -0.01519955       0.00548226      -0.00679690
In       1.38285181       5.52822279       7.15692643        3       0.01519955       0.00548226       0.00679690
In       4.20322300       2.68281704       7.15692643        4      -0.01519955       0.00548226       0.00679690
In       4.17588921       5.52822279       4.97260216        5       0.01519955       0.00548226      -0.00679690
In       4.17588921       3.00799444       3.11375023        6       0.01519955      -0.00548226       0.00679690
In       4.20322300       0.16258870       0.92942597        7      -0.01519955      -0.00548226      -0.00679690
O        2.17910141       3.44037238       6.87104910        8      -0.00018847      -0.01562494      -0.03103021
O        0.61393599       0.59496664       5.25847949        9       0.00018847      -0.01562494       0.03103021
O        0.61393599       2.25043910       2.82787290       10       0.00018847       0.01562494      -0.03103021
O        2.17910141       5.09584485       1.21530329       11      -0.00018847       0.01562494       0.03103021
O        3.40697340       2.25043910       1.21530329       12       0.00018847       0.01562494       0.03103021
O        4.97213882       5.09584485       2.82787290       13      -0.00018847       0.01562494      -0.03103021
O        4.97213882       3.44037238       5.25847949       14      -0.00018847      -0.01562494       0.03103021
O        3.40697340       0.59496664       6.87104910       15       0.00018847      -0.01562494      -0.03103021
O        5.34763429       4.26810862      -0.00000000       16       0.02598199       0.00000000       0.00000000
O        3.03147792       1.42270287       4.04317620       17      -0.02598199      -0.00000000      -0.00000000
O        0.23844052       1.42270287      -0.00000000       18      -0.02598199      -0.00000000      -0.00000000
O        2.55459689       4.26810862       4.04317620       19       0.02598199      -0.00000000       0.00000000
20
Lattice="5.590857799324783 7.368237513899279e-63 1.3254937486867982e-45 -5.196037594589681e-64 5.690496617840892 2.7441467046465e-18 2.2070510835297937e-44 3.901193133139261e-18 8.080108801541137" Properties=species:S:1:pos:R:3:spacegroup_kinds:I:1:forces:R:3 spacegroup="P 1" unit_cell=conventional occupancy="_JSON {\"0\": {\"In\": 1}, \"1\": {\"In\": 1}, \"2\": {\"In\": 1}, \"3\": {\"In\": 1}, \"4\": {\"In\": 1}, \"5\": {\"In\": 1}, \"6\": {\"In\": 1}, \"7\": {\"In\": 1}, \"8\": {\"O\": 1}, \"9\": {\"O\": 1}, \"10\": {\"O\": 1}, \"11\": {\"O\": 1}, \"12\": {\"O\": 1}, \"13\": {\"O\": 1}, \"14\": {\"O\": 1}, \"15\": {\"O\": 1}, \"16\": {\"O\": 1}, \"17\": {\"O\": 1}, \"18\": {\"O\": 1}, \"19\": {\"O\": 1}}" n_minim_iter=4 energy=-22574.957808607527 stress="4.3397481129885944e-05 -5.746008410472631e-13 -7.053488437852313e-13 -5.746008410472631e-13 0.0006665000163877403 4.45511479171078e-14 -7.053488437852313e-13 4.45511479171078e-14 -0.0006348981768623849" free_energy=-22574.957808607527 pbc="T T T"
In       1.38620489       3.00710886       0.92806573        0       0.00411994       0.00123625      -0.02724888
In       1.40922401       0.16186055       3.11198868        1      -0.00411994       0.00123625       0.02724888
In       1.40922401       2.68338776       4.96812013        2      -0.00411994      -0.00123625      -0.02724888
In       1.38620489       5.52863607       7.15204308        3       0.00411994      -0.00123625       0.02724888
In       4.20465291       2.68338776       7.15204308        4      -0.00411994      -0.00123625       0.02724888
In       4.18163379       5.52863607       4.96812013        5       0.00411994      -0.00123625      -0.02724888
In       4.18163379       3.00710886       3.11198868        6       0.00411994       0.00123625       0.02724888
In       4.20465291       0.16186055       0.92806573        7      -0.00411994       0.00123625      -0.02724888
O        2.18114083       3.43832919       6.86242158        8      -0.00186144      -0.00276643       0.00776852
O        0.61428807       0.59308089       5.25774163        9       0.00186144      -0.00276643      -0.00776852
O        0.61428807       2.25216742       2.82236718       10       0.00186144       0.00276643       0.00776852
O        2.18114083       5.09741573       1.21768723       11      -0.00186144       0.00276643      -0.00776852
O        3.40971697       2.25216742       1.21768723       12       0.00186144       0.00276643      -0.00776852
O        4.97656973       5.09741573       2.82236718       13      -0.00186144       0.00276643       0.00776852
O        4.97656973       3.43832919       5.25774163       14      -0.00186144      -0.00276643      -0.00776852
O        3.40971697       0.59308089       6.86242158       15       0.00186144      -0.00276643       0.00776852
O        5.35529884       4.26787246      -0.00000000       16       0.00693097       0.00000000      -0.00000000
O        3.03098786       1.42262415       4.04005440       17      -0.00693097       0.00000000      -0.00000000
O        0.23555896       1.42262415      -0.00000000       18      -0.00693097       0.00000000       0.00000000
O        2.55986994       4.26787246       4.04005440       19       0.00693097       0.00000000       0.00000000
20
Lattice="5.59208158529813 -1.7332022572981657e-63 -3.1782638551335057e-44 8.827040400765013e-63 5.685199498085444 5.2234237273708245e-18 6.241862002697314e-45 7.426455054026626e-18 8.086751923581007" Properties=species:S:1:pos:R:3:spacegroup_kinds:I:1:forces:R:3 spacegroup="P 1" unit_cell=conventional occupancy="_JSON {\"0\": {\"In\": 1}, \"1\": {\"In\": 1}, \"2\": {\"In\": 1}, \"3\": {\"In\": 1}, \"4\": {\"In\": 1}, \"5\": {\"In\": 1}, \"6\": {\"In\": 1}, \"7\": {\"In\": 1}, \"8\": {\"O\": 1}, \"9\": {\"O\": 1}, \"10\": {\"O\": 1}, \"11\": {\"O\": 1}, \"12\": {\"O\": 1}, \"13\": {\"O\": 1}, \"14\": {\"O\": 1}, \"15\": {\"O\": 1}, \"16\": {\"O\": 1}, \"17\": {\"O\": 1}, \"18\": {\"O\": 1}, \"19\": {\"O\": 1}}" n_minim_iter=5 energy=-22574.95798536208 stress="9.189027582645615e-05 -1.8101009048691e-13 1.7920309451373396e-13 -1.8101009048691e-13 -2.750648149994686e-05 -1.7736288837896327e-14 1.7920309451373396e-13 -1.7736288837896327e-14 8.438155492879645e-05" free_energy=-22574.95798536208 pbc="T T T"
In       1.38694499       3.00418108       0.92855013        0      -0.00131656      -0.00552726      -0.02080862
In       1.40909580       0.16158134       3.11482583        1       0.00131656      -0.00552726       0.02080862
In       1.40909580       2.68101841       4.97192609        2       0.00131656       0.00552726      -0.02080862
In       1.38694499       5.52361816       7.15820180        3      -0.00131656       0.00552726       0.02080862
In       4.20513659       2.68101841       7.15820180        4       0.00131656       0.00552726       0.02080862
In       4.18298579       5.52361816       4.97192609        5      -0.00131656       0.00552726      -0.02080862
In       4.18298579       3.00418108       3.11482583        6      -0.00131656      -0.00552726       0.02080862
In       4.20513659       0.16158134       0.92855013        7       0.00131656      -0.00552726      -0.02080862
O        2.18163989       3.43475949       6.86747138        8      -0.00518539      -0.00297378       0.00830838
O        0.61440090       0.59215974       5.26265651        9       0.00518539      -0.00297378      -0.00830838
O        0.61440090       2.25044001       2.82409541       10       0.00518539       0.00297378       0.00830838
O        2.18163989       5.09303976       1.21928055       11      -0.00518539       0.00297378      -0.00830838
O        3.41044169       2.25044001       1.21928055       12       0.00518539       0.00297378      -0.00830838
O        4.97768068       5.09303976       2.82409541       13      -0.00518539       0.00297378       0.00830838
O        4.97768068       3.43475949       5.26265651       14      -0.00518539      -0.00297378      -0.00830838
O        3.41044169       0.59215974       6.86747138       15       0.00518539      -0.00297378       0.00830838
O        5.35710030       4.26389962      -0.00000000       16       0.00542166      -0.00000000      -0.00000000
O        3.03102207       1.42129987       4.04337596       17      -0.00542166      -0.00000000      -0.00000000
O        0.23498128       1.42129987      -0.00000000       18      -0.00542166       0.00000000       0.00000000
O        2.56105951       4.26389962       4.04337596       19       0.00542166      -0.00000000       0.00000000
20
Lattice="5.590835500162608 1.369492762568161e-63 -3.177567888168027e-44 8.726638574167414e-62 5.685908811737227 4.66695851162209e-18 1.3450048271080308e-43 6.638692174758379e-18 8.084581933537626" Properties=species:S:1:pos:R:3:spacegroup_kinds:I:1:forces:R:3 spacegroup="P 1" unit_cell=conventional occupancy="_JSON {\"0\": {\"In\": 1}, \"1\": {\"In\": 1}, \"2\": {\"In\": 1}, \"3\": {\"In\": 1}, \"4\": {\"In\": 1}, \"5\": {\"In\": 1}, \"6\": {\"In\": 1}, \"7\": {\"In\": 1}, \"8\": {\"O\": 1}, \"9\": {\"O\": 1}, \"10\": {\"O\": 1}, \"11\": {\"O\": 1}, \"12\": {\"O\": 1}, \"13\": {\"O\": 1}, \"14\": {\"O\": 1}, \"15\": {\"O\": 1}, \"16\": {\"O\": 1}, \"17\": {\"O\": 1}, \"18\": {\"O\": 1}, \"19\": {\"O\": 1}}" n_minim_iter=6 energy=-22574.95822318399 stress="-0.00035063509109214074 -1.3006896020182613e-15 -3.740030848193665e-13 -1.3006896020182613e-15 -0.00015297022600238442 1.027063545772124e-12 -3.740030848193665e-13 1.027063545772124e-12 -6.983968780954896e-05" free_energy=-22574.95822318399 pbc="T T T"
In       1.38698178       3.00404580       0.92651898        0      -0.00083857      -0.00296404      -0.00661982
In       1.40843597       0.16109139       3.11577199        1       0.00083857      -0.00296404       0.00661982
In       1.40843597       2.68186301       4.96880994        2       0.00083857       0.00296404      -0.00661982
In       1.38698178       5.52481742       7.15806296        3      -0.00083857       0.00296404       0.00661982
In       4.20385372       2.68186301       7.15806296        4       0.00083857       0.00296404       0.00661982
In       4.18239953       5.52481742       4.96880994        5      -0.00083857       0.00296404      -0.00661982
In       4.18239953       3.00404580       3.11577199        6      -0.00083857      -0.00296404       0.00661982
In       4.20385372       0.16109139       0.92651898        7       0.00083857      -0.00296404      -0.00661982
O        2.18079632       3.43459676       6.86559673        8      -0.00605521      -0.00012085       0.00220337
O        0.61462143       0.59164235       5.26127617        9       0.00605521      -0.00012085      -0.00220337
O        0.61462143       2.25131205       2.82330576       10       0.00605521       0.00012085       0.00220337
O        2.18079632       5.09426646       1.21898521       11      -0.00605521       0.00012085      -0.00220337
O        3.41003918       2.25131205       1.21898521       12       0.00605521       0.00012085      -0.00220337
O        4.97621407       5.09426646       2.82330576       13      -0.00605521       0.00012085       0.00220337
O        4.97621407       3.43459676       5.26127617       14      -0.00605521      -0.00012085      -0.00220337
O        3.41003918       0.59164235       6.86559673       15       0.00605521      -0.00012085       0.00220337
O        5.35694727       4.26443161      -0.00000000       16      -0.00069466       0.00000000      -0.00000000
O        3.02930598       1.42147720       4.04229097       17       0.00069466      -0.00000000       0.00000000
O        0.23388823       1.42147720      -0.00000000       18       0.00069466      -0.00000000      -0.00000000
O        2.56152952       4.26443161       4.04229097       19      -0.00069466      -0.00000000      -0.00000000
