20
Lattice="5.227550696519515 4.200266282252226e-59 -3.5809361158247017e-43 -3.57967437930161e-59 5.273584846337174 1.0752271366338498e-17 1.0271846541784375e-43 1.1005592145059891e-17 7.224897378114801" Properties=species:S:1:pos:R:3:spacegroup_kinds:I:1:forces:R:3 spacegroup="P 1" unit_cell=conventional occupancy="_JSON {\"0\": {\"In\": 1}, \"1\": {\"In\": 1}, \"2\": {\"In\": 1}, \"3\": {\"In\": 1}, \"4\": {\"In\": 1}, \"5\": {\"In\": 1}, \"6\": {\"In\": 1}, \"7\": {\"In\": 1}, \"8\": {\"O\": 1}, \"9\": {\"O\": 1}, \"10\": {\"O\": 1}, \"11\": {\"O\": 1}, \"12\": {\"O\": 1}, \"13\": {\"O\": 1}, \"14\": {\"O\": 1}, \"15\": {\"O\": 1}, \"16\": {\"O\": 1}, \"17\": {\"O\": 1}, \"18\": {\"O\": 1}, \"19\": {\"O\": 1}}" n_minim_iter=12 energy=-22569.727867174453 stress="-0.3256978419600838 8.223584859801094e-13 -3.9468934062510116e-13 8.223584859801094e-13 -0.32568359440916717 -3.6785768777167985e-13 -3.9468934062510116e-13 -3.6785768777167985e-13 -0.32569920918695444" free_energy=-22569.727867174453 pbc="T T T"
In       1.28561983       2.84655449       0.87589702        0       0.00209899       0.00306296       0.00166449
In       1.32815552       0.20976206       2.73655166        1      -0.00209899       0.00306296      -0.00166449
In       1.32815552       2.42703036       4.48834571        2      -0.00209899      -0.00306296       0.00166449
In       1.28561983       5.06382278       6.34900035        3       0.00209899      -0.00306296      -0.00166449
In       3.94193087       2.42703036       6.34900035        4      -0.00209899      -0.00306296      -0.00166449
In       3.89939518       5.06382278       4.48834571        5       0.00209899      -0.00306296       0.00166449
In       3.89939518       2.84655449       2.73655166        6       0.00209899       0.00306296      -0.00166449
In       3.94193087       0.20976206       0.87589702        7      -0.00209899       0.00306296       0.00166449
O        2.07758633       3.18930632       6.17822161        8      -0.00353137      -0.00218868      -0.00002784
O        0.53618902       0.55251390       4.65912446        9       0.00353137      -0.00218868       0.00002784
O        0.53618902       2.08427853       2.56577292       10       0.00353137       0.00218868      -0.00002784
O        2.07758633       4.72107095       1.04667577       11      -0.00353137       0.00218868       0.00002784
O        3.14996436       2.08427853       1.04667577       12       0.00353137       0.00218868       0.00002784
O        4.69136168       4.72107095       2.56577292       13      -0.00353137       0.00218868      -0.00002784
O        4.69136168       3.18930632       4.65912446       14      -0.00353137      -0.00218868       0.00002784
O        3.14996436       0.55251390       6.17822161       15       0.00353137      -0.00218868      -0.00002784
O        4.95410915       3.95518863       0.00000000       16      -0.00476294       0.00000000      -0.00000000
O        2.88721690       1.31839621       3.61244869       17       0.00476294       0.00000000      -0.00000000
O        0.27344155       1.31839621       0.00000000       18       0.00476294       0.00000000      -0.00000000
O        2.34033380       3.95518863       3.61244869       19      -0.00476294      -0.00000000      -0.00000000
