20
Lattice="5.4192512217612805 -1.0456624847242345e-59 6.109713074810376e-44 4.752815081962703e-59 5.443894265185972 -5.341805108954851e-17 -6.307837328647858e-44 -7.315989227652342e-17 7.62242673390888" Properties=species:S:1:pos:R:3:spacegroup_kinds:I:1:forces:R:3 spacegroup="P 1" unit_cell=conventional occupancy="_JSON {\"0\": {\"In\": 1}, \"1\": {\"In\": 1}, \"2\": {\"In\": 1}, \"3\": {\"In\": 1}, \"4\": {\"In\": 1}, \"5\": {\"In\": 1}, \"6\": {\"In\": 1}, \"7\": {\"In\": 1}, \"8\": {\"O\": 1}, \"9\": {\"O\": 1}, \"10\": {\"O\": 1}, \"11\": {\"O\": 1}, \"12\": {\"O\": 1}, \"13\": {\"O\": 1}, \"14\": {\"O\": 1}, \"15\": {\"O\": 1}, \"16\": {\"O\": 1}, \"17\": {\"O\": 1}, \"18\": {\"O\": 1}, \"19\": {\"O\": 1}}" n_minim_iter=12 energy=-22573.591349469247 stress="-0.10362600748229636 -7.208117950665901e-13 4.115959341639304e-13 -7.208117950665901e-13 -0.10349446407028647 6.559924828872011e-13 4.115959341639304e-13 6.559924828872011e-13 -0.10330953669726253" free_energy=-22573.591349469247 pbc="T T T"
In       1.34457319       2.90356935       0.92327711        0      -0.00234181      -0.00305442       0.00337802
In       1.36505242       0.18162222       2.88793626        1       0.00234181      -0.00305442      -0.00337802
In       1.36505242       2.54032492       4.73449048        2       0.00234181       0.00305442       0.00337802
In       1.34457319       5.26227205       6.69914962        3      -0.00234181       0.00305442      -0.00337802
In       4.07467803       2.54032492       6.69914962        4       0.00234181       0.00305442      -0.00337802
In       4.05419880       5.26227205       4.73449048        5      -0.00234181       0.00305442       0.00337802
In       4.05419880       2.90356935       2.88793626        6      -0.00234181      -0.00305442      -0.00337802
In       4.07467803       0.18162222       0.92327711        7       0.00234181      -0.00305442       0.00337802
O        2.11404958       3.27433543       6.52098646        8      -0.00205397      -0.00053125      -0.00037242
O        0.59557603       0.55238830       4.91265364        9       0.00205397      -0.00053125       0.00037242
O        0.59557603       2.16955883       2.70977310       10       0.00205397       0.00053125      -0.00037242
O        2.11404958       4.89150596       1.10144027       11      -0.00205397       0.00053125       0.00037242
O        3.30520164       2.16955883       1.10144027       12       0.00205397       0.00053125       0.00037242
O        4.82367519       4.89150596       2.70977310       13      -0.00205397       0.00053125      -0.00037242
O        4.82367519       3.27433543       4.91265364       14      -0.00205397      -0.00053125       0.00037242
O        3.30520164       0.55238830       6.52098646       15       0.00205397      -0.00053125      -0.00037242
O        5.17716179       4.08292070       0.00000000       16      -0.00682398       0.00000000      -0.00000000
O        2.95171504       1.36097357       3.81121337       17       0.00682398       0.00000000       0.00000000
O        0.24208943       1.36097357       0.00000000       18       0.00682398      -0.00000000      -0.00000000
O        2.46753618       4.08292070       3.81121337       19      -0.00682398       0.00000000       0.00000000
