20
Lattice="5.855154960542745 -2.2443171492267037e-60 -5.3545263135007525e-43 -6.911007935256954e-61 5.888063905847442 2.7692456365546948e-17 1.5296818915677282e-44 5.061208109251833e-17 8.572768640070517" Properties=species:S:1:pos:R:3:spacegroup_kinds:I:1:forces:R:3 spacegroup="P 1" unit_cell=conventional occupancy="_JSON {\"0\": {\"In\": 1}, \"1\": {\"In\": 1}, \"2\": {\"In\": 1}, \"3\": {\"In\": 1}, \"4\": {\"In\": 1}, \"5\": {\"In\": 1}, \"6\": {\"In\": 1}, \"7\": {\"In\": 1}, \"8\": {\"O\": 1}, \"9\": {\"O\": 1}, \"10\": {\"O\": 1}, \"11\": {\"O\": 1}, \"12\": {\"O\": 1}, \"13\": {\"O\": 1}, \"14\": {\"O\": 1}, \"15\": {\"O\": 1}, \"16\": {\"O\": 1}, \"17\": {\"O\": 1}, \"18\": {\"O\": 1}, \"19\": {\"O\": 1}}" n_minim_iter=8 energy=-22573.83107985688 stress="0.06511227133408476 4.927485034392526e-13 -6.116745979752904e-13 4.927485034392526e-13 0.0650891226449925 -1.3082264403120334e-13 -6.116745979752904e-13 -1.3082264403120334e-13 0.06510214646701261" free_energy=-22573.83107985688 pbc="T T T"
In       1.44642790       3.09108408       1.00358831        0      -0.00394384       0.00196260       0.00002431
In       1.48114958       0.14705213       3.28279601        1       0.00394384       0.00196260      -0.00002431
In       1.48114958       2.79697983       5.28997263        2       0.00394384      -0.00196260       0.00002431
In       1.44642790       5.74101178       7.56918033        3      -0.00394384      -0.00196260      -0.00002431
In       4.40872706       2.79697983       7.56918033        4       0.00394384      -0.00196260      -0.00002431
In       4.37400538       5.74101178       5.28997263        5      -0.00394384      -0.00196260       0.00002431
In       4.37400538       3.09108408       3.28279601        6      -0.00394384       0.00196260      -0.00002431
In       4.40872706       0.14705213       1.00358831        7       0.00394384       0.00196260       0.00002431
O        2.29409011       3.53693118       7.25517173        8       0.00458876       0.00058672       0.00504307
O        0.63348737       0.59289923       5.60398123        9      -0.00458876       0.00058672      -0.00504307
O        0.63348737       2.35113272       2.96878741       10      -0.00458876      -0.00058672       0.00504307
O        2.29409011       5.29516468       1.31759691       11       0.00458876      -0.00058672      -0.00504307
O        3.56106485       2.35113272       1.31759691       12      -0.00458876      -0.00058672      -0.00504307
O        5.22166759       5.29516468       2.96878741       13       0.00458876      -0.00058672       0.00504307
O        5.22166759       3.53693118       5.60398123       14       0.00458876       0.00058672      -0.00504307
O        3.56106485       0.59289923       7.25517173       15      -0.00458876       0.00058672       0.00504307
O        5.59058813       4.41604793      -0.00000000       16       0.00628947      -0.00000000      -0.00000000
O        3.19214432       1.47201598       4.28638432       17      -0.00628947      -0.00000000      -0.00000000
O        0.26456684       1.47201598      -0.00000000       18      -0.00628947       0.00000000      -0.00000000
O        2.66301065       4.41604793       4.28638432       19       0.00628947       0.00000000      -0.00000000
