20
Lattice="5.637042847670377 -4.931998314231509e-62 -9.378159443569164e-44 -2.8160071425468514e-62 5.732901924726114 -4.707599163347556e-18 1.35612107358747e-43 6.693559887519243e-18 8.151399690355392" Properties=species:S:1:pos:R:3:spacegroup_kinds:I:1:forces:R:3 spacegroup="P 1" unit_cell=conventional occupancy="_JSON {\"0\": {\"In\": 1}, \"1\": {\"In\": 1}, \"2\": {\"In\": 1}, \"3\": {\"In\": 1}, \"4\": {\"In\": 1}, \"5\": {\"In\": 1}, \"6\": {\"In\": 1}, \"7\": {\"In\": 1}, \"8\": {\"O\": 1}, \"9\": {\"O\": 1}, \"10\": {\"O\": 1}, \"11\": {\"O\": 1}, \"12\": {\"O\": 1}, \"13\": {\"O\": 1}, \"14\": {\"O\": 1}, \"15\": {\"O\": 1}, \"16\": {\"O\": 1}, \"17\": {\"O\": 1}, \"18\": {\"O\": 1}, \"19\": {\"O\": 1}}" n_minim_iter=1 energy=-22574.906285559446 stress="0.015520163659333694 4.3015798150949e-13 -5.43211820198621e-13 4.3015798150949e-13 0.016756006422305656 2.0825908779879215e-13 -5.43211820198621e-13 2.0825908779879215e-13 0.016211636538478676" free_energy=-22574.906285559446 pbc="T T T"
In       1.39844496       3.02887375       0.93417650        0      -0.01048125      -0.07306234       0.01843630
In       1.42007646       0.16242279       3.14152334        1       0.01048125      -0.07306234      -0.01843630
In       1.42007646       2.70402817       5.00987635        2       0.01048125       0.07306234       0.01843630
In       1.39844496       5.57047914       7.21722319        3      -0.01048125       0.07306234      -0.01843630
In       4.23859789       2.70402817       7.21722319        4       0.01048125       0.07306234      -0.01843630
In       4.21696639       5.57047914       5.00987635        5      -0.01048125       0.07306234       0.01843630
In       4.21696639       3.02887375       3.14152334        6      -0.01048125      -0.07306234      -0.01843630
In       4.23859789       0.16242279       0.93417650        7       0.01048125      -0.07306234       0.01843630
O        2.19882025       3.46298314       6.92233977        8       0.00785751      -0.02529895      -0.01641054
O        0.61970118       0.59653218       5.30475977        9      -0.00785751      -0.02529895       0.01641054
O        0.61970118       2.26991878       2.84663992       10      -0.00785751       0.02529895      -0.01641054
O        2.19882025       5.13636974       1.22905992       11       0.00785751       0.02529895       0.01641054
O        3.43822260       2.26991878       1.22905992       12      -0.00785751       0.02529895       0.01641054
O        5.01734167       5.13636974       2.84663992       13       0.00785751       0.02529895      -0.01641054
O        5.01734167       3.46298314       5.30475977       14       0.00785751      -0.02529895       0.01641054
O        3.43822260       0.59653218       6.92233977       15      -0.00785751      -0.02529895      -0.01641054
O        5.40122157       4.29967644       0.00000000       16      -0.01860940      -0.00000000       0.00000000
O        3.05434270       1.43322548       4.07569985       17       0.01860940      -0.00000000      -0.00000000
O        0.23582128       1.43322548       0.00000000       18       0.01860940      -0.00000000       0.00000000
O        2.58270014       4.29967644       4.07569985       19      -0.01860940      -0.00000000      -0.00000000
20
Lattice="5.650687674039293 -4.907678756051874e-62 -1.1603214316238071e-43 -3.08373311210421e-64 5.720113992906887 -4.706730563665729e-18 8.783051861961552e-44 6.6786290918082035e-18 8.14989567462852" Properties=species:S:1:pos:R:3:spacegroup_kinds:I:1:forces:R:3 spacegroup="P 1" unit_cell=conventional occupancy="_JSON {\"0\": {\"In\": 1}, \"1\": {\"In\": 1}, \"2\": {\"In\": 1}, \"3\": {\"In\": 1}, \"4\": {\"In\": 1}, \"5\": {\"In\": 1}, \"6\": {\"In\": 1}, \"7\": {\"In\": 1}, \"8\": {\"O\": 1}, \"9\": {\"O\": 1}, \"10\": {\"O\": 1}, \"11\": {\"O\": 1}, \"12\": {\"O\": 1}, \"13\": {\"O\": 1}, \"14\": {\"O\": 1}, \"15\": {\"O\": 1}, \"16\": {\"O\": 1}, \"17\": {\"O\": 1}, \"18\": {\"O\": 1}, \"19\": {\"O\": 1}}" n_minim_iter=2 energy=-22574.906714845394 stress="0.01725678938717635 1.502974298279896e-13 6.610273517055648e-14 1.502974298279896e-13 0.014933608031639857 1.7760069591379689e-13 6.610273517055648e-14 1.7760069591379689e-13 0.015531129050087543" free_energy=-22574.906714845394 pbc="T T T"
In       1.40167989       3.02107606       0.93426747        0       0.00837866      -0.07386330       0.02135392
In       1.42366394       0.16101906       3.14068037        1      -0.00837866      -0.07386330      -0.02135392
In       1.42366394       2.69903793       5.00921530        2      -0.00837866       0.07386330       0.02135392
In       1.40167989       5.55909493       7.21562821        3       0.00837866       0.07386330      -0.02135392
In       4.24900778       2.69903793       7.21562821        4      -0.00837866       0.07386330      -0.02135392
In       4.22702373       5.55909493       5.00921530        5       0.00837866       0.07386330       0.02135392
In       4.22702373       3.02107606       3.14068037        6       0.00837866      -0.07386330      -0.02135392
In       4.24900778       0.16101906       0.93426747        7      -0.00837866      -0.07386330       0.02135392
O        2.20425515       3.45489793       6.92082813        8       0.01066890      -0.02615336      -0.00570108
O        0.62108868       0.59484094       5.30401538        9      -0.01066890      -0.02615336       0.00570108
O        0.62108868       2.26521606       2.84588030       10      -0.01066890       0.02615337      -0.00570108
O        2.20425515       5.12527306       1.22906754       11       0.01066890       0.02615336       0.00570108
O        3.44643252       2.26521606       1.22906754       12      -0.01066890       0.02615337       0.00570108
O        5.02959899       5.12527306       2.84588030       13       0.01066890       0.02615336      -0.00570108
O        5.02959899       3.45489793       5.30401538       14       0.01066890      -0.02615336       0.00570108
O        3.44643252       0.59484094       6.92082813       15      -0.01066890      -0.02615336      -0.00570108
O        5.41402908       4.29008549       0.00000000       16      -0.00456301      -0.00000000      -0.00000000
O        3.06200243       1.43002850       4.07494784       17       0.00456301      -0.00000000      -0.00000000
O        0.23665859       1.43002850       0.00000000       18       0.00456301       0.00000000      -0.00000000
O        2.58868524       4.29008549       4.07494784       19      -0.00456301       0.00000000       0.00000000
20
Lattice="5.638527235484353 7.21342237603229e-63 -1.131309369152775e-43 1.405857122792279e-62 5.722979091805025 -7.559714871963076e-18 7.222306210619332e-44 2.641157592770315e-18 8.163383417192843" Properties=species:S:1:pos:R:3:spacegroup_kinds:I:1:forces:R:3 spacegroup="P 1" unit_cell=conventional occupancy="_JSON {\"0\": {\"In\": 1}, \"1\": {\"In\": 1}, \"2\": {\"In\": 1}, \"3\": {\"In\": 1}, \"4\": {\"In\": 1}, \"5\": {\"In\": 1}, \"6\": {\"In\": 1}, \"7\": {\"In\": 1}, \"8\": {\"O\": 1}, \"9\": {\"O\": 1}, \"10\": {\"O\": 1}, \"11\": {\"O\": 1}, \"12\": {\"O\": 1}, \"13\": {\"O\": 1}, \"14\": {\"O\": 1}, \"15\": {\"O\": 1}, \"16\": {\"O\": 1}, \"17\": {\"O\": 1}, \"18\": {\"O\": 1}, \"19\": {\"O\": 1}}" n_minim_iter=3 energy=-22574.90861171345 stress="0.014758837800830668 1.0724657025529145e-13 1.8727032614923453e-13 1.0724657025529145e-13 0.015580607824043273 -8.641726741314889e-13 1.8727032614923453e-13 -8.641726741314889e-13 0.016302907569035748" free_energy=-22574.90861171345 pbc="T T T"
In       1.39851484       3.01882214       0.93682436        0      -0.00525317      -0.02561959       0.00756499
In       1.42074878       0.15733259       3.14486735        1       0.00525317      -0.02561959      -0.00756499
In       1.42074878       2.70415696       5.01851607        2       0.00525317       0.02561959       0.00756499
In       1.39851484       5.56564650       7.22655906        3      -0.00525317       0.02561959      -0.00756499
In       4.24001240       2.70415696       7.22655906        4       0.00525317       0.02561959      -0.00756499
In       4.21777845       5.56564650       5.01851607        5      -0.00525317       0.02561959       0.00756499
In       4.21777845       3.01882214       3.14486735        6      -0.00525317      -0.02561959      -0.00756499
In       4.24001240       0.15733259       0.93682436        7       0.00525317      -0.02561959       0.00756499
O        2.19997482       3.45531210       6.93165802        8      -0.00689942      -0.00154565      -0.00202673
O        0.61928880       0.59382256       5.31341711        9       0.00689942      -0.00154565       0.00202673
O        0.61928880       2.26766699       2.84996631       10       0.00689942       0.00154565      -0.00202673
O        2.19997482       5.12915654       1.23172540       11      -0.00689942       0.00154565       0.00202673
O        3.43855241       2.26766699       1.23172540       12       0.00689942       0.00154565       0.00202673
O        5.01923844       5.12915654       2.84996631       13      -0.00689942       0.00154565      -0.00202673
O        5.01923844       3.45531210       5.31341711       14      -0.00689942      -0.00154565       0.00202673
O        3.43855241       0.59382256       6.93165802       15       0.00689942      -0.00154565      -0.00202673
O        5.40171054       4.29223432       0.00000000       16       0.02228753       0.00000000       0.00000000
O        3.05608031       1.43074477       4.08169171       17      -0.02228753       0.00000000       0.00000000
O        0.23681670       1.43074477       0.00000000       18      -0.02228753       0.00000000      -0.00000000
O        2.58244692       4.29223432       4.08169171       19       0.02228753       0.00000000       0.00000000
20
Lattice="5.641222012900358 4.614170041410937e-62 -1.2961434249607675e-43 6.795012695451373e-63 5.725460935356885 -9.205059805730009e-18 8.010724084560485e-44 2.9305647859104116e-19 8.155946887272451" Properties=species:S:1:pos:R:3:spacegroup_kinds:I:1:forces:R:3 spacegroup="P 1" unit_cell=conventional occupancy="_JSON {\"0\": {\"In\": 1}, \"1\": {\"In\": 1}, \"2\": {\"In\": 1}, \"3\": {\"In\": 1}, \"4\": {\"In\": 1}, \"5\": {\"In\": 1}, \"6\": {\"In\": 1}, \"7\": {\"In\": 1}, \"8\": {\"O\": 1}, \"9\": {\"O\": 1}, \"10\": {\"O\": 1}, \"11\": {\"O\": 1}, \"12\": {\"O\": 1}, \"13\": {\"O\": 1}, \"14\": {\"O\": 1}, \"15\": {\"O\": 1}, \"16\": {\"O\": 1}, \"17\": {\"O\": 1}, \"18\": {\"O\": 1}, \"19\": {\"O\": 1}}" n_minim_iter=4 energy=-22574.908853541074 stress="0.015083900584180337 4.680143925184805e-13 -6.527203885070131e-14 4.680143925184805e-13 0.016003247950283565 3.563924263523249e-13 -6.527203885070131e-14 3.563924263523249e-13 0.015227243266016197" free_energy=-22574.908853541074 pbc="T T T"
In       1.39913749       3.01923551       0.93621854        0       0.00144427      -0.01238274      -0.00257774
In       1.42147352       0.15650504       3.14175490        1      -0.00144427      -0.01238274       0.00257774
In       1.42147352       2.70622543       5.01419199        2      -0.00144427       0.01238274      -0.00257774
In       1.39913749       5.56895589       7.21972835        3       0.00144427       0.01238274       0.00257774
In       4.24208452       2.70622543       7.21972835        4      -0.00144427       0.01238274       0.00257774
In       4.21974850       5.56895589       5.01419199        5       0.00144427       0.01238274      -0.00257774
In       4.21974850       3.01923551       3.14175490        6       0.00144427      -0.01238274       0.00257774
In       4.24208452       0.15650504       0.93621854        7      -0.00144427      -0.01238274      -0.00257774
O        2.20107159       3.45654657       6.92522052        8      -0.00417446       0.00322610       0.00768812
O        0.61953942       0.59381610       5.30869981        9       0.00417446       0.00322610      -0.00768812
O        0.61953942       2.26891437       2.84724707       10       0.00417446      -0.00322610       0.00768812
O        2.20107159       5.13164483       1.23072637       11      -0.00417446      -0.00322610      -0.00768812
O        3.44015043       2.26891437       1.23072637       12       0.00417446      -0.00322610      -0.00768812
O        5.02168259       5.13164483       2.84724707       13      -0.00417446      -0.00322610       0.00768812
O        5.02168259       3.45654657       5.30869981       14      -0.00417446       0.00322610      -0.00768812
O        3.44015043       0.59381610       6.92522052       15       0.00417446       0.00322610       0.00768812
O        5.40432721       4.29409570       0.00000000       16       0.02544702       0.00000000       0.00000000
O        3.05750581       1.43136523       4.07797344       17      -0.02544702       0.00000000      -0.00000000
O        0.23689480       1.43136523       0.00000000       18      -0.02544702       0.00000000      -0.00000000
O        2.58371621       4.29409570       4.07797344       19       0.02544702       0.00000000      -0.00000000
20
Lattice="5.645113730318432 -2.238003142329923e-62 -1.2965801749548625e-43 6.791379399067562e-63 5.7192697568801165 -6.17884536405863e-18 8.01728795696197e-44 4.600736638572755e-18 8.159147036384274" Properties=species:S:1:pos:R:3:spacegroup_kinds:I:1:forces:R:3 spacegroup="P 1" unit_cell=conventional occupancy="_JSON {\"0\": {\"In\": 1}, \"1\": {\"In\": 1}, \"2\": {\"In\": 1}, \"3\": {\"In\": 1}, \"4\": {\"In\": 1}, \"5\": {\"In\": 1}, \"6\": {\"In\": 1}, \"7\": {\"In\": 1}, \"8\": {\"O\": 1}, \"9\": {\"O\": 1}, \"10\": {\"O\": 1}, \"11\": {\"O\": 1}, \"12\": {\"O\": 1}, \"13\": {\"O\": 1}, \"14\": {\"O\": 1}, \"15\": {\"O\": 1}, \"16\": {\"O\": 1}, \"17\": {\"O\": 1}, \"18\": {\"O\": 1}, \"19\": {\"O\": 1}}" n_minim_iter=5 energy=-22574.909072419727 stress="0.015362793164442166 -7.869685133192642e-13 2.367223780830998e-13 -7.869685133192642e-13 0.015191686022552943 -1.1664703859338456e-12 2.367223780830998e-13 -1.1664703859338456e-12 0.015224623891583121" free_energy=-22574.909072419727 pbc="T T T"
In       1.40009881       3.01465241       0.93686589        0       0.00603535      -0.00552511      -0.00217551
In       1.42245806       0.15501753       3.14270763        1      -0.00603535      -0.00552511       0.00217551
In       1.42245806       2.70461735       5.01643941        2      -0.00603535       0.00552511      -0.00217551
In       1.40009881       5.56425223       7.22228115        3       0.00603535       0.00552511       0.00217551
In       4.24501492       2.70461735       7.22228115        4      -0.00603535       0.00552511       0.00217551
In       4.22265567       5.56425223       5.01643941        5       0.00603535       0.00552511      -0.00217551
In       4.22265567       3.01465241       3.14270763        6       0.00603535      -0.00552511       0.00217551
In       4.24501492       0.15501753       0.93686589        7      -0.00603535      -0.00552511      -0.00217551
O        2.20262174       3.45249525       6.92789603        8      -0.00585911       0.00613664       0.00995683
O        0.61993512       0.59286038       5.31082453        9       0.00585911       0.00613664      -0.00995683
O        0.61993512       2.26677450       2.84832251       10       0.00585911      -0.00613664       0.00995683
O        2.20262174       5.12640938       1.23125101       11      -0.00585911      -0.00613664      -0.00995683
O        3.44249199       2.26677450       1.23125101       12       0.00585911      -0.00613664      -0.00995683
O        5.02517861       5.12640938       2.84832251       13      -0.00585911      -0.00613664       0.00995683
O        5.02517861       3.45249525       5.31082453       14      -0.00585911       0.00613664      -0.00995683
O        3.44249199       0.59286038       6.92789603       15       0.00585911       0.00613664       0.00995683
O        5.40839887       4.28945232       0.00000000       16       0.03190165       0.00000000      -0.00000000
O        3.05927172       1.42981744       4.07957352       17      -0.03190165      -0.00000000      -0.00000000
O        0.23671486       1.42981744       0.00000000       18      -0.03190165      -0.00000000      -0.00000000
O        2.58584201       4.28945232       4.07957352       19       0.03190165       0.00000000       0.00000000
20
Lattice="5.648033204401357 -9.239513398028586e-62 -2.122053342043248e-43 -6.486378878013984e-62 5.714575543742217 -2.9411817215213496e-18 2.790978527801745e-43 9.199001277262518e-18 8.1616283963159" Properties=species:S:1:pos:R:3:spacegroup_kinds:I:1:forces:R:3 spacegroup="P 1" unit_cell=conventional occupancy="_JSON {\"0\": {\"In\": 1}, \"1\": {\"In\": 1}, \"2\": {\"In\": 1}, \"3\": {\"In\": 1}, \"4\": {\"In\": 1}, \"5\": {\"In\": 1}, \"6\": {\"In\": 1}, \"7\": {\"In\": 1}, \"8\": {\"O\": 1}, \"9\": {\"O\": 1}, \"10\": {\"O\": 1}, \"11\": {\"O\": 1}, \"12\": {\"O\": 1}, \"13\": {\"O\": 1}, \"14\": {\"O\": 1}, \"15\": {\"O\": 1}, \"16\": {\"O\": 1}, \"17\": {\"O\": 1}, \"18\": {\"O\": 1}, \"19\": {\"O\": 1}}" n_minim_iter=6 energy=-22574.909394715938 stress="0.01539481538129377 -8.567313137206632e-13 8.713231739648324e-13 -8.567313137206632e-13 0.014785232520203716 7.130655423697124e-13 8.713231739648324e-13 7.130655423697124e-13 0.015229795904268354" free_energy=-22574.909394715938 pbc="T T T"
In       1.40125803       3.01002668       0.93733288        0       0.00333382       0.00076114      -0.00344642
In       1.42275857       0.15273890       3.14348132        1      -0.00333382       0.00076114       0.00344642
In       1.42275857       2.70454887       5.01814708        2      -0.00333382      -0.00076114      -0.00344642
In       1.40125803       5.56183664       7.22429552        3       0.00333382      -0.00076114       0.00344642
In       4.24677518       2.70454887       7.22429552        4      -0.00333382      -0.00076114       0.00344642
In       4.22527463       5.56183664       5.01814708        5       0.00333382      -0.00076114      -0.00344642
In       4.22527463       3.01002668       3.14348132        6       0.00333382       0.00076114       0.00344642
In       4.24677518       0.15273890       0.93733288        7      -0.00333382       0.00076114      -0.00344642
O        2.20328219       3.44978002       6.93074874        8      -0.00412847       0.00547588       0.00216289
O        0.62073441       0.59249225       5.31169386        9       0.00412847       0.00547588      -0.00216289
O        0.62073441       2.26479552       2.84993454       10       0.00412847      -0.00547588       0.00216289
O        2.20328219       5.12208330       1.23087966       11      -0.00412847      -0.00547588      -0.00216289
O        3.44475102       2.26479552       1.23087966       12       0.00412847      -0.00547588      -0.00216289
O        5.02729879       5.12208330       2.84993454       13      -0.00412847      -0.00547588       0.00216289
O        5.02729879       3.44978002       5.31169386       14      -0.00412847       0.00547588      -0.00216289
O        3.44475102       0.59249225       6.93074874       15       0.00412847       0.00547588       0.00216289
O        5.41431482       4.28593166       0.00000000       16       0.01307683      -0.00000000       0.00000000
O        3.05773499       1.42864389       4.08081420       17      -0.01307683       0.00000000      -0.00000000
O        0.23371839       1.42864389       0.00000000       18      -0.01307683       0.00000000       0.00000000
O        2.59029822       4.28593166       4.08081420       19       0.01307683      -0.00000000       0.00000000
20
Lattice="5.646938367254541 2.908656290882625e-62 -1.4617886466278514e-43 -6.494948550591698e-62 5.716402353166477 -6.608588695680229e-18 2.7902460657239e-43 3.986866713592723e-18 8.16060204144637" Properties=species:S:1:pos:R:3:spacegroup_kinds:I:1:forces:R:3 spacegroup="P 1" unit_cell=conventional occupancy="_JSON {\"0\": {\"In\": 1}, \"1\": {\"In\": 1}, \"2\": {\"In\": 1}, \"3\": {\"In\": 1}, \"4\": {\"In\": 1}, \"5\": {\"In\": 1}, \"6\": {\"In\": 1}, \"7\": {\"In\": 1}, \"8\": {\"O\": 1}, \"9\": {\"O\": 1}, \"10\": {\"O\": 1}, \"11\": {\"O\": 1}, \"12\": {\"O\": 1}, \"13\": {\"O\": 1}, \"14\": {\"O\": 1}, \"15\": {\"O\": 1}, \"16\": {\"O\": 1}, \"17\": {\"O\": 1}, \"18\": {\"O\": 1}, \"19\": {\"O\": 1}}" n_minim_iter=7 energy=-22574.909476360106 stress="0.015254984668600424 4.894464633965109e-13 -2.2391797348775044e-14 4.894464633965109e-13 0.015103321357368487 -4.0451173839287024e-13 -2.2391797348775044e-14 -4.0451173839287024e-13 0.015219762397831424" free_energy=-22574.909476360106 pbc="T T T"
In       1.40114991       3.01089969       0.93706992        0       0.00006336      -0.00083482      -0.00384884
In       1.42231927       0.15269851       3.14323110        1      -0.00006336      -0.00083482       0.00384884
In       1.42231927       2.70550266       5.01737094        2      -0.00006336       0.00083482      -0.00384884
In       1.40114991       5.56370384       7.22353212        3       0.00006336       0.00083482       0.00384884
In       4.24578846       2.70550266       7.22353212        4      -0.00006336       0.00083482       0.00384884
In       4.22461910       5.56370384       5.01737094        5       0.00006336       0.00083482      -0.00384884
In       4.22461910       3.01089969       3.14323110        6       0.00006336      -0.00083482       0.00384884
In       4.24578846       0.15269851       0.93706992        7      -0.00006336      -0.00083482      -0.00384884
O        2.20262100       3.45115247       6.93016890        8      -0.00208682       0.00331664      -0.00200088
O        0.62084819       0.59295130       5.31073416        9       0.00208682       0.00331664       0.00200088
O        0.62084819       2.26524988       2.84986788       10       0.00208682      -0.00331664      -0.00200088
O        2.20262100       5.12345106       1.23043314       11      -0.00208682      -0.00331664       0.00200088
O        3.44431737       2.26524988       1.23043314       12       0.00208682      -0.00331664       0.00200088
O        5.02609018       5.12345106       2.84986788       13      -0.00208682      -0.00331664      -0.00200088
O        5.02609018       3.45115247       5.31073416       14      -0.00208682       0.00331664       0.00200088
O        3.44431737       0.59295130       6.93016890       15       0.00208682       0.00331664      -0.00200088
O        5.41430883       4.28730176       0.00000000       16       0.00174383      -0.00000000      -0.00000000
O        3.05609872       1.42910059       4.08030102       17      -0.00174383       0.00000000      -0.00000000
O        0.23262953       1.42910059       0.00000000       18      -0.00174383      -0.00000000       0.00000000
O        2.59083965       4.28730176       4.08030102       19       0.00174383      -0.00000000       0.00000000
