20
Lattice="5.646938367254541 2.908656290882625e-62 -1.4617886466278514e-43 -6.494948550591698e-62 5.716402353166477 -6.608588695680229e-18 2.7902460657239e-43 3.986866713592723e-18 8.16060204144637" Properties=species:S:1:pos:R:3:spacegroup_kinds:I:1:forces:R:3 spacegroup="P 1" unit_cell=conventional occupancy="_JSON {\"0\": {\"In\": 1}, \"1\": {\"In\": 1}, \"2\": {\"In\": 1}, \"3\": {\"In\": 1}, \"4\": {\"In\": 1}, \"5\": {\"In\": 1}, \"6\": {\"In\": 1}, \"7\": {\"In\": 1}, \"8\": {\"O\": 1}, \"9\": {\"O\": 1}, \"10\": {\"O\": 1}, \"11\": {\"O\": 1}, \"12\": {\"O\": 1}, \"13\": {\"O\": 1}, \"14\": {\"O\": 1}, \"15\": {\"O\": 1}, \"16\": {\"O\": 1}, \"17\": {\"O\": 1}, \"18\": {\"O\": 1}, \"19\": {\"O\": 1}}" n_minim_iter=7 energy=-22574.909476360106 stress="0.015254984668600424 4.894464633965109e-13 -2.2391797348775044e-14 4.894464633965109e-13 0.015103321357368487 -4.0451173839287024e-13 -2.2391797348775044e-14 -4.0451173839287024e-13 0.015219762397831424" free_energy=-22574.909476360106 pbc="T T T"
In       1.40114991       3.01089969       0.93706992        0       0.00006336      -0.00083482      -0.00384884
In       1.42231927       0.15269851       3.14323110        1      -0.00006336      -0.00083482       0.00384884
In       1.42231927       2.70550266       5.01737094        2      -0.00006336       0.00083482      -0.00384884
In       1.40114991       5.56370384       7.22353212        3       0.00006336       0.00083482       0.00384884
In       4.24578846       2.70550266       7.22353212        4      -0.00006336       0.00083482       0.00384884
In       4.22461910       5.56370384       5.01737094        5       0.00006336       0.00083482      -0.00384884
In       4.22461910       3.01089969       3.14323110        6       0.00006336      -0.00083482       0.00384884
In       4.24578846       0.15269851       0.93706992        7      -0.00006336      -0.00083482      -0.00384884
O        2.20262100       3.45115247       6.93016890        8      -0.00208682       0.00331664      -0.00200088
O        0.62084819       0.59295130       5.31073416        9       0.00208682       0.00331664       0.00200088
O        0.62084819       2.26524988       2.84986788       10       0.00208682      -0.00331664      -0.00200088
O        2.20262100       5.12345106       1.23043314       11      -0.00208682      -0.00331664       0.00200088
O        3.44431737       2.26524988       1.23043314       12       0.00208682      -0.00331664       0.00200088
O        5.02609018       5.12345106       2.84986788       13      -0.00208682      -0.00331664      -0.00200088
O        5.02609018       3.45115247       5.31073416       14      -0.00208682       0.00331664       0.00200088
O        3.44431737       0.59295130       6.93016890       15       0.00208682       0.00331664      -0.00200088
O        5.41430883       4.28730176       0.00000000       16       0.00174383      -0.00000000      -0.00000000
O        3.05609872       1.42910059       4.08030102       17      -0.00174383       0.00000000      -0.00000000
O        0.23262953       1.42910059       0.00000000       18      -0.00174383      -0.00000000       0.00000000
O        2.59083965       4.28730176       4.08030102       19       0.00174383      -0.00000000       0.00000000
