20
Lattice="5.697076253960722 5.168366536496553e-62 -1.212062913478687e-43 -4.435863009328424e-62 5.751329454494602 -3.555848077024287e-18 2.107483441715827e-43 2.9606593878887264e-18 8.235750700190144" Properties=species:S:1:pos:R:3:spacegroup_kinds:I:1:forces:R:3 spacegroup="P 1" unit_cell=conventional occupancy="_JSON {\"0\": {\"In\": 1}, \"1\": {\"In\": 1}, \"2\": {\"In\": 1}, \"3\": {\"In\": 1}, \"4\": {\"In\": 1}, \"5\": {\"In\": 1}, \"6\": {\"In\": 1}, \"7\": {\"In\": 1}, \"8\": {\"O\": 1}, \"9\": {\"O\": 1}, \"10\": {\"O\": 1}, \"11\": {\"O\": 1}, \"12\": {\"O\": 1}, \"13\": {\"O\": 1}, \"14\": {\"O\": 1}, \"15\": {\"O\": 1}, \"16\": {\"O\": 1}, \"17\": {\"O\": 1}, \"18\": {\"O\": 1}, \"19\": {\"O\": 1}}" n_minim_iter=6 energy=-22574.763798148768 stress="0.029840499312786328 -1.0230382987611745e-12 6.685266523696138e-16 -1.0230382987611745e-12 0.02986869206327663 -3.4511910174414393e-13 6.685266523696138e-16 -3.4511910174414393e-13 0.0298304755393352" free_energy=-22574.763798148768 pbc="T T T"
In       1.41322478       3.02231709       0.94870103        0      -0.00318191      -0.00149445      -0.00336421
In       1.43531335       0.14665237       3.16917432        1       0.00318191      -0.00149445       0.00336421
In       1.43531335       2.72901236       5.06657638        2       0.00318191       0.00149445      -0.00336421
In       1.41322478       5.60467709       7.28704967        3      -0.00318191       0.00149445       0.00336421
In       4.28385148       2.72901236       7.28704967        4       0.00318191       0.00149445       0.00336421
In       4.26176290       5.60467709       5.06657638        5      -0.00318191       0.00149445      -0.00336421
In       4.26176290       3.02231709       3.16917432        6      -0.00318191      -0.00149445       0.00336421
In       4.28385148       0.14665237       0.94870103        7       0.00318191      -0.00149445      -0.00336421
O        2.22347964       3.46996860       6.99229835        8      -0.00027826       0.00221615      -0.00006673
O        0.62505848       0.59430388       5.36132770        9       0.00027826       0.00221615       0.00006673
O        0.62505848       2.28136085       2.87442300       10       0.00027826      -0.00221615      -0.00006673
O        2.22347964       5.15702558       1.24345235       11      -0.00027826      -0.00221615       0.00006673
O        3.47359661       2.28136085       1.24345235       12       0.00027826      -0.00221615       0.00006673
O        5.07201777       5.15702558       2.87442300       13      -0.00027826      -0.00221615      -0.00006673
O        5.07201777       3.46996860       5.36132770       14      -0.00027826       0.00221615       0.00006673
O        3.47359661       0.59430388       6.99229835       15       0.00027826       0.00221615      -0.00006673
O        5.46130358       4.31349709      -0.00000000       16       0.00070432       0.00000000       0.00000000
O        3.08431080       1.43783236       4.11787535       17      -0.00070432       0.00000000       0.00000000
O        0.23577268       1.43783236      -0.00000000       18      -0.00070432      -0.00000000      -0.00000000
O        2.61276545       4.31349709       4.11787535       19       0.00070432       0.00000000       0.00000000
