20
Lattice="5.397957028590381 4.42288554401762e-59 1.131556281991281e-43 4.498233609953662e-59 5.388664869740064 9.986125242542009e-17 1.0724826337364923e-43 -4.879575062775456e-18 7.510044305489845" Properties=species:S:1:pos:R:3:spacegroup_kinds:I:1:forces:R:3 spacegroup="P 1" unit_cell=conventional occupancy="_JSON {\"0\": {\"In\": 1}, \"1\": {\"In\": 1}, \"2\": {\"In\": 1}, \"3\": {\"In\": 1}, \"4\": {\"In\": 1}, \"5\": {\"In\": 1}, \"6\": {\"In\": 1}, \"7\": {\"In\": 1}, \"8\": {\"O\": 1}, \"9\": {\"O\": 1}, \"10\": {\"O\": 1}, \"11\": {\"O\": 1}, \"12\": {\"O\": 1}, \"13\": {\"O\": 1}, \"14\": {\"O\": 1}, \"15\": {\"O\": 1}, \"16\": {\"O\": 1}, \"17\": {\"O\": 1}, \"18\": {\"O\": 1}, \"19\": {\"O\": 1}}" n_minim_iter=10 energy=-22572.770857258984 stress="-0.15638914728342287 -3.0830008768111606e-13 -6.802640806362939e-13 -3.0830008768111606e-13 -0.1564222019243686 3.194507211965488e-14 -6.802640806362939e-13 3.194507211965488e-14 -0.1563905877005081" free_energy=-22572.770857258984 pbc="T T T"
In       1.34050681       2.87452772       0.91751044        0      -0.00085855       0.00143544      -0.00087793
In       1.35847170       0.18019528       2.83751171        1       0.00085855       0.00143544       0.00087793
In       1.35847170       2.51413715       4.67253260        2       0.00085855      -0.00143544      -0.00087793
In       1.34050681       5.20846959       6.59253386        3      -0.00085855      -0.00143544       0.00087793
In       4.05745022       2.51413715       6.59253386        4       0.00085855      -0.00143544       0.00087793
In       4.03948533       5.20846959       4.67253260        5      -0.00085855      -0.00143544      -0.00087793
In       4.03948533       2.87452772       2.83751171        6      -0.00085855       0.00143544       0.00087793
In       4.05745022       0.18019528       0.91751044        7       0.00085855       0.00143544      -0.00087793
O        2.11114311       3.24363096       6.43390676        8      -0.00293954       0.00091340       0.00016637
O        0.58783541       0.54929853       4.83115970        9       0.00293954       0.00091340      -0.00016637
O        0.58783541       2.14503391       2.67888461       10       0.00293954      -0.00091340       0.00016637
O        2.11114311       4.83936634       1.07613754       11      -0.00293954      -0.00091340      -0.00016637
O        3.28681392       2.14503391       1.07613754       12       0.00293954      -0.00091340      -0.00016637
O        4.81012162       4.83936634       2.67888461       13      -0.00293954      -0.00091340       0.00016637
O        4.81012162       3.24363096       4.83115970       14      -0.00293954       0.00091340      -0.00016637
O        3.28681392       0.54929853       6.43390676       15       0.00293954       0.00091340       0.00016637
O        5.15347080       4.04149865       0.00000000       16      -0.00881278       0.00000000       0.00000000
O        2.94346475       1.34716622       3.75502215       17       0.00881278      -0.00000000      -0.00000000
O        0.24448623       1.34716622       0.00000000       18       0.00881278      -0.00000000       0.00000000
O        2.45449228       4.04149865       3.75502215       19      -0.00881278       0.00000000       0.00000000
