20
Lattice="5.546718825965836 2.3166066046488345e-61 -2.497599866257687e-43 -3.0712668308294026e-60 5.653821091081252 1.9565534824380682e-17 2.848934597097659e-43 4.099965391449546e-17 7.99025379739443" Properties=species:S:1:pos:R:3:spacegroup_kinds:I:1:forces:R:3 spacegroup="P 1" unit_cell=conventional occupancy="_JSON {\"0\": {\"In\": 1}, \"1\": {\"In\": 1}, \"2\": {\"In\": 1}, \"3\": {\"In\": 1}, \"4\": {\"In\": 1}, \"5\": {\"In\": 1}, \"6\": {\"In\": 1}, \"7\": {\"In\": 1}, \"8\": {\"O\": 1}, \"9\": {\"O\": 1}, \"10\": {\"O\": 1}, \"11\": {\"O\": 1}, \"12\": {\"O\": 1}, \"13\": {\"O\": 1}, \"14\": {\"O\": 1}, \"15\": {\"O\": 1}, \"16\": {\"O\": 1}, \"17\": {\"O\": 1}, \"18\": {\"O\": 1}, \"19\": {\"O\": 1}}" n_minim_iter=6 energy=-22574.908360538582 stress="-0.014787592840040251 4.529968724876966e-13 -7.113320315004548e-13 4.529968724876966e-13 -0.01479509384932364 4.987256448468585e-13 -7.113320315004548e-13 4.987256448468585e-13 -0.01477030512143263" free_energy=-22574.908360538582 pbc="T T T"
In       1.37772623       2.99445234       0.91524852        0      -0.00624103       0.00360756       0.00041240
In       1.39563318       0.16754179       3.07987838        1       0.00624103       0.00360756      -0.00041240
In       1.39563318       2.65936875       4.91037542        2       0.00624103      -0.00360756       0.00041240
In       1.37772623       5.48627930       7.07500528        3      -0.00624103      -0.00360756      -0.00041240
In       4.16899259       2.65936875       7.07500528        4       0.00624103      -0.00360756      -0.00041240
In       4.15108565       5.48627930       4.91037542        5      -0.00624103      -0.00360756       0.00041240
In       4.15108565       2.99445234       3.07987838        6      -0.00624103       0.00360756      -0.00041240
In       4.16899259       0.16754179       0.91524852        7       0.00624103       0.00360756       0.00041240
O        2.16239477       3.41537787       6.78739494        8      -0.00160979      -0.00494267       0.00023887
O        0.61096465       0.58846733       5.19798576        9       0.00160979      -0.00494267      -0.00023887
O        0.61096465       2.23844322       2.79226804       10       0.00160979       0.00494267       0.00023887
O        2.16239477       5.06535377       1.20285886       11      -0.00160979       0.00494267      -0.00023887
O        3.38432406       2.23844322       1.20285886       12       0.00160979       0.00494267      -0.00023887
O        4.93575418       5.06535377       2.79226804       13      -0.00160979       0.00494267       0.00023887
O        4.93575418       3.41537787       5.19798576       14      -0.00160979      -0.00494267      -0.00023887
O        3.38432406       0.58846733       6.78739494       15       0.00160979      -0.00494267       0.00023887
O        5.30874208       4.24036582       0.00000000       16       0.00474924      -0.00000000      -0.00000000
O        3.01133616       1.41345527       3.99512690       17      -0.00474924       0.00000000      -0.00000000
O        0.23797674       1.41345527       0.00000000       18      -0.00474924       0.00000000       0.00000000
O        2.53538267       4.24036582       3.99512690       19       0.00474924      -0.00000000       0.00000000
