20
Lattice="5.505895892846242 8.381854002760709e-60 -9.793168189679582e-43 -6.094623282970203e-59 5.617873989661202 -5.826272157923311e-17 -6.537654874628193e-43 -1.112247864728191e-18 7.893285065001689" Properties=species:S:1:pos:R:3:spacegroup_kinds:I:1:forces:R:3 spacegroup="P 1" unit_cell=conventional occupancy="_JSON {\"0\": {\"In\": 1}, \"1\": {\"In\": 1}, \"2\": {\"In\": 1}, \"3\": {\"In\": 1}, \"4\": {\"In\": 1}, \"5\": {\"In\": 1}, \"6\": {\"In\": 1}, \"7\": {\"In\": 1}, \"8\": {\"O\": 1}, \"9\": {\"O\": 1}, \"10\": {\"O\": 1}, \"11\": {\"O\": 1}, \"12\": {\"O\": 1}, \"13\": {\"O\": 1}, \"14\": {\"O\": 1}, \"15\": {\"O\": 1}, \"16\": {\"O\": 1}, \"17\": {\"O\": 1}, \"18\": {\"O\": 1}, \"19\": {\"O\": 1}}" n_minim_iter=7 energy=-22574.767241912705 stress="-0.029716143376709248 3.527918638983567e-13 9.167210653291552e-13 3.527918638983567e-13 -0.029704190000128524 -3.017043683654349e-13 9.167210653291552e-13 -3.017043683654349e-13 -0.029705242494911296" free_energy=-22574.767241912705 pbc="T T T"
In       1.36865922       2.98409817       0.90720729        0      -0.00184072       0.00001465       0.00233110
In       1.38428873       0.17516117       3.03943524        1       0.00184072       0.00001465      -0.00233110
In       1.38428873       2.63377582       4.85384983        2       0.00184072      -0.00001465       0.00233110
In       1.36865922       5.44271282       6.98607777        3      -0.00184072      -0.00001465      -0.00233110
In       4.13723668       2.63377582       6.98607777        4       0.00184072      -0.00001465      -0.00233110
In       4.12160716       5.44271282       4.85384983        5      -0.00184072      -0.00001465       0.00233110
In       4.12160716       2.98409817       3.03943524        6      -0.00184072       0.00001465      -0.00233110
In       4.13723668       0.17516117       0.90720729        7       0.00184072       0.00001465       0.00233110
O        2.14496152       3.38892418       6.70827202        8       0.00122647      -0.00121673       0.00049512
O        0.60798642       0.57998719       5.13165558        9      -0.00122647      -0.00121673      -0.00049512
O        0.60798642       2.22894981       2.76162948       10      -0.00122647       0.00121673       0.00049512
O        2.14496152       5.03788680       1.18501305       11       0.00122647       0.00121673      -0.00049512
O        3.36093437       2.22894981       1.18501305       12      -0.00122647       0.00121673      -0.00049512
O        4.89790947       5.03788680       2.76162948       13       0.00122647       0.00121673       0.00049512
O        4.89790947       3.38892418       5.13165558       14       0.00122647      -0.00121673      -0.00049512
O        3.36093437       0.57998719       6.70827202       15      -0.00122647      -0.00121673       0.00049512
O        5.26475576       4.21340549       0.00000000       16       0.00431762      -0.00000000      -0.00000000
O        2.99408808       1.40446850       3.94664253       17      -0.00431762       0.00000000      -0.00000000
O        0.24114014       1.40446850       0.00000000       18      -0.00431762       0.00000000       0.00000000
O        2.51180781       4.21340549       3.94664253       19       0.00431762      -0.00000000      -0.00000000
