20
Lattice="5.855154960542745 8.552176741764523e-61 -1.0447645202508952e-44 -9.220521250247454e-61 5.888063905847442 -3.47620681710395e-17 1.5296818915677282e-44 5.061208109251833e-17 8.572768640070517" Properties=species:S:1:pos:R:3:spacegroup_kinds:I:1:forces:R:3 spacegroup="P 1" unit_cell=conventional occupancy="_JSON {\"0\": {\"In\": 1}, \"1\": {\"In\": 1}, \"2\": {\"In\": 1}, \"3\": {\"In\": 1}, \"4\": {\"In\": 1}, \"5\": {\"In\": 1}, \"6\": {\"In\": 1}, \"7\": {\"In\": 1}, \"8\": {\"O\": 1}, \"9\": {\"O\": 1}, \"10\": {\"O\": 1}, \"11\": {\"O\": 1}, \"12\": {\"O\": 1}, \"13\": {\"O\": 1}, \"14\": {\"O\": 1}, \"15\": {\"O\": 1}, \"16\": {\"O\": 1}, \"17\": {\"O\": 1}, \"18\": {\"O\": 1}, \"19\": {\"O\": 1}}" n_minim_iter=1 energy=-22573.36507249528 stress="0.08210785528660536 7.169471825186193e-13 -2.4125619186453883e-13 7.169471825186193e-13 0.08016801520730889 2.1815238150075384e-13 -2.4125619186453883e-13 2.1815238150075384e-13 0.07785186465659476" free_energy=-22573.36507249528 pbc="T T T"
In       1.44642790       3.09108408       1.00358831        0      -0.00875598       0.02595262       0.01146585
In       1.48114958       0.14705213       3.28279601        1       0.00875598       0.02595262      -0.01146585
In       1.48114958       2.79697983       5.28997263        2       0.00875598      -0.02595262       0.01146585
In       1.44642790       5.74101178       7.56918033        3      -0.00875598      -0.02595262      -0.01146585
In       4.40872706       2.79697983       7.56918033        4       0.00875598      -0.02595262      -0.01146585
In       4.37400538       5.74101178       5.28997263        5      -0.00875598      -0.02595262       0.01146585
In       4.37400538       3.09108408       3.28279601        6      -0.00875598       0.02595262      -0.01146585
In       4.40872706       0.14705213       1.00358831        7       0.00875598       0.02595262       0.01146585
O        2.29409011       3.53693118       7.25517173        8       0.02593633      -0.02706901      -0.05861394
O        0.63348737       0.59289923       5.60398123        9      -0.02593633      -0.02706901       0.05861394
O        0.63348737       2.35113272       2.96878741       10      -0.02593633       0.02706901      -0.05861394
O        2.29409011       5.29516468       1.31759691       11       0.02593633       0.02706901       0.05861394
O        3.56106485       2.35113272       1.31759691       12      -0.02593633       0.02706901       0.05861394
O        5.22166759       5.29516468       2.96878741       13       0.02593633       0.02706901      -0.05861394
O        5.22166759       3.53693118       5.60398123       14       0.02593633      -0.02706901       0.05861394
O        3.56106485       0.59289923       7.25517173       15      -0.02593633      -0.02706901      -0.05861394
O        5.59058813       4.41604793       0.00000000       16      -0.05322873      -0.00000000      -0.00000000
O        3.19214432       1.47201598       4.28638432       17       0.05322873       0.00000000       0.00000000
O        0.26456684       1.47201598       0.00000000       18       0.05322873       0.00000000      -0.00000000
O        2.66301065       4.41604793       4.28638432       19      -0.05322873      -0.00000000       0.00000000
20
Lattice="5.836430940830259 8.523143590326244e-61 -1.0395894453229883e-44 -9.223728209651205e-61 5.88691856944377 -3.488037422074184e-17 1.5375405749673438e-44 5.0602236114632945e-17 8.601944418330557" Properties=species:S:1:pos:R:3:spacegroup_kinds:I:1:forces:R:3 spacegroup="P 1" unit_cell=conventional occupancy="_JSON {\"0\": {\"In\": 1}, \"1\": {\"In\": 1}, \"2\": {\"In\": 1}, \"3\": {\"In\": 1}, \"4\": {\"In\": 1}, \"5\": {\"In\": 1}, \"6\": {\"In\": 1}, \"7\": {\"In\": 1}, \"8\": {\"O\": 1}, \"9\": {\"O\": 1}, \"10\": {\"O\": 1}, \"11\": {\"O\": 1}, \"12\": {\"O\": 1}, \"13\": {\"O\": 1}, \"14\": {\"O\": 1}, \"15\": {\"O\": 1}, \"16\": {\"O\": 1}, \"17\": {\"O\": 1}, \"18\": {\"O\": 1}, \"19\": {\"O\": 1}}" n_minim_iter=2 energy=-22573.36728694829 stress="0.0787941474495204 -1.5225579572860842e-13 8.924299146748915e-14 -1.5225579572860842e-13 0.07977732367692739 -5.758871267409615e-14 8.924299146748915e-14 -5.758871267409615e-14 0.07924824602514415" free_energy=-22573.36728694829 pbc="T T T"
In       1.44175662       3.09061896       1.00706420        0      -0.02980478       0.02566264       0.03662009
In       1.47645885       0.14715968       3.29390801        1       0.02980478       0.02566264      -0.03662009
In       1.47645885       2.79629961       5.30803641        2       0.02980478      -0.02566264       0.03662009
In       1.44175662       5.73975889       7.59488022        3      -0.02980478      -0.02566264      -0.03662009
In       4.39467432       2.79629961       7.59488022        4       0.02980478      -0.02566264      -0.03662009
In       4.35997209       5.73975889       5.30803641        5      -0.02980478      -0.02566264       0.03662009
In       4.35997209       3.09061896       3.29390801        6      -0.02980478       0.02566264      -0.03662009
In       4.39467432       0.14715968       1.00706420        7       0.02980478       0.02566264       0.03662009
O        2.28688957       3.53610117       7.27955470        8       0.01493621      -0.02499741      -0.09581180
O        0.63132590       0.59264189       5.62336192        9      -0.01493621      -0.02499741       0.09581180
O        0.63132590       2.35081740       2.97858249       10      -0.01493621       0.02499741      -0.09581180
O        2.28688957       5.29427668       1.32238972       11       0.01493621       0.02499741       0.09581180
O        3.54954137       2.35081740       1.32238972       12      -0.01493621       0.02499741       0.09581180
O        5.20510504       5.29427668       2.97858249       13       0.01493621       0.02499741      -0.09581180
O        5.20510504       3.53610117       5.62336192       14       0.01493621      -0.02499741       0.09581180
O        3.54954137       0.59264189       7.27955470       15      -0.01493621      -0.02499741      -0.09581180
O        5.57243174       4.41518893       0.00000000       16      -0.05503408      -0.00000000      -0.00000000
O        3.18221468       1.47172964       4.30097221       17       0.05503408       0.00000000      -0.00000000
O        0.26399921       1.47172964       0.00000000       18       0.05503408       0.00000000       0.00000000
O        2.65421627       4.41518893       4.30097221       19      -0.05503408      -0.00000000      -0.00000000
20
Lattice="5.838767306865028 8.528810508299397e-61 5.3111532128439626e-45 -8.301645065520678e-61 5.873825039049555 -3.176591562433297e-17 -7.543902963741038e-45 5.511704461410755e-17 8.617669570265916" Properties=species:S:1:pos:R:3:spacegroup_kinds:I:1:forces:R:3 spacegroup="P 1" unit_cell=conventional occupancy="_JSON {\"0\": {\"In\": 1}, \"1\": {\"In\": 1}, \"2\": {\"In\": 1}, \"3\": {\"In\": 1}, \"4\": {\"In\": 1}, \"5\": {\"In\": 1}, \"6\": {\"In\": 1}, \"7\": {\"In\": 1}, \"8\": {\"O\": 1}, \"9\": {\"O\": 1}, \"10\": {\"O\": 1}, \"11\": {\"O\": 1}, \"12\": {\"O\": 1}, \"13\": {\"O\": 1}, \"14\": {\"O\": 1}, \"15\": {\"O\": 1}, \"16\": {\"O\": 1}, \"17\": {\"O\": 1}, \"18\": {\"O\": 1}, \"19\": {\"O\": 1}}" n_minim_iter=3 energy=-22573.368829465875 stress="0.07923741991328337 -9.090376378277552e-13 -2.345953042129651e-14 -9.090376378277552e-13 0.07791957742298292 -9.157418963385864e-13 -2.345953042129651e-14 -9.157418963385864e-13 0.07950259083665005" free_energy=-22573.368829465875 pbc="T T T"
In       1.44188736       3.08417932       1.00946346        0      -0.02611597       0.01133252       0.04868506
In       1.47749629       0.14726680       3.29937132        1       0.02611597       0.01133252      -0.04868506
In       1.47749629       2.78964572       5.31829825        2       0.02611597      -0.01133252       0.04868506
In       1.44188736       5.72655824       7.60820611        3      -0.02611597      -0.01133252      -0.04868506
In       4.39687994       2.78964572       7.60820611        4       0.02611597      -0.01133252      -0.04868506
In       4.36127102       5.72655824       5.31829825        5      -0.02611597      -0.01133252       0.04868506
In       4.36127102       3.08417932       3.29937132        6      -0.02611597       0.01133252      -0.04868506
In       4.39687994       0.14726680       1.00946346        7       0.02611597       0.01133252       0.04868506
O        2.28808585       3.52780836       7.29132534        8       0.00952653      -0.02084391      -0.10088065
O        0.63129780       0.59089584       5.63517902        9      -0.00952653      -0.02084391       0.10088065
O        0.63129780       2.34601668       2.98249056       10      -0.00952653       0.02084391      -0.10088065
O        2.28808585       5.28292920       1.32634423       11       0.00952653       0.02084391       0.10088065
O        3.55068146       2.34601668       1.32634423       12      -0.00952653       0.02084391       0.10088065
O        5.20746950       5.28292920       2.98249056       13       0.00952653       0.02084391      -0.10088065
O        5.20746950       3.52780836       5.63517902       14       0.00952653      -0.02084391       0.10088065
O        3.55068146       0.59089584       7.29132534       15      -0.00952653      -0.02084391      -0.10088065
O        5.57373992       4.40536878       0.00000000       16      -0.04297571       0.00000000       0.00000000
O        3.18441104       1.46845626       4.30883479       17       0.04297571      -0.00000000      -0.00000000
O        0.26502738       1.46845626       0.00000000       18       0.04297571      -0.00000000       0.00000000
O        2.65435627       4.40536878       4.30883479       19      -0.04297571      -0.00000000      -0.00000000
20
Lattice="5.737265931960628 8.394036982276265e-61 -7.490116176326355e-48 -7.094653280817779e-61 5.7855531428236855 -5.646240784823311e-17 -3.4429041768154933e-44 1.9868075092875896e-17 8.903938341117188" Properties=species:S:1:pos:R:3:spacegroup_kinds:I:1:forces:R:3 spacegroup="P 1" unit_cell=conventional occupancy="_JSON {\"0\": {\"In\": 1}, \"1\": {\"In\": 1}, \"2\": {\"In\": 1}, \"3\": {\"In\": 1}, \"4\": {\"In\": 1}, \"5\": {\"In\": 1}, \"6\": {\"In\": 1}, \"7\": {\"In\": 1}, \"8\": {\"O\": 1}, \"9\": {\"O\": 1}, \"10\": {\"O\": 1}, \"11\": {\"O\": 1}, \"12\": {\"O\": 1}, \"13\": {\"O\": 1}, \"14\": {\"O\": 1}, \"15\": {\"O\": 1}, \"16\": {\"O\": 1}, \"17\": {\"O\": 1}, \"18\": {\"O\": 1}, \"19\": {\"O\": 1}}" n_minim_iter=4 energy=-22573.43532578383 stress="0.06766526592198621 4.167384432541985e-14 -9.320933326991626e-14 4.167384432541985e-14 0.05713590899846682 7.48074770656579e-13 -9.320933326991626e-14 7.48074770656579e-13 0.05709704170210441" free_energy=-22573.43532578383 pbc="T T T"
In       1.39553444       3.05575271       1.07485837        0       0.01579527      -0.05132751       0.11565569
In       1.47309853       0.16297614       3.37711080        1      -0.01579527      -0.05132751      -0.11565569
In       1.47309853       2.72980043       5.52682754        2      -0.01579527       0.05132751       0.11565569
In       1.39553444       5.62257700       7.82907997        3       0.01579527       0.05132751      -0.11565569
In       4.34173149       2.72980043       7.82907997        4      -0.01579527       0.05132751      -0.11565569
In       4.26416740       5.62257700       5.52682754        5       0.01579527       0.05132751       0.11565569
In       4.26416740       3.05575271       3.37711080        6       0.01579527      -0.05132751      -0.11565569
In       4.34173149       0.16297614       1.07485837        7      -0.01579527      -0.05132751       0.11565569
O        2.26047116       3.45499727       7.45315845        8      -0.04830365       0.11886972      -0.04606313
O        0.60816181       0.56222069       5.90274907        9       0.04830365       0.11886972       0.04606313
O        0.60816181       2.33055588       3.00118928       10       0.04830365      -0.11886972      -0.04606313
O        2.26047116       5.22333245       1.45077990       11      -0.04830365      -0.11886972       0.04606313
O        3.47679477       2.33055588       1.45077990       12       0.04830365      -0.11886972       0.04606313
O        5.12910412       5.22333245       3.00118928       13      -0.04830365      -0.11886972      -0.04606313
O        5.12910412       3.45499727       5.90274907       14      -0.04830365       0.11886972       0.04606313
O        3.47679477       0.56222069       7.45315845       15       0.04830365       0.11886972      -0.04606313
O        5.43477866       4.33916486       0.00000000       16       0.30169420      -0.00000000      -0.00000000
O        3.17112023       1.44638829       4.45196917       17      -0.30169420       0.00000000       0.00000000
O        0.30248727       1.44638829       0.00000000       18      -0.30169420      -0.00000000      -0.00000000
O        2.56614570       4.33916486       4.45196917       19       0.30169420      -0.00000000      -0.00000000
20
Lattice="5.712457756641854 8.47741202651157e-61 -2.211783251169376e-44 -7.880008261993267e-61 5.7727597838567934 -2.6134490719297096e-17 -5.694181423316576e-45 6.528573699309186e-17 8.962424788244768" Properties=species:S:1:pos:R:3:spacegroup_kinds:I:1:forces:R:3 spacegroup="P 1" unit_cell=conventional occupancy="_JSON {\"0\": {\"In\": 1}, \"1\": {\"In\": 1}, \"2\": {\"In\": 1}, \"3\": {\"In\": 1}, \"4\": {\"In\": 1}, \"5\": {\"In\": 1}, \"6\": {\"In\": 1}, \"7\": {\"In\": 1}, \"8\": {\"O\": 1}, \"9\": {\"O\": 1}, \"10\": {\"O\": 1}, \"11\": {\"O\": 1}, \"12\": {\"O\": 1}, \"13\": {\"O\": 1}, \"14\": {\"O\": 1}, \"15\": {\"O\": 1}, \"16\": {\"O\": 1}, \"17\": {\"O\": 1}, \"18\": {\"O\": 1}, \"19\": {\"O\": 1}}" n_minim_iter=5 energy=-22573.441677248684 stress="0.06454376388235918 -2.0593763228771487e-13 2.520542382062664e-13 -2.0593763228771487e-13 0.054472907589999446 -1.8551479580954876e-13 2.520542382062664e-13 -1.8551479580954876e-13 0.054668604558775806" free_energy=-22573.441677248684 pbc="T T T"
In       1.38591914       3.05191111       1.08760991        0       0.01110839      -0.04967659       0.08946626
In       1.47030973       0.16553122       3.39360249        1      -0.01110839      -0.04967659      -0.08946626
In       1.47030973       2.72084868       5.56882230        2      -0.01110839       0.04967659       0.08946626
In       1.38591914       5.60722857       7.87481488        3       0.01110839       0.04967659      -0.08946626
In       4.32653861       2.72084868       7.87481488        4      -0.01110839       0.04967659      -0.08946626
In       4.24214802       5.60722857       5.56882230        5       0.01110839       0.04967659       0.08946626
In       4.24214802       3.05191111       3.39360249        6       0.01110839      -0.04967659      -0.08946626
In       4.32653861       0.16553122       1.08760991        7      -0.01110839      -0.04967659       0.08946626
O        2.25258400       3.44433927       7.48840006        8      -0.05252423       0.14442649       0.00511163
O        0.60364488       0.55795938       5.95523712        9       0.05252423       0.14442650      -0.00511163
O        0.60364488       2.32842051       3.00718767       10       0.05252423      -0.14442650       0.00511163
O        2.25258400       5.21480040       1.47402472       11      -0.05252423      -0.14442649      -0.00511163
O        3.45987375       2.32842051       1.47402472       12       0.05252423      -0.14442649      -0.00511163
O        5.10881288       5.21480040       3.00718767       13      -0.05252423      -0.14442650       0.00511163
O        5.10881288       3.44433927       5.95523712       14      -0.05252423       0.14442650      -0.00511163
O        3.45987375       0.55795938       7.48840006       15       0.05252423       0.14442650       0.00511163
O        5.40495689       4.32956984       0.00000000       16       0.34430036      -0.00000000      -0.00000000
O        3.16372974       1.44318995       4.48121239       17      -0.34430036       0.00000000       0.00000000
O        0.30750086       1.44318995       0.00000000       18      -0.34430036      -0.00000000      -0.00000000
O        2.54872801       4.32956984       4.48121239       19       0.34430036      -0.00000000       0.00000000
20
Lattice="5.6022758752442385 1.0747458444108852e-60 -1.6964951080794135e-43 -8.363166197319514e-61 5.812335942611358 -4.93270046040923e-17 8.662629259030829e-45 3.257863559771109e-17 9.076466575672832" Properties=species:S:1:pos:R:3:spacegroup_kinds:I:1:forces:R:3 spacegroup="P 1" unit_cell=conventional occupancy="_JSON {\"0\": {\"In\": 1}, \"1\": {\"In\": 1}, \"2\": {\"In\": 1}, \"3\": {\"In\": 1}, \"4\": {\"In\": 1}, \"5\": {\"In\": 1}, \"6\": {\"In\": 1}, \"7\": {\"In\": 1}, \"8\": {\"O\": 1}, \"9\": {\"O\": 1}, \"10\": {\"O\": 1}, \"11\": {\"O\": 1}, \"12\": {\"O\": 1}, \"13\": {\"O\": 1}, \"14\": {\"O\": 1}, \"15\": {\"O\": 1}, \"16\": {\"O\": 1}, \"17\": {\"O\": 1}, \"18\": {\"O\": 1}, \"19\": {\"O\": 1}}" n_minim_iter=6 energy=-22573.47784055613 stress="0.05522950932284174 -1.2832862633195184e-13 -3.6422811891724485e-13 -1.2832862633195184e-13 0.05888214596920292 -5.198836381773719e-13 -3.6422811891724485e-13 -5.198836381773719e-13 0.06045083180103305" free_energy=-22573.47784055613 pbc="T T T"
In       1.35700888       3.07303425       1.10720210        0      -0.14060088      -0.00954981       0.06662280
In       1.44412905       0.16686628       3.43103119        1       0.14060088      -0.00954981      -0.06662280
In       1.44412905       2.73930169       5.64543539        2       0.14060088       0.00954981       0.06662280
In       1.35700888       5.64546966       7.96926448        3      -0.14060088       0.00954981      -0.06662280
In       4.24526699       2.73930169       7.96926448        4       0.14060088       0.00954981      -0.06662280
In       4.15814682       5.64546966       5.64543539        5      -0.14060088       0.00954981       0.06662280
In       4.15814682       3.07303425       3.43103119        6      -0.14060088      -0.00954981      -0.06662280
In       4.24526699       0.16686628       1.10720210        7       0.14060088      -0.00954981       0.06662280
O        2.20788334       3.47180537       7.57783961        8      -0.11482316       0.13038551      -0.06040110
O        0.59325460       0.56563740       6.03686025        9       0.11482316       0.13038551       0.06040110
O        0.59325460       2.34053058       3.03960633       10       0.11482316      -0.13038551      -0.06040110
O        2.20788334       5.24669855       1.49862696       11      -0.11482316      -0.13038551       0.06040110
O        3.39439254       2.34053058       1.49862696       12       0.11482316      -0.13038551       0.06040110
O        5.00902127       5.24669855       3.03960633       13      -0.11482316      -0.13038551      -0.06040110
O        5.00902127       3.47180537       6.03686025       14      -0.11482316       0.13038551       0.06040110
O        3.39439254       0.56563740       7.57783961       15       0.11482316       0.13038551      -0.06040110
O        5.30919793       4.35925196       0.00000000       16       0.33504178       0.00000000       0.00000000
O        3.09421588       1.45308399       4.53823329       17      -0.33504178      -0.00000000      -0.00000000
O        0.29307794       1.45308399       0.00000000       18      -0.33504178      -0.00000000       0.00000000
O        2.50806000       4.35925196       4.53823329       19       0.33504178      -0.00000000      -0.00000000
20
Lattice="5.614842329244553 1.3686131928259333e-60 -1.5034834415203845e-43 -1.1814860094139354e-60 5.840584701453204 -5.952106549592639e-17 6.580412466934436e-44 1.7387542495649613e-17 9.01235145918557" Properties=species:S:1:pos:R:3:spacegroup_kinds:I:1:forces:R:3 spacegroup="P 1" unit_cell=conventional occupancy="_JSON {\"0\": {\"In\": 1}, \"1\": {\"In\": 1}, \"2\": {\"In\": 1}, \"3\": {\"In\": 1}, \"4\": {\"In\": 1}, \"5\": {\"In\": 1}, \"6\": {\"In\": 1}, \"7\": {\"In\": 1}, \"8\": {\"O\": 1}, \"9\": {\"O\": 1}, \"10\": {\"O\": 1}, \"11\": {\"O\": 1}, \"12\": {\"O\": 1}, \"13\": {\"O\": 1}, \"14\": {\"O\": 1}, \"15\": {\"O\": 1}, \"16\": {\"O\": 1}, \"17\": {\"O\": 1}, \"18\": {\"O\": 1}, \"19\": {\"O\": 1}}" n_minim_iter=7 energy=-22573.4966762648 stress="0.057806876085324414 -2.2907322075072826e-13 -4.514432046062526e-13 -2.2907322075072826e-13 0.0640607308240945 1.6968960118223873e-13 -4.514432046062526e-13 1.6968960118223873e-13 0.0596772397038144" free_energy=-22573.4966762648 pbc="T T T"
In       1.36070073       3.08381134       1.09661733        0      -0.09403751       0.00054693       0.06136436
In       1.44672043       0.16351899       3.40955840        1       0.09403751       0.00054693      -0.06136436
In       1.44672043       2.75677336       5.60279306        2       0.09403751      -0.00054693       0.06136436
In       1.36070073       5.67706571       7.91573413        3      -0.09403751      -0.00054693      -0.06136436
In       4.25414160       2.75677336       7.91573413        4       0.09403751      -0.00054693      -0.06136436
In       4.16812190       5.67706571       5.60279306        5      -0.09403751      -0.00054693       0.06136436
In       4.16812190       3.08381134       3.40955840        6      -0.09403751       0.00054693      -0.06136436
In       4.25414160       0.16351899       1.09661733        7       0.09403751       0.00054693       0.06136436
O        2.20719619       3.49744080       7.53758532        8      -0.05102027       0.08335955      -0.13773692
O        0.60022497       0.57714845       5.98094187        9       0.05102027       0.08335955       0.13773692
O        0.60022497       2.34314390       3.03140959       10       0.05102027      -0.08335955      -0.13773692
O        2.20719619       5.26343625       1.47476614       11      -0.05102027      -0.08335955       0.13773692
O        3.40764614       2.34314390       1.47476614       12       0.05102027      -0.08335955       0.13773692
O        5.01461736       5.26343625       3.03140959       13      -0.05102027      -0.08335955      -0.13773692
O        5.01461736       3.49744080       5.98094187       14      -0.05102027       0.08335955       0.13773692
O        3.40764614       0.57714845       7.53758532       15       0.05102027       0.08335955      -0.13773692
O        5.34090274       4.38043853       0.00000000       16       0.17277357       0.00000000      -0.00000000
O        3.08136076       1.46014618       4.50617573       17      -0.17277357      -0.00000000       0.00000000
O        0.27393959       1.46014618       0.00000000       18      -0.17277357       0.00000000      -0.00000000
O        2.53348157       4.38043853       4.50617573       19       0.17277357      -0.00000000       0.00000000
20
Lattice="5.605908335265232 1.4848884796648327e-60 -1.5466861383185436e-43 -1.1257270637169557e-60 5.820366660451459 -6.37155084797093e-17 6.056148069612584e-44 1.1522322944833353e-17 9.05807005389173" Properties=species:S:1:pos:R:3:spacegroup_kinds:I:1:forces:R:3 spacegroup="P 1" unit_cell=conventional occupancy="_JSON {\"0\": {\"In\": 1}, \"1\": {\"In\": 1}, \"2\": {\"In\": 1}, \"3\": {\"In\": 1}, \"4\": {\"In\": 1}, \"5\": {\"In\": 1}, \"6\": {\"In\": 1}, \"7\": {\"In\": 1}, \"8\": {\"O\": 1}, \"9\": {\"O\": 1}, \"10\": {\"O\": 1}, \"11\": {\"O\": 1}, \"12\": {\"O\": 1}, \"13\": {\"O\": 1}, \"14\": {\"O\": 1}, \"15\": {\"O\": 1}, \"16\": {\"O\": 1}, \"17\": {\"O\": 1}, \"18\": {\"O\": 1}, \"19\": {\"O\": 1}}" n_minim_iter=8 energy=-22573.523348849732 stress="0.05934121165727368 -2.3688215628237e-13 2.4963904730233097e-13 -2.3688215628237e-13 0.06208960656229566 2.0734881623581476e-13 2.4963904730233097e-13 2.0734881623581476e-13 0.059015619237913854" free_energy=-22573.523348849732 pbc="T T T"
In       1.35234774       3.07359496       1.10930044        0      -0.04716996      -0.01239413      -0.00862250
In       1.45060642       0.16341163       3.41973459        1       0.04716996      -0.01239413       0.00862250
In       1.45060642       2.74677170       5.63833546        2       0.04716996       0.01239413      -0.00862250
In       1.35234774       5.65695503       7.94876962        3      -0.04716996       0.01239413       0.00862250
In       4.25356059       2.74677170       7.94876962        4       0.04716996       0.01239413       0.00862250
In       4.15530191       5.65695503       5.63833546        5      -0.04716996       0.01239413      -0.00862250
In       4.15530191       3.07359496       3.41973459        6      -0.04716996      -0.01239413       0.00862250
In       4.25356059       0.16341163       1.10930044        7       0.04716996      -0.01239413      -0.00862250
O        2.20042193       3.49066028       7.56545382        8       0.01831261       0.06266279      -0.05531080
O        0.60253224       0.58047695       6.02165126        9      -0.01831261       0.06266279       0.05531080
O        0.60253224       2.32970638       3.03641879       10      -0.01831261      -0.06266279      -0.05531080
O        2.20042193       5.23988971       1.49261623       11       0.01831261      -0.06266279       0.05531080
O        3.40548641       2.32970638       1.49261623       12      -0.01831261      -0.06266279       0.05531080
O        5.00337610       5.23988971       3.03641879       13       0.01831261      -0.06266279      -0.05531080
O        5.00337610       3.49066028       6.02165126       14       0.01831261       0.06266279       0.05531080
O        3.40548641       0.58047695       7.56545382       15      -0.01831261       0.06266279      -0.05531080
O        5.34490952       4.36527500       0.00000000       16       0.07832898      -0.00000000       0.00000000
O        3.06395298       1.45509167       4.52903503       17      -0.07832898       0.00000000      -0.00000000
O        0.26099881       1.45509167       0.00000000       18      -0.07832898      -0.00000000       0.00000000
O        2.54195536       4.36527500       4.52903503       19       0.07832898      -0.00000000      -0.00000000
20
Lattice="5.593313209586037 1.0906838362465602e-60 -1.5978613866724527e-43 -1.0677469771400208e-60 5.800098883295441 -4.810798811894811e-17 5.432120518964337e-44 3.452628302818262e-17 9.1101908402183" Properties=species:S:1:pos:R:3:spacegroup_kinds:I:1:forces:R:3 spacegroup="P 1" unit_cell=conventional occupancy="_JSON {\"0\": {\"In\": 1}, \"1\": {\"In\": 1}, \"2\": {\"In\": 1}, \"3\": {\"In\": 1}, \"4\": {\"In\": 1}, \"5\": {\"In\": 1}, \"6\": {\"In\": 1}, \"7\": {\"In\": 1}, \"8\": {\"O\": 1}, \"9\": {\"O\": 1}, \"10\": {\"O\": 1}, \"11\": {\"O\": 1}, \"12\": {\"O\": 1}, \"13\": {\"O\": 1}, \"14\": {\"O\": 1}, \"15\": {\"O\": 1}, \"16\": {\"O\": 1}, \"17\": {\"O\": 1}, \"18\": {\"O\": 1}, \"19\": {\"O\": 1}}" n_minim_iter=9 energy=-22573.529315528216 stress="0.06016873376492636 1.9521207130224608e-13 -5.411321884792171e-13 1.9521207130224608e-13 0.06023276142702666 -3.07365188242805e-13 -5.411321884792171e-13 -3.07365188242805e-13 0.06140107054269631" free_energy=-22573.529315528216 pbc="T T T"
In       1.34418170       3.06267296       1.12050668        0      -0.02392274      -0.02466724      -0.04998092
In       1.45247490       0.16262352       3.43458874        1       0.02392274      -0.02466724       0.04998092
In       1.45247490       2.73742592       5.67560211        2       0.02392274       0.02466724      -0.04998092
In       1.34418170       5.63747536       7.98968416        3      -0.02392274       0.02466724       0.04998092
In       4.24913151       2.73742592       7.98968416        4       0.02392274       0.02466724       0.04998092
In       4.14083831       5.63747536       5.67560211        5      -0.02392274       0.02466724      -0.04998092
In       4.14083831       3.06267296       3.43458874        6      -0.02392274      -0.02466724       0.04998092
In       4.24913151       0.16262352       1.12050668        7       0.02392274      -0.02466724      -0.04998092
O        2.19345770       3.48387855       7.60118180        8       0.06111178       0.03632366       0.00890215
O        0.60319890       0.58382911       6.06410446        9      -0.06111178       0.03632366      -0.00890215
O        0.60319890       2.31622033       3.04608638       10      -0.06111178      -0.03632366       0.00890215
O        2.19345770       5.21626977       1.50900904       11       0.06111178      -0.03632366      -0.00890215
O        3.39985550       2.31622033       1.50900904       12      -0.06111178      -0.03632366      -0.00890215
O        4.99011431       5.21626977       3.04608638       13       0.06111178      -0.03632366       0.00890215
O        4.99011431       3.48387855       6.06410446       14       0.06111178       0.03632366      -0.00890215
O        3.39985550       0.58382911       7.60118180       15      -0.06111178       0.03632366       0.00890215
O        5.34402253       4.35007416       0.00000000       16      -0.00312721      -0.00000000      -0.00000000
O        3.04594728       1.45002472       4.55509542       17       0.00312721      -0.00000000       0.00000000
O        0.24929068       1.45002472       0.00000000       18       0.00312721       0.00000000      -0.00000000
O        2.54736593       4.35007416       4.55509542       19      -0.00312721      -0.00000000       0.00000000
20