20
Lattice="5.167949875965979 2.5700338210293396e-60 -4.118508575713466e-43 -2.4643177413437867e-59 5.368268380498159 8.397052998034426e-17 4.744324291596601e-43 1.3753750282470187e-16 7.179320825161497" Properties=species:S:1:pos:R:3:spacegroup_kinds:I:1:forces:R:3 spacegroup="P 1" unit_cell=conventional occupancy="_JSON {\"0\": {\"In\": 1}, \"1\": {\"In\": 1}, \"2\": {\"In\": 1}, \"3\": {\"In\": 1}, \"4\": {\"In\": 1}, \"5\": {\"In\": 1}, \"6\": {\"In\": 1}, \"7\": {\"In\": 1}, \"8\": {\"O\": 1}, \"9\": {\"O\": 1}, \"10\": {\"O\": 1}, \"11\": {\"O\": 1}, \"12\": {\"O\": 1}, \"13\": {\"O\": 1}, \"14\": {\"O\": 1}, \"15\": {\"O\": 1}, \"16\": {\"O\": 1}, \"17\": {\"O\": 1}, \"18\": {\"O\": 1}, \"19\": {\"O\": 1}}" n_minim_iter=13 energy=-22567.358896727128 stress="-0.4057060428857474 -6.751704976095954e-13 1.024254265884834e-12 -6.751704976095954e-13 -0.40562566392735966 1.1166740326773535e-12 1.024254265884834e-12 1.1166740326773535e-12 -0.40565653189035145" free_energy=-22567.358896727128 pbc="T T T"
In       1.25032749       2.95033408       0.86714653        0      -0.00586546      -0.00129807      -0.00442312
In       1.33364745       0.26619989       2.72251389        1       0.00586546      -0.00129807       0.00442312
In       1.33364745       2.41793431       4.45680694        2       0.00586546       0.00129807      -0.00442312
In       1.25032749       5.10206850       6.31217430        3      -0.00586546       0.00129807       0.00442312
In       3.91762239       2.41793431       6.31217430        4       0.00586546       0.00129807       0.00442312
In       3.83430242       5.10206850       4.45680694        5      -0.00586546       0.00129807      -0.00442312
In       3.83430242       2.95033408       2.72251389        6      -0.00586546      -0.00129807       0.00442312
In       3.91762239       0.26619989       0.86714653        7       0.00586546      -0.00129807      -0.00442312
O        2.09377840       3.26050658       6.12055541        8      -0.00247263      -0.00133462       0.00170186
O        0.49019653       0.57637239       4.64842583        9       0.00247263      -0.00133462      -0.00170186
O        0.49019653       2.10776180       2.53089500       10       0.00247263       0.00133462       0.00170186
O        2.09377840       4.79189599       1.05876541       11      -0.00247263       0.00133462      -0.00170186
O        3.07417147       2.10776180       1.05876541       12       0.00247263       0.00133462      -0.00170186
O        4.67775334       4.79189599       2.53089500       13      -0.00247263       0.00133462       0.00170186
O        4.67775334       3.26050658       4.64842583       14      -0.00247263      -0.00133462      -0.00170186
O        3.07417147       0.57637239       6.12055541       15       0.00247263      -0.00133462       0.00170186
O        4.82266094       4.02620129       0.00000000       16      -0.00177203       0.00000000       0.00000000
O        2.92926388       1.34206710       3.58966041       17       0.00177203       0.00000000       0.00000000
O        0.34528894       1.34206710       0.00000000       18       0.00177203      -0.00000000      -0.00000000
O        2.23868600       4.02620129       3.58966041       19      -0.00177203      -0.00000000      -0.00000000
