20
Lattice="5.747488404700429 -2.9633351945722415e-60 5.481537697459401e-44 6.492350245594321e-60 5.947789892521461 -3.591950602930844e-16 -8.783363149239259e-44 5.561747582354168e-16 9.20951029451523" Properties=species:S:1:pos:R:3:spacegroup_kinds:I:1:forces:R:3 spacegroup="P 1" unit_cell=conventional occupancy="_JSON {\"0\": {\"In\": 1}, \"1\": {\"In\": 1}, \"2\": {\"In\": 1}, \"3\": {\"In\": 1}, \"4\": {\"In\": 1}, \"5\": {\"In\": 1}, \"6\": {\"In\": 1}, \"7\": {\"In\": 1}, \"8\": {\"O\": 1}, \"9\": {\"O\": 1}, \"10\": {\"O\": 1}, \"11\": {\"O\": 1}, \"12\": {\"O\": 1}, \"13\": {\"O\": 1}, \"14\": {\"O\": 1}, \"15\": {\"O\": 1}, \"16\": {\"O\": 1}, \"17\": {\"O\": 1}, \"18\": {\"O\": 1}, \"19\": {\"O\": 1}}" n_minim_iter=1 energy=-22571.8846564867 stress="0.11413853794184507 -7.774624786914191e-14 1.8548743512943863e-13 -7.774624786914191e-14 0.11595152566802895 -8.526294772277191e-15 1.8548743512943863e-13 -8.526294772277191e-15 0.11533428396146449" free_energy=-22571.8846564867 pbc="T T T"
In       1.37641683       3.16189437       1.14460493        0      -0.00863742       0.03476482       0.04442998
In       1.49732737       0.18799943       3.46015022        1       0.00863742       0.03476482      -0.04442998
In       1.49732737       2.78589552       5.74936007        2       0.00863742      -0.03476482       0.04442998
In       1.37641683       5.75979047       8.06490537        3      -0.00863742      -0.03476482      -0.04442998
In       4.37107158       2.78589552       8.06490537        4       0.00863742      -0.03476482      -0.04442998
In       4.25016103       5.75979047       5.74936007        5      -0.00863742      -0.03476482       0.04442998
In       4.25016103       3.16189437       3.46015022        6      -0.00863742       0.03476482      -0.04442998
In       4.37107158       0.18799943       1.14460493        7       0.00863742       0.03476482       0.04442998
O        2.28711679       3.59252063       7.67520903        8       0.04965110      -0.00124631      -0.01869405
O        0.58662741       0.61862568       6.13905642        9      -0.04965110      -0.00124631       0.01869405
O        0.58662741       2.35526926       3.07045388       10      -0.04965110       0.00124631      -0.01869405
O        2.28711679       5.32916421       1.53430127       11       0.04965110       0.00124631       0.01869405
O        3.46037162       2.35526926       1.53430127       12      -0.04965110       0.00124631       0.01869405
O        5.16086099       5.32916421       3.07045388       13       0.04965110       0.00124631      -0.01869405
O        5.16086099       3.59252063       6.13905642       14       0.04965110      -0.00124631       0.01869405
O        3.46037162       0.61862568       7.67520903       15      -0.04965110      -0.00124631      -0.01869405
O        5.47768779       4.46084242      -0.00000000       16       0.00494789       0.00000000      -0.00000000
O        3.14354481       1.48694747       4.60475515       17      -0.00494789      -0.00000000      -0.00000000
O        0.26980061       1.48694747       0.00000000       18      -0.00494789      -0.00000000       0.00000000
O        2.60394359       4.46084242       4.60475515       19       0.00494789       0.00000000      -0.00000000
20
Lattice="5.757952807427266 -3.0227060030351386e-60 7.200040249095471e-44 6.418420041152591e-60 5.939057335913186 -3.583539269577799e-16 -8.774929702137219e-44 5.56466094533497e-16 9.206289784021095" Properties=species:S:1:pos:R:3:spacegroup_kinds:I:1:forces:R:3 spacegroup="P 1" unit_cell=conventional occupancy="_JSON {\"0\": {\"In\": 1}, \"1\": {\"In\": 1}, \"2\": {\"In\": 1}, \"3\": {\"In\": 1}, \"4\": {\"In\": 1}, \"5\": {\"In\": 1}, \"6\": {\"In\": 1}, \"7\": {\"In\": 1}, \"8\": {\"O\": 1}, \"9\": {\"O\": 1}, \"10\": {\"O\": 1}, \"11\": {\"O\": 1}, \"12\": {\"O\": 1}, \"13\": {\"O\": 1}, \"14\": {\"O\": 1}, \"15\": {\"O\": 1}, \"16\": {\"O\": 1}, \"17\": {\"O\": 1}, \"18\": {\"O\": 1}, \"19\": {\"O\": 1}}" n_minim_iter=2 energy=-22571.885281575524 stress="0.11517608023092878 -5.212353421315314e-13 -2.5151585803357094e-13 -5.212353421315314e-13 0.11461399768581593 -7.220492974755712e-13 -2.5151585803357094e-13 -7.220492974755712e-13 0.1150641364500295" free_energy=-22571.885281575524 pbc="T T T"
In       1.37887301       3.15745206       1.14446054        0      -0.00073164       0.02871932       0.04534930
In       1.50010340       0.18792340       3.45868435        1       0.00073164       0.02871932      -0.04534930
In       1.50010340       2.78160527       5.74760543        2       0.00073164      -0.02871932       0.04534930
In       1.37887301       5.75113394       8.06182924        3      -0.00073164      -0.02871932      -0.04534930
In       4.37907980       2.78160527       8.06182924        4       0.00073164      -0.02871932      -0.04534930
In       4.25784941       5.75113394       5.74760543        5      -0.00073164      -0.02871932       0.04534930
In       4.25784941       3.15745206       3.45868435        6      -0.00073164       0.02871932      -0.04534930
In       4.37907980       0.18792340       1.14446054        7       0.00073164       0.02871932       0.04534930
O        2.29156749       3.58723891       7.67241739        8       0.05292530       0.00129538      -0.01387693
O        0.58740891       0.61771024       6.13701729        9      -0.05292530       0.00129538       0.01387693
O        0.58740891       2.35181842       3.06927250       10      -0.05292530      -0.00129538      -0.01387693
O        2.29156749       5.32134709       1.53387239       11       0.05292530      -0.00129538       0.01387693
O        3.46638532       2.35181842       1.53387239       12      -0.05292530      -0.00129538       0.01387693
O        5.17054389       5.32134709       3.06927250       13       0.05292530      -0.00129538      -0.01387693
O        5.17054389       3.58723891       6.13701729       14       0.05292530       0.00129538       0.01387693
O        3.46638532       0.61771024       7.67241739       15      -0.05292530       0.00129538      -0.01387693
O        5.48768953       4.45429300      -0.00000000       16       0.00123887      -0.00000000      -0.00000000
O        3.14923968       1.48476433       4.60314489       17      -0.00123887      -0.00000000      -0.00000000
O        0.27026328       1.48476433       0.00000000       18      -0.00123887      -0.00000000      -0.00000000
O        2.60871313       4.45429300       4.60314489       19       0.00123887       0.00000000      -0.00000000
20
Lattice="5.7632766617313145 1.4530682979705473e-60 1.3055286398378184e-43 3.6904925700548113e-60 5.946223706952268 -3.585122161355874e-16 -8.736836827517774e-44 5.557127141531304e-16 9.186700286414897" Properties=species:S:1:pos:R:3:spacegroup_kinds:I:1:forces:R:3 spacegroup="P 1" unit_cell=conventional occupancy="_JSON {\"0\": {\"In\": 1}, \"1\": {\"In\": 1}, \"2\": {\"In\": 1}, \"3\": {\"In\": 1}, \"4\": {\"In\": 1}, \"5\": {\"In\": 1}, \"6\": {\"In\": 1}, \"7\": {\"In\": 1}, \"8\": {\"O\": 1}, \"9\": {\"O\": 1}, \"10\": {\"O\": 1}, \"11\": {\"O\": 1}, \"12\": {\"O\": 1}, \"13\": {\"O\": 1}, \"14\": {\"O\": 1}, \"15\": {\"O\": 1}, \"16\": {\"O\": 1}, \"17\": {\"O\": 1}, \"18\": {\"O\": 1}, \"19\": {\"O\": 1}}" n_minim_iter=3 energy=-22571.886566528483 stress="0.11552362242058055 -4.0321494017781697e-13 2.494198483194564e-13 -4.0321494017781697e-13 0.11569571105265372 -8.500481025179388e-14 2.494198483194564e-13 -8.500481025179388e-14 0.11292513735107375" free_energy=-22571.886566528483 pbc="T T T"
In       1.38001618       3.16281362       1.14434841        0       0.00198658       0.03114359       0.01369611
In       1.50162215       0.18970177       3.44900173        1      -0.00198658       0.03114359      -0.01369611
In       1.50162215       2.78341009       5.73769855        2      -0.00198658      -0.03114359       0.01369611
In       1.38001618       5.75652194       8.04235188        3       0.00198658      -0.03114359      -0.01369611
In       4.38326049       2.78341009       8.04235188        4      -0.00198658      -0.03114359      -0.01369611
In       4.26165451       5.75652194       5.73769855        5       0.00198658      -0.03114359       0.01369611
In       4.26165451       3.16281362       3.44900173        6       0.00198658       0.03114359      -0.01369611
In       4.38326049       0.18970177       1.14434841        7      -0.00198658       0.03114359       0.01369611
O        2.29639013       3.59160414       7.65532066        8       0.05197285       0.00875184      -0.00606243
O        0.58524820       0.61849229       6.12472977        9      -0.05197285       0.00875184       0.00606243
O        0.58524820       2.35461957       3.06197051       10      -0.05197285      -0.00875184      -0.00606243
O        2.29639013       5.32773142       1.53137963       11       0.05197285      -0.00875184       0.00606243
O        3.46688653       2.35461957       1.53137963       12      -0.05197285      -0.00875184       0.00606243
O        5.17802847       5.32773142       3.06197051       13       0.05197285      -0.00875184      -0.00606243
O        5.17802847       3.59160414       6.12472977       14       0.05197285       0.00875184       0.00606243
O        3.46688653       0.61849229       7.65532066       15      -0.05197285       0.00875184      -0.00606243
O        5.49287172       4.45966778      -0.00000000       16       0.00944938       0.00000000      -0.00000000
O        3.15204327       1.48655593       4.59335014       17      -0.00944938       0.00000000       0.00000000
O        0.27040494       1.48655593       0.00000000       18      -0.00944938       0.00000000       0.00000000
O        2.61123339       4.45966778       4.59335014       19       0.00944938       0.00000000       0.00000000
20
Lattice="5.757481774400074 1.4998727049364656e-60 1.3048205400719546e-43 3.728854389079403e-60 5.940238312282725 -3.5801666919537993e-16 -8.782075323696861e-44 5.570344992034857e-16 9.205212523605265" Properties=species:S:1:pos:R:3:spacegroup_kinds:I:1:forces:R:3 spacegroup="P 1" unit_cell=conventional occupancy="_JSON {\"0\": {\"In\": 1}, \"1\": {\"In\": 1}, \"2\": {\"In\": 1}, \"3\": {\"In\": 1}, \"4\": {\"In\": 1}, \"5\": {\"In\": 1}, \"6\": {\"In\": 1}, \"7\": {\"In\": 1}, \"8\": {\"O\": 1}, \"9\": {\"O\": 1}, \"10\": {\"O\": 1}, \"11\": {\"O\": 1}, \"12\": {\"O\": 1}, \"13\": {\"O\": 1}, \"14\": {\"O\": 1}, \"15\": {\"O\": 1}, \"16\": {\"O\": 1}, \"17\": {\"O\": 1}, \"18\": {\"O\": 1}, \"19\": {\"O\": 1}}" n_minim_iter=4 energy=-22571.88975759082 stress="0.11334977064336009 1.770003066344464e-13 3.613623256198817e-13 1.770003066344464e-13 0.11334249814370621 -1.9944293454417605e-14 3.613623256198817e-13 -1.9944293454417605e-14 0.11382062331737366" free_energy=-22571.88975759082 pbc="T T T"
In       1.37828403       3.16446463       1.15344255        0      -0.02611471       0.02225145      -0.03510479
In       1.50045686       0.19434547       3.44916371        1       0.02611471       0.02225145       0.03510479
In       1.50045686       2.77577369       5.75604881        2       0.02611471      -0.02225145      -0.03510479
In       1.37828403       5.74589284       8.05176998        3      -0.02611471      -0.02225145       0.03510479
In       4.37919774       2.77577369       8.05176998        4       0.02611471      -0.02225145       0.03510479
In       4.25702492       5.74589284       5.75604881        5      -0.02611471      -0.02225145      -0.03510479
In       4.25702492       3.16446463       3.44916371        6      -0.02611471       0.02225145       0.03510479
In       4.37919774       0.19434547       1.15344255        7       0.02611471       0.02225145      -0.03510479
O        2.30247725       3.58821739       7.66847214        8       0.01026135       0.01021352       0.02185736
O        0.57626363       0.61809823       6.13934665        9      -0.01026135       0.01021352      -0.02185736
O        0.57626363       2.35202093       3.06586588       10      -0.01026135      -0.01021352       0.02185736
O        2.30247725       5.32214008       1.53674038       11       0.01026135      -0.01021352      -0.02185736
O        3.45500452       2.35202093       1.53674038       12      -0.01026135      -0.01021352      -0.02185736
O        5.18121814       5.32214008       3.06586588       13       0.01026135      -0.01021352       0.02185736
O        5.18121814       3.58821739       6.13934665       14       0.01026135       0.01021352      -0.02185736
O        3.45500452       0.61809823       7.66847214       15      -0.01026135       0.01021352       0.02185736
O        5.48779064       4.45517873      -0.00000000       16       0.01851501       0.00000000      -0.00000000
O        3.14843203       1.48505958       4.60260626       17      -0.01851501      -0.00000000      -0.00000000
O        0.26969114       1.48505958       0.00000000       18      -0.01851501      -0.00000000       0.00000000
O        2.60904975       4.45517873       4.60260626       19       0.01851501      -0.00000000       0.00000000
20
Lattice="5.7601831538335775 -9.229652822228485e-61 1.3049954183904267e-43 -5.675092540138772e-60 5.9433843355243505 -3.56022981106941e-16 1.1522964479658914e-43 5.59864350241713e-16 9.196025184997746" Properties=species:S:1:pos:R:3:spacegroup_kinds:I:1:forces:R:3 spacegroup="P 1" unit_cell=conventional occupancy="_JSON {\"0\": {\"In\": 1}, \"1\": {\"In\": 1}, \"2\": {\"In\": 1}, \"3\": {\"In\": 1}, \"4\": {\"In\": 1}, \"5\": {\"In\": 1}, \"6\": {\"In\": 1}, \"7\": {\"In\": 1}, \"8\": {\"O\": 1}, \"9\": {\"O\": 1}, \"10\": {\"O\": 1}, \"11\": {\"O\": 1}, \"12\": {\"O\": 1}, \"13\": {\"O\": 1}, \"14\": {\"O\": 1}, \"15\": {\"O\": 1}, \"16\": {\"O\": 1}, \"17\": {\"O\": 1}, \"18\": {\"O\": 1}, \"19\": {\"O\": 1}}" n_minim_iter=5 energy=-22571.89038876373 stress="0.11404020475429032 -5.732219293875688e-13 2.5303641544100114e-13 -5.732219293875688e-13 0.11400057594354267 -5.633420074977294e-13 2.5303641544100114e-13 -5.633420074977294e-13 0.11321439875378991" free_energy=-22571.89038876373 pbc="T T T"
In       1.37803320       3.16625188       1.14983006        0      -0.01294310       0.01668930      -0.00917266
In       1.50205838       0.19455971       3.44818253        1       0.01294310       0.01668930       0.00917266
In       1.50205838       2.77713246       5.74784266        2       0.01294310      -0.01668930      -0.00917266
In       1.37803320       5.74882462       8.04619512        3      -0.01294310      -0.01668930       0.00917266
In       4.38214995       2.77713246       8.04619512        4       0.01294310      -0.01668930       0.00917266
In       4.25812478       5.74882462       5.74784266        5      -0.01294310      -0.01668930      -0.00917266
In       4.25812478       3.16625188       3.44818253        6      -0.01294310       0.01668930       0.00917266
In       4.38214995       0.19455971       1.14983006        7       0.01294310       0.01668930      -0.00917266
O        2.30269629       3.59050316       7.66201147        8       0.01678713       0.00505032       0.00149688
O        0.57739529       0.61881099       6.13202630        9      -0.01678713       0.00505032      -0.00149688
O        0.57739529       2.35288118       3.06399888       10      -0.01678713      -0.00505032       0.00149688
O        2.30269629       5.32457334       1.53401371       11       0.01678713      -0.00505032      -0.00149688
O        3.45748686       2.35288118       1.53401371       12      -0.01678713      -0.00505032      -0.00149688
O        5.18278787       5.32457334       3.06399888       13       0.01678713      -0.00505032       0.00149688
O        5.18278787       3.59050316       6.13202630       14       0.01678713       0.00505032      -0.00149688
O        3.45748686       0.61881099       7.66201147       15      -0.01678713       0.00505032       0.00149688
O        5.49102573       4.45753825      -0.00000000       16       0.01900354      -0.00000000      -0.00000000
O        3.14924900       1.48584608       4.59801259       17      -0.01900354      -0.00000000      -0.00000000
O        0.26915742       1.48584608       0.00000000       18      -0.01900354      -0.00000000       0.00000000
O        2.61093416       4.45753825       4.59801259       19       0.01900354       0.00000000       0.00000000
20
Lattice="5.757321655521204 -9.448773215380233e-61 1.2086825738952068e-43 -5.680672751088787e-60 5.944777558425438 -3.5699916384756315e-16 1.1529098204464782e-43 5.586288339828088e-16 9.198439525228608" Properties=species:S:1:pos:R:3:spacegroup_kinds:I:1:forces:R:3 spacegroup="P 1" unit_cell=conventional occupancy="_JSON {\"0\": {\"In\": 1}, \"1\": {\"In\": 1}, \"2\": {\"In\": 1}, \"3\": {\"In\": 1}, \"4\": {\"In\": 1}, \"5\": {\"In\": 1}, \"6\": {\"In\": 1}, \"7\": {\"In\": 1}, \"8\": {\"O\": 1}, \"9\": {\"O\": 1}, \"10\": {\"O\": 1}, \"11\": {\"O\": 1}, \"12\": {\"O\": 1}, \"13\": {\"O\": 1}, \"14\": {\"O\": 1}, \"15\": {\"O\": 1}, \"16\": {\"O\": 1}, \"17\": {\"O\": 1}, \"18\": {\"O\": 1}, \"19\": {\"O\": 1}}" n_minim_iter=6 energy=-22571.891315966914 stress="0.11316922243115364 1.2741524221654077e-13 -5.818303655430014e-13 1.2741524221654077e-13 0.11315549262987602 -1.184202121643546e-13 -5.818303655430014e-13 -1.184202121643546e-13 0.11320937420067038" free_energy=-22571.891315966914 pbc="T T T"
In       1.37484763       3.17160613       1.15088645        0      -0.01139678      -0.00135235       0.00398205
In       1.50381320       0.19921735       3.44833332        1       0.01139678      -0.00135235      -0.00398205
In       1.50381320       2.77317143       5.75010621        2       0.01139678       0.00135235       0.00398205
In       1.37484763       5.74556021       8.04755308        3      -0.01139678       0.00135235      -0.00398205
In       4.38247403       2.77317143       8.04755308        4       0.01139678       0.00135235      -0.00398205
In       4.25350845       5.74556021       5.75010621        5      -0.01139678       0.00135235       0.00398205
In       4.25350845       3.17160613       3.44833332        6      -0.01139678      -0.00135235      -0.00398205
In       4.38247403       0.19921735       1.15088645        7       0.01139678      -0.00135235       0.00398205
O        2.30715656       3.59232747       7.66435636        8      -0.00793548      -0.00596392      -0.01456866
O        0.57150427       0.61993869       6.13330292        9       0.00793548      -0.00596392       0.01456866
O        0.57150427       2.35245009       3.06513660       10       0.00793548       0.00596392      -0.01456866
O        2.30715656       5.32483887       1.53408316       11      -0.00793548       0.00596392       0.01456866
O        3.45016510       2.35245009       1.53408316       12       0.00793548       0.00596392       0.01456866
O        5.18581739       5.32483887       3.06513660       13      -0.00793548       0.00596392      -0.01456866
O        5.18581739       3.59232747       6.13330292       14      -0.00793548      -0.00596392       0.01456866
O        3.45016510       0.61993869       7.66435636       15       0.00793548      -0.00596392      -0.01456866
O        5.49059173       4.45858317      -0.00000000       16       0.02633025       0.00000000       0.00000000
O        3.14539075       1.48619439       4.59921976       17      -0.02633025      -0.00000000      -0.00000000
O        0.26672992       1.48619439       0.00000000       18      -0.02633025      -0.00000000      -0.00000000
O        2.61193091       4.45858317       4.59921976       19       0.02633025       0.00000000       0.00000000
20
Lattice="5.754201887346023 -9.406141917495559e-61 -2.686176667536281e-43 5.477539660610109e-59 5.947745825531134 -3.5640221726481274e-16 -1.4450710426884134e-42 5.598561470336355e-16 9.198833624214261" Properties=species:S:1:pos:R:3:spacegroup_kinds:I:1:forces:R:3 spacegroup="P 1" unit_cell=conventional occupancy="_JSON {\"0\": {\"In\": 1}, \"1\": {\"In\": 1}, \"2\": {\"In\": 1}, \"3\": {\"In\": 1}, \"4\": {\"In\": 1}, \"5\": {\"In\": 1}, \"6\": {\"In\": 1}, \"7\": {\"In\": 1}, \"8\": {\"O\": 1}, \"9\": {\"O\": 1}, \"10\": {\"O\": 1}, \"11\": {\"O\": 1}, \"12\": {\"O\": 1}, \"13\": {\"O\": 1}, \"14\": {\"O\": 1}, \"15\": {\"O\": 1}, \"16\": {\"O\": 1}, \"17\": {\"O\": 1}, \"18\": {\"O\": 1}, \"19\": {\"O\": 1}}" n_minim_iter=7 energy=-22571.891850875527 stress="0.1129780031709931 -2.4736688399554246e-13 -2.812542876462789e-13 -2.4736688399554246e-13 0.11299452466686996 1.3219459688621522e-13 -2.812542876462789e-13 1.3219459688621522e-13 0.11291627876186394" free_energy=-22571.891850875527 pbc="T T T"
In       1.37097457       3.17507660       1.15161464        0       0.00621104       0.00049196      -0.00816823
In       1.50612637       0.20120369       3.44780217        1      -0.00621104       0.00049196       0.00816823
In       1.50612637       2.77266922       5.75103146        2      -0.00621104      -0.00049196      -0.00816823
In       1.37097457       5.74654214       8.04721898        3       0.00621104      -0.00049196       0.00816823
In       4.38322732       2.77266922       8.04721898        4      -0.00621104      -0.00049196       0.00816823
In       4.24807551       5.74654214       5.75103146        5       0.00621104      -0.00049196      -0.00816823
In       4.24807551       3.17507660       3.44780217        6       0.00621104       0.00049196       0.00816823
In       4.38322732       0.20120369       1.15161464        7      -0.00621104       0.00049196      -0.00816823
O        2.30703979       3.59363238       7.66254603        8       0.00189499      -0.00615199       0.00504842
O        0.57006116       0.61975947       6.13570441        9      -0.00189499      -0.00615199      -0.00504842
O        0.57006116       2.35411344       3.06312921       10      -0.00189499       0.00615199       0.00504842
O        2.30703979       5.32798636       1.53628760       11       0.00189499       0.00615199      -0.00504842
O        3.44716210       2.35411344       1.53628760       12      -0.00189499       0.00615199      -0.00504842
O        5.18414073       5.32798636       3.06312921       13       0.00189499       0.00615199       0.00504842
O        5.18414073       3.59363238       6.13570441       14       0.00189499      -0.00615199      -0.00504842
O        3.44716210       0.61975947       7.66254603       15      -0.00189499      -0.00615199       0.00504842
O        5.49316473       4.46080937      -0.00000000       16       0.01033001      -0.00000000      -0.00000000
O        3.13813810       1.48693646       4.59941681       17      -0.01033001       0.00000000      -0.00000000
O        0.26103715       1.48693646       0.00000000       18      -0.01033001       0.00000000       0.00000000
O        2.61606379       4.46080937       4.59941681       19       0.01033001       0.00000000      -0.00000000
20
Lattice="5.753846789412507 -9.376837466003212e-61 -2.6874151179660725e-43 5.599161196870283e-59 5.9478433274252405 -3.5640651807279786e-16 -1.4763679161669138e-42 5.598836759015007e-16 9.199250524996316" Properties=species:S:1:pos:R:3:spacegroup_kinds:I:1:forces:R:3 spacegroup="P 1" unit_cell=conventional occupancy="_JSON {\"0\": {\"In\": 1}, \"1\": {\"In\": 1}, \"2\": {\"In\": 1}, \"3\": {\"In\": 1}, \"4\": {\"In\": 1}, \"5\": {\"In\": 1}, \"6\": {\"In\": 1}, \"7\": {\"In\": 1}, \"8\": {\"O\": 1}, \"9\": {\"O\": 1}, \"10\": {\"O\": 1}, \"11\": {\"O\": 1}, \"12\": {\"O\": 1}, \"13\": {\"O\": 1}, \"14\": {\"O\": 1}, \"15\": {\"O\": 1}, \"16\": {\"O\": 1}, \"17\": {\"O\": 1}, \"18\": {\"O\": 1}, \"19\": {\"O\": 1}}" n_minim_iter=8 energy=-22571.89188731189 stress="0.11301347043533258 4.898623166978669e-13 1.3509721427417455e-12 4.898623166978669e-13 0.11301803577365295 -2.1223625581759272e-13 1.3509721427417455e-12 -2.1223625581759272e-13 0.11300775257371541" free_energy=-22571.89188731189 pbc="T T T"
In       1.37079714       3.17503691       1.15115379        0       0.00708809      -0.00007544      -0.00286297
In       1.50612626       0.20111524       3.44847147        1      -0.00708809      -0.00007544       0.00286297
In       1.50612626       2.77280642       5.75077905        2      -0.00708809       0.00007544      -0.00286297
In       1.37079714       5.74672809       8.04809674        3       0.00708809       0.00007544       0.00286297
In       4.38304965       2.77280642       8.04809674        4      -0.00708809       0.00007544       0.00286297
In       4.24772053       5.74672809       5.75077905        5       0.00708809       0.00007544      -0.00286297
In       4.24772053       3.17503691       3.44847147        6       0.00708809      -0.00007544       0.00286297
In       4.38304965       0.20111524       1.15115379        7      -0.00708809      -0.00007544      -0.00286297
O        2.30659280       3.59360127       7.66304212        8       0.00289533      -0.00713477       0.00240355
O        0.57033060       0.61967961       6.13583367        9      -0.00289533      -0.00713477      -0.00240355
O        0.57033060       2.35424206       3.06341685       10      -0.00289533       0.00713477       0.00240355
O        2.30659280       5.32816372       1.53620841       11       0.00289533       0.00713477      -0.00240355
O        3.44725399       2.35424206       1.53620841       12      -0.00289533       0.00713477      -0.00240355
O        5.18351619       5.32816372       3.06341685       13       0.00289533       0.00713477       0.00240355
O        5.18351619       3.59360127       6.13583367       14       0.00289533      -0.00713477      -0.00240355
O        3.44725399       0.61967961       7.66304212       15      -0.00289533      -0.00713477       0.00240355
O        5.49323530       4.46088250      -0.00000000       16       0.00808164      -0.00000000       0.00000000
O        3.13753489       1.48696083       4.59962526       17      -0.00808164      -0.00000000       0.00000000
O        0.26061149       1.48696083       0.00000000       18      -0.00808164       0.00000000       0.00000000
O        2.61631190       4.46088250       4.59962526       19       0.00808164       0.00000000      -0.00000000
