20
Lattice="5.590835500162608 -4.8915702802122885e-62 -9.301285826656474e-44 -2.792924078582958e-62 5.685908811737226 -4.669010549362128e-18 1.3450048271080306e-43 6.638692174758377e-18 8.084581933537624" Properties=species:S:1:pos:R:3:spacegroup_kinds:I:1:forces:R:3 spacegroup="P 1" unit_cell=conventional occupancy="_JSON {\"0\": {\"In\": 1}, \"1\": {\"In\": 1}, \"2\": {\"In\": 1}, \"3\": {\"In\": 1}, \"4\": {\"In\": 1}, \"5\": {\"In\": 1}, \"6\": {\"In\": 1}, \"7\": {\"In\": 1}, \"8\": {\"O\": 1}, \"9\": {\"O\": 1}, \"10\": {\"O\": 1}, \"11\": {\"O\": 1}, \"12\": {\"O\": 1}, \"13\": {\"O\": 1}, \"14\": {\"O\": 1}, \"15\": {\"O\": 1}, \"16\": {\"O\": 1}, \"17\": {\"O\": 1}, \"18\": {\"O\": 1}, \"19\": {\"O\": 1}}" n_minim_iter=1 energy=-22574.958223182948 stress="-0.0003506350917213313 8.933781879542694e-14 -2.291128063672746e-13 8.933781879542694e-14 -0.00015297022699436354 1.6689506143691517e-13 -2.291128063672746e-13 1.6689506143691517e-13 -6.98396887521806e-05" free_energy=-22574.958223182948 pbc="T T T"
In       1.38698178       3.00404580       0.92651898        0      -0.00083857      -0.00296404      -0.00661982
In       1.40843597       0.16109139       3.11577199        1       0.00083857      -0.00296404       0.00661982
In       1.40843597       2.68186301       4.96880994        2       0.00083857       0.00296404      -0.00661982
In       1.38698178       5.52481742       7.15806296        3      -0.00083857       0.00296404       0.00661982
In       4.20385372       2.68186301       7.15806296        4       0.00083857       0.00296404       0.00661982
In       4.18239953       5.52481742       4.96880994        5      -0.00083857       0.00296404      -0.00661982
In       4.18239953       3.00404580       3.11577199        6      -0.00083857      -0.00296404       0.00661982
In       4.20385372       0.16109139       0.92651898        7       0.00083857      -0.00296404      -0.00661982
O        2.18079632       3.43459676       6.86559673        8      -0.00605521      -0.00012085       0.00220337
O        0.61462143       0.59164235       5.26127617        9       0.00605521      -0.00012085      -0.00220337
O        0.61462143       2.25131205       2.82330576       10       0.00605521       0.00012085       0.00220337
O        2.18079632       5.09426646       1.21898521       11      -0.00605521       0.00012085      -0.00220337
O        3.41003918       2.25131205       1.21898521       12       0.00605521       0.00012085      -0.00220337
O        4.97621407       5.09426646       2.82330576       13      -0.00605521       0.00012085       0.00220337
O        4.97621407       3.43459676       5.26127617       14      -0.00605521      -0.00012085      -0.00220337
O        3.41003918       0.59164235       6.86559673       15       0.00605521      -0.00012085       0.00220337
O        5.35694727       4.26443161       0.00000000       16      -0.00069466       0.00000000      -0.00000000
O        3.02930598       1.42147720       4.04229097       17       0.00069466       0.00000000       0.00000000
O        0.23388823       1.42147720       0.00000000       18       0.00069466      -0.00000000      -0.00000000
O        2.56152952       4.26443161       4.04229097       19      -0.00069466       0.00000000      -0.00000000
