1
Lattice="4.990028931380149 -0.008741931642643712 -3.3378635953706704e-10 0.3366378690145596 4.9786685069931185 -1.0060819432979909e-09 -2.663333399968037 -2.484963287001537 3.410583208228317" Properties=species:S:1:pos:R:3:spacegroup_kinds:I:1:forces:R:3 spacegroup="P 1" unit_cell=conventional occupancy="_JSON {\"0\": {\"In\": 1}}" n_minim_iter=1 energy=-1969.863936602512 stress="0.010354415033039063 0.00039671378101300826 -9.735908129413706e-14 0.00039671378101300826 0.010299370089840373 -9.083750771421747e-14 -9.735908129413706e-14 -9.083750771421747e-14 0.00992922522497798" free_energy=-1969.863936602512 pbc="T T T"
In       0.00000000       0.00000000       0.00000000        0      -0.00000000       0.00000000      -0.00000000
