1
Lattice="5.027549354729173 -0.008807662920083321 -3.362961256506868e-10 0.3391690758541252 5.016103510410057 -1.0136467532330525e-09 -2.6833592150606074 -2.5036479230662203 3.4362276539017826" Properties=species:S:1:pos:R:3:spacegroup_kinds:I:1:forces:R:3 spacegroup="P 1" unit_cell=conventional occupancy="_JSON {\"0\": {\"In\": 1}}" n_minim_iter=1 energy=-1969.863936602512 stress="0.010354415033039063 0.00039671378101300826 -9.735908129413706e-14 0.00039671378101300826 0.010299370089840373 -9.083750771421747e-14 -9.735908129413706e-14 -9.083750771421747e-14 0.00992922522497798" free_energy=-1969.863936602512 pbc="T T T"
In       0.00000000       0.00000000       0.00000000        0      -0.00000000       0.00000000      -0.00000000
