1
Lattice="5.1368779898041135 -0.008999193564003416 -3.4361038494563694e-10 0.3465446160042916 5.125183245186184 -1.035689555322532e-09 -2.7417113026681372 -2.5580920251175647 3.5109515507153413" Properties=species:S:1:pos:R:3:spacegroup_kinds:I:1:forces:R:3 spacegroup="P 1" unit_cell=conventional occupancy="_JSON {\"0\": {\"In\": 1}}" n_minim_iter=1 energy=-1969.791904823223 stress="0.01575336427341037 -3.4535653238735376e-05 -5.356752695845884e-16 -3.4535653238735376e-05 0.01575815617417339 1.922267791959212e-14 -5.356752695845884e-16 1.922267791959212e-14 0.01579037888816324" free_energy=-1969.791904823223 pbc="T T T"
In       0.00000000       0.00000000       0.00000000        0       0.00000000       0.00000000       0.00000000
