1
Lattice="5.027549354729175 -0.008807662920082308 -3.3629645698849307e-10 0.3391690758541248 5.016103510410058 -1.0136482627827332e-09 -2.6833592150606083 -2.503647923066221 3.4362276539017844" Properties=species:S:1:pos:R:3:spacegroup_kinds:I:1:forces:R:3 spacegroup="P 1" unit_cell=conventional occupancy="_JSON {\"0\": {\"In\": 1}}" n_minim_iter=1 energy=-1969.8439888010064 stress="0.01110863652699829 -0.0004958071101873769 2.595420135050782e-13 -0.0004958071101873769 0.01117743089591341 -1.0189188904456564e-14 2.595420135050782e-13 -1.0189188904456564e-14 0.011640032561364947" free_energy=-1969.8439888010064 pbc="T T T"
In       0.00000000       0.00000000       0.00000000        0      -0.00000000       0.00000000      -0.00000000
