1
Lattice="4.7933636020382036 -0.008397397594999925 -3.2063230463250075e-10 0.3233704113927399 4.782450910847565 -9.66432437563433e-10 -2.5583670064951924 -2.387026755979133 3.2761664585224586" Properties=species:S:1:pos:R:3:spacegroup_kinds:I:1:forces:R:3 spacegroup="P 1" unit_cell=conventional occupancy="_JSON {\"0\": {\"In\": 1}}" n_minim_iter=1 energy=-1969.9371985141463 stress="0.0005979547321641895 0.005062101263826055 -1.3647207646296935e-12 0.005062101263826055 -0.00010442337904285258 -1.2733217388179948e-12 -1.3647207646296935e-12 -1.2733217388179948e-12 -0.004827503035192885" free_energy=-1969.9371985141463 pbc="T T T"
In       0.00000000       0.00000000       0.00000000        0       0.00000000      -0.00000000      -0.00000000
