10
Lattice="6.4843924245009585 0.15318016363350095 0.10576875050554899 3.686187160716655 5.336931093205522 0.10576875050554788 3.6861871607166554 1.989815571108673 4.953246865963866" Properties=species:S:1:pos:R:3:spacegroup_kinds:I:1:forces:R:3 spacegroup="P 1" unit_cell=conventional occupancy="_JSON {\"0\": {\"In\": 1}, \"1\": {\"In\": 1}, \"2\": {\"In\": 1}, \"3\": {\"In\": 1}, \"4\": {\"O\": 1}, \"5\": {\"O\": 1}, \"6\": {\"O\": 1}, \"7\": {\"O\": 1}, \"8\": {\"O\": 1}, \"9\": {\"O\": 1}}" n_minim_iter=1 energy=-11287.347129539552 stress="0.02625809925301124 -0.0030046679732585076 -0.002074681015038314 -0.0030046679732585076 0.03020239859522026 -0.0011199194197458915 -0.002074681015038314 -0.0011199194197458915 0.031051039314690068" free_energy=-11287.347129539552 pbc="T T T"
In      11.77535347       6.35637332       4.38898645        0      -0.05724708      -0.03090216      -0.02133750
In       9.00979666       4.86351694       3.35819010        1       0.05724708       0.03090216       0.02133750
In       4.84697010       2.61640990       1.80659427        2      -0.05724708      -0.03090216      -0.02133750
In       2.08141329       1.12355353       0.77579792        3       0.05724708       0.03090216       0.02133750
O        6.70638790       2.63566431       0.34609851        4      -0.00000000       0.06490021      -0.09399208
O        7.97339670       5.68224998       1.39696484        5      -0.05425690       0.10051238      -0.00000000
O        9.12556627       2.56335946       2.82272194        6       0.05425690      -0.03561216      -0.09399208
O        4.73120049       4.91656738       2.34206243        7      -0.05425690       0.03561216       0.09399208
O        7.15037885       4.84426253       4.81868586        8       0.00000000      -0.06490021       0.09399208
O        5.88337005       1.79767686       3.76781953        9       0.05425690      -0.10051238      -0.00000000
10
Lattice="6.503786604971974 0.17241105274364418 0.119047409204186 3.712906290396187 5.342592315801144 0.11904740920418493 3.7129062903961882 2.004238642419158 4.953836129983459" Properties=species:S:1:pos:R:3:spacegroup_kinds:I:1:forces:R:3 spacegroup="P 1" unit_cell=conventional occupancy="_JSON {\"0\": {\"In\": 1}, \"1\": {\"In\": 1}, \"2\": {\"In\": 1}, \"3\": {\"In\": 1}, \"4\": {\"O\": 1}, \"5\": {\"O\": 1}, \"6\": {\"O\": 1}, \"7\": {\"O\": 1}, \"8\": {\"O\": 1}, \"9\": {\"O\": 1}}" n_minim_iter=2 energy=-11287.350979170495 stress="0.026868332851481474 0.00012750384815273625 8.803961594513679e-05 0.00012750384815273625 0.02670095550571656 4.752406526974648e-05 8.803961594513679e-05 4.752406526974648e-05 0.02666494322122479" free_energy=-11287.350979170495 pbc="T T T"
In      11.83690342       6.38959817       4.41192775        0      -0.06917629      -0.03734158      -0.02578384
In       9.05749537       4.88926485       3.37596868        1       0.06917629       0.03734158       0.02578384
In       4.87210383       2.62997717       1.81596228        2      -0.06917629      -0.03734158      -0.02578384
In       2.09269578       1.12964385       0.78000320        3       0.06917629       0.03734158       0.02578384
O        6.73429310       2.65368982       0.36157918        4      -0.00000000       0.03856827      -0.05585671
O        8.01584754       5.70232760       1.41703015        5      -0.03224327       0.05973153      -0.00000000
O        9.16564496       2.59079373       2.83849724        6       0.03224327      -0.02116325      -0.05585671
O        4.76395424       4.92844829       2.35343371        7      -0.03224327       0.02116325       0.05585671
O        7.19530609       4.86555221       4.83035178        8       0.00000000      -0.03856827       0.05585671
O        5.91375166       1.81691442       3.77490080        9       0.03224327      -0.05973153       0.00000000
10
Lattice="6.5024316883385405 0.17107033855566375 0.11812166489706384 3.7110419742947607 5.3421952779045 0.1181216648970628 3.711041974294763 2.0032322786491306 4.953792845160308" Properties=species:S:1:pos:R:3:spacegroup_kinds:I:1:forces:R:3 spacegroup="P 1" unit_cell=conventional occupancy="_JSON {\"0\": {\"In\": 1}, \"1\": {\"In\": 1}, \"2\": {\"In\": 1}, \"3\": {\"In\": 1}, \"4\": {\"O\": 1}, \"5\": {\"O\": 1}, \"6\": {\"O\": 1}, \"7\": {\"O\": 1}, \"8\": {\"O\": 1}, \"9\": {\"O\": 1}}" n_minim_iter=3 energy=-11287.353631763217 stress="0.0257044708540184 0.0003462693954416663 0.00023909415228885354 0.0003462693954416663 0.02524991475565583 0.000129063784321336 0.00023909415228885354 0.000129063784321336 0.025152114161999865" free_energy=-11287.353631763217 pbc="T T T"
In      11.82735945       6.38444631       4.40837046        0      -0.02241217      -0.01209816      -0.00835361
In       9.05941401       4.89030054       3.37668381        1       0.02241217       0.01209816       0.00835361
In       4.86510163       2.62619736       1.81335237        2      -0.02241217      -0.01209816      -0.00835361
In       2.09715619       1.13205160       0.78166572        3       0.02241217       0.01209816       0.00835361
O        6.73234476       2.65541607       0.35617817        4      -0.00000000       0.00633234      -0.00917084
O        8.01038994       5.70554684       1.41563071        5      -0.00529387       0.00980703       0.00000000
O        9.16534156       2.58724265       2.83307459        6       0.00529387      -0.00347469      -0.00917084
O        4.75917409       4.92925526       2.35696159        7      -0.00529387       0.00347469       0.00917084
O        7.19217089       4.86108184       4.83385801        8       0.00000000      -0.00633234       0.00917084
O        5.91412571       1.81095106       3.77440547        9       0.00529387      -0.00980703      -0.00000000
10
Lattice="6.499346366282406 0.16801579860889868 0.1160125479861326 3.7067953800570055 5.341292026081189 0.11601254798613155 3.7067953800570073 2.00093995355275 4.953695461112349" Properties=species:S:1:pos:R:3:spacegroup_kinds:I:1:forces:R:3 spacegroup="P 1" unit_cell=conventional occupancy="_JSON {\"0\": {\"In\": 1}, \"1\": {\"In\": 1}, \"2\": {\"In\": 1}, \"3\": {\"In\": 1}, \"4\": {\"O\": 1}, \"5\": {\"O\": 1}, \"6\": {\"O\": 1}, \"7\": {\"O\": 1}, \"8\": {\"O\": 1}, \"9\": {\"O\": 1}}" n_minim_iter=4 energy=-11287.353874258206 stress="0.025116672507831197 -2.8167111064089437e-05 -1.944899424698837e-05 -2.8167111064089437e-05 0.02515364814724841 -1.049862899019111e-05 -1.944899424698837e-05 -1.049862899019111e-05 0.025161603687725895" free_energy=-11287.353874258206 pbc="T T T"
In      11.81554590       6.37806932       4.40396724        0      -0.00303138      -0.00163635      -0.00112987
In       9.05385980       4.88730236       3.37461360        1       0.00303138       0.00163635       0.00112987
In       4.85907734       2.62294543       1.81110696        2      -0.00303138      -0.00163635      -0.00112987
In       2.09739123       1.13217847       0.78175332        3       0.00303138       0.00163635       0.00112987
O        6.72790747       2.65365479       0.35212067        4       0.00000000      -0.00225755       0.00326951
O        8.00271870       5.70406292       1.41244269        5       0.00188732      -0.00349632      -0.00000000
O        9.15989162       2.58227770       2.82896840        6      -0.00188732       0.00123877       0.00326951
O        4.75304552       4.92797009       2.35675216        7       0.00188732      -0.00123877      -0.00326951
O        7.18502967       4.85659301       4.83359989        8      -0.00000000       0.00225755      -0.00326951
O        5.91021843       1.80618487       3.77327787        9      -0.00188732       0.00349632      -0.00000000
