10
Lattice="6.499346366282406 0.16801579860889868 0.1160125479861326 3.7067953800570055 5.341292026081189 0.11601254798613155 3.7067953800570073 2.00093995355275 4.953695461112349" Properties=species:S:1:pos:R:3:spacegroup_kinds:I:1:forces:R:3 spacegroup="P 1" unit_cell=conventional occupancy="_JSON {\"0\": {\"In\": 1}, \"1\": {\"In\": 1}, \"2\": {\"In\": 1}, \"3\": {\"In\": 1}, \"4\": {\"O\": 1}, \"5\": {\"O\": 1}, \"6\": {\"O\": 1}, \"7\": {\"O\": 1}, \"8\": {\"O\": 1}, \"9\": {\"O\": 1}}" n_minim_iter=4 energy=-11287.353874258206 stress="0.025116672507831197 -2.8167111064089437e-05 -1.944899424698837e-05 -2.8167111064089437e-05 0.02515364814724841 -1.049862899019111e-05 -1.944899424698837e-05 -1.049862899019111e-05 0.025161603687725895" free_energy=-11287.353874258206 pbc="T T T"
In      11.81554590       6.37806932       4.40396724        0      -0.00303138      -0.00163635      -0.00112987
In       9.05385980       4.88730236       3.37461360        1       0.00303138       0.00163635       0.00112987
In       4.85907734       2.62294543       1.81110696        2      -0.00303138      -0.00163635      -0.00112987
In       2.09739123       1.13217847       0.78175332        3       0.00303138       0.00163635       0.00112987
O        6.72790747       2.65365479       0.35212067        4       0.00000000      -0.00225755       0.00326951
O        8.00271870       5.70406292       1.41244269        5       0.00188732      -0.00349632      -0.00000000
O        9.15989162       2.58227770       2.82896840        6      -0.00188732       0.00123877       0.00326951
O        4.75304552       4.92797009       2.35675216        7       0.00188732      -0.00123877      -0.00326951
O        7.18502967       4.85659301       4.83359989        8      -0.00000000       0.00225755      -0.00326951
O        5.91021843       1.80618487       3.77327787        9      -0.00188732       0.00349632      -0.00000000
