10
Lattice="6.3274287974743775 0.1255413606428432 0.08668454542019137 3.576951612471568 5.220874733450054 0.08668454542018404 3.576951612471566 1.9308498742137838 4.851480800337201" Properties=species:S:1:pos:R:3:spacegroup_kinds:I:1:forces:R:3 spacegroup="P 1" unit_cell=conventional occupancy="_JSON {\"0\": {\"In\": 1}, \"1\": {\"In\": 1}, \"2\": {\"In\": 1}, \"3\": {\"In\": 1}, \"4\": {\"O\": 1}, \"5\": {\"O\": 1}, \"6\": {\"O\": 1}, \"7\": {\"O\": 1}, \"8\": {\"O\": 1}, \"9\": {\"O\": 1}}" n_minim_iter=1 energy=-11287.502585276798 stress="0.008560852402150177 -0.0017852201722055629 -0.0012326694430632701 -0.0017852201722055629 0.010904353517736833 -0.0006653988912141118 -0.0012326694430632701 -0.0006653988912141118 0.011408572467036655" free_energy=-11287.502585276798 pbc="T T T"
In      11.47391578       6.19365629       4.27663263        0      -0.05835605      -0.03150078      -0.02175085
In       8.74808227       4.72224268       3.26064221        1       0.05835605       0.03150078       0.02175085
In       4.73324976       2.55502330       1.76420769        2      -0.05835605      -0.03150078      -0.02175085
In       2.00741626       1.08360969       0.74821726        3       0.05835605       0.03150078       0.02175085
O        6.53404741       2.54548769       0.33878137        4       0.00000000       0.05403079      -0.07825038
O        7.76791708       5.51994742       1.34289702        5      -0.04517001       0.08367866       0.00000000
O        8.87712935       2.48348976       2.76452177        6       0.04517001      -0.02964787      -0.07825038
O        4.60420268       4.79377622       2.26032812        7      -0.04517001       0.02964787       0.07825038
O        6.94728462       4.73177829       4.68606852        8       0.00000000      -0.05403079       0.07825038
O        5.71341496       1.75731856       3.68195288        9       0.04517001      -0.08367866      -0.00000000
10
Lattice="6.34148551817236 0.13956997743580252 0.09637110818599824 3.5963928357789157 5.224928413533463 0.0963711081859909 3.5963928357789134 1.9413443084819664 4.851839506101471" Properties=species:S:1:pos:R:3:spacegroup_kinds:I:1:forces:R:3 spacegroup="P 1" unit_cell=conventional occupancy="_JSON {\"0\": {\"In\": 1}, \"1\": {\"In\": 1}, \"2\": {\"In\": 1}, \"3\": {\"In\": 1}, \"4\": {\"O\": 1}, \"5\": {\"O\": 1}, \"6\": {\"O\": 1}, \"7\": {\"O\": 1}, \"8\": {\"O\": 1}, \"9\": {\"O\": 1}}" n_minim_iter=2 energy=-11287.504352141248 stress="0.00935759791792439 0.00023050759581245162 0.00015916225555102434 0.00023050759581245162 0.009055005098478446 8.591629297208897e-05 0.00015916225555102434 8.591629297208897e-05 0.008989900356098382" free_energy=-11287.504352141248 pbc="T T T"
In      11.51850554       6.21772598       4.29325242        0      -0.05012730      -0.02705888      -0.01868377
In       8.78290125       4.74103808       3.27362017        1       0.05012730       0.02705888       0.01868377
In       4.75136995       2.56480464       1.77096156        2      -0.05012730      -0.02705888      -0.01868377
In       2.01576566       1.08811673       0.75132931        3       0.05012730       0.02705888       0.01868377
O        6.55431056       2.55877694       0.34981650        4      -0.00000000       0.03458623      -0.05008970
O        7.79862754       5.53478652       1.35751654        5      -0.02891426       0.05356445      -0.00000000
O        8.90638642       2.50337244       2.77573626        6       0.02891426      -0.01897822      -0.05008970
O        4.62788478       4.80247027       2.26884547        7      -0.02891426       0.01897822       0.05008970
O        6.97996064       4.74706577       4.69476522        8      -0.00000000      -0.03458623       0.05008970
O        5.73564366       1.77105619       3.68706519        9       0.02891426      -0.05356445      -0.00000000
10
Lattice="6.33700194608387 0.13510052765269787 0.093285015915348 3.5901961195251544 5.2236326096490835 0.09328501591534069 3.590196119525151 1.937999301309547 4.851721183549949" Properties=species:S:1:pos:R:3:spacegroup_kinds:I:1:forces:R:3 spacegroup="P 1" unit_cell=conventional occupancy="_JSON {\"0\": {\"In\": 1}, \"1\": {\"In\": 1}, \"2\": {\"In\": 1}, \"3\": {\"In\": 1}, \"4\": {\"O\": 1}, \"5\": {\"O\": 1}, \"6\": {\"O\": 1}, \"7\": {\"O\": 1}, \"8\": {\"O\": 1}, \"9\": {\"O\": 1}}" n_minim_iter=3 energy=-11287.506290862957 stress="0.008185001480306887 0.0001555406851859402 0.00010739865757448471 0.0001555406851859402 0.007980819511481016 5.797413816833059e-05 0.00010739865757448471 5.797413816833059e-05 0.007936888482160747" free_energy=-11287.506290862957 pbc="T T T"
In      11.50010297       6.20779222       4.28639329        0      -0.01603911      -0.00865796      -0.00597820
In       8.77598832       4.73730645       3.27104353        1       0.01603911       0.00865796       0.00597820
In       4.74140588       2.55942600       1.76724769        2      -0.01603911      -0.00865796      -0.00597820
In       2.01729122       1.08894023       0.75189793        3       0.01603911       0.00865796       0.00597820
O        6.54784952       2.55753249       0.34196816        4       0.00000000       0.00568123      -0.00822788
O        7.78633621       5.53468731       1.35285782        5      -0.00474954       0.00879865      -0.00000000
O        8.89955896       2.49539451       2.76782875        6       0.00474954      -0.00311742      -0.00822788
O        4.61783524       4.80133794       2.27046247        7      -0.00474954       0.00311742       0.00822788
O        6.96954467       4.73919996       4.69632306        8      -0.00000000      -0.00568123       0.00822788
O        5.73105799       1.76204514       3.68543340        9       0.00474954      -0.00879865      -0.00000000
10
Lattice="6.334650331367875 0.13275439307270306 0.09166504295567923 3.5869443569518076 5.22295402331964 0.0916650429556719 3.5869443569518054 1.9362439895144907 4.851660584055718" Properties=species:S:1:pos:R:3:spacegroup_kinds:I:1:forces:R:3 spacegroup="P 1" unit_cell=conventional occupancy="_JSON {\"0\": {\"In\": 1}, \"1\": {\"In\": 1}, \"2\": {\"In\": 1}, \"3\": {\"In\": 1}, \"4\": {\"O\": 1}, \"5\": {\"O\": 1}, \"6\": {\"O\": 1}, \"7\": {\"O\": 1}, \"8\": {\"O\": 1}, \"9\": {\"O\": 1}}" n_minim_iter=4 energy=-11287.50641939929 stress="0.007739975139323697 -5.6945731984355994e-06 -3.932023527560104e-06 -5.6945731984355994e-06 0.007747450542025078 -2.1225175041700922e-06 -3.932023527560104e-06 -2.1225175041700922e-06 0.007749058921274243" free_energy=-11287.50641939929 pbc="T T T"
In      11.49120690       6.20299009       4.28307749        0      -0.00459024      -0.00247782      -0.00171090
In       8.77160168       4.73493853       3.26940852        1       0.00459024       0.00247782       0.00171090
In       4.73693738       2.55701389       1.76558216        2      -0.00459024      -0.00247782      -0.00171090
In       2.01733215       1.08896233       0.75191318        3       0.00459024       0.00247782       0.00171090
O        6.54445993       2.55625024       0.33876048        4      -0.00000000      -0.00226099       0.00327450
O        7.78041298       5.53366158       1.35041271        5       0.00189020      -0.00350165       0.00000000
O        8.89545124       2.49155297       2.76459078        6      -0.00189020       0.00124066       0.00327450
O        4.61308781       4.80039945       2.27039990        7       0.00189020      -0.00124066      -0.00327450
O        6.96407912       4.73570218       4.69623019        8       0.00000000       0.00226099      -0.00327450
O        5.72812608       1.75829083       3.68457796        9      -0.00189020       0.00350165       0.00000000
