10
Lattice="5.93039419737034 0.0027910703976886937 0.0019271948895616604 3.256470199219694 4.956307594154323 0.0019271948895613835 3.256470199219694 1.7578529864986367 4.63410633885432" Properties=species:S:1:pos:R:3:spacegroup_kinds:I:1:forces:R:3 spacegroup="P 1" unit_cell=conventional occupancy="_JSON {\"0\": {\"In\": 1}, \"1\": {\"In\": 1}, \"2\": {\"In\": 1}, \"3\": {\"In\": 1}, \"4\": {\"O\": 1}, \"5\": {\"O\": 1}, \"6\": {\"O\": 1}, \"7\": {\"O\": 1}, \"8\": {\"O\": 1}, \"9\": {\"O\": 1}}" n_minim_iter=1 energy=-11287.674266830678 stress="0.007864761396482163 0.0016942747400701369 0.0011698728992580796 0.0016942747400701369 0.005640646519467791 0.0006315011169041763 0.0011698728992580796 0.0006315011169041763 0.005162114267323241" free_energy=-11287.674266830678 pbc="T T T"
In      10.66588857       5.75748063       3.97545947        0      -0.01201448      -0.00648545      -0.00447812
In       7.99911333       4.31794686       2.98148163        1       0.01201448       0.00648545       0.00447812
In       4.44422127       2.39900480       1.65647910        2      -0.01201448      -0.00648545      -0.00447812
In       1.77744604       0.95947103       0.66250127        3       0.01201448       0.00648545       0.00447812
O        6.07603075       2.33185809       0.21731419        4       0.00000000      -0.03221610       0.04665715
O        7.15983881       5.16735307       1.16141738        5       0.02693282      -0.04989379      -0.00000000
O        8.24869289       2.20221876       2.53436736        6      -0.02693282       0.01767768       0.04665715
O        4.19464171       4.51473290       2.10359337        7       0.02693282      -0.01767768      -0.04665715
O        6.36730385       4.38509358       4.42064654        8      -0.00000000       0.03221610      -0.04665715
O        5.28349579       1.54959860       3.47654335        9      -0.02693282       0.04989379       0.00000000
10
Lattice="5.917578126401593 -0.0104447374850346 -0.007211944464255985 3.238372539723364 4.9528560718613015 -0.0072119444642562884 3.2383725397233634 1.7480838122553473 4.634116773026674" Properties=species:S:1:pos:R:3:spacegroup_kinds:I:1:forces:R:3 spacegroup="P 1" unit_cell=conventional occupancy="_JSON {\"0\": {\"In\": 1}, \"1\": {\"In\": 1}, \"2\": {\"In\": 1}, \"3\": {\"In\": 1}, \"4\": {\"O\": 1}, \"5\": {\"O\": 1}, \"6\": {\"O\": 1}, \"7\": {\"O\": 1}, \"8\": {\"O\": 1}, \"9\": {\"O\": 1}}" n_minim_iter=2 energy=-11287.675564828045 stress="0.005368458368408623 -0.00010275217162828532 -7.094893142081552e-05 -0.00010275217162828532 0.005503343597724599 -3.8298459760430666e-05 -7.094893142081552e-05 -3.8298459760430666e-05 0.005532364997385982" free_energy=-11287.675564828045 pbc="T T T"
In      10.62376220       5.73474068       3.95975785        0       0.02188400       0.01181305       0.00815675
In       7.96772262       4.30100205       2.96978148        1      -0.02188400      -0.01181305      -0.00815675
In       4.42660060       2.38949311       1.64991141        2       0.02188400       0.01181305       0.00815675
In       1.77056101       0.95575448       0.65993504        3      -0.02188400      -0.01181305      -0.00815675
O        6.05736987       2.31959968       0.20676761        4      -0.00000000      -0.02776834       0.04021565
O        7.13131515       5.15390315       1.14771128        5       0.02321447      -0.04300544      -0.00000000
O        8.22179713       2.18356790       2.52382600        6      -0.02321447       0.01523710       0.04021565
O        4.17252608       4.50692726       2.09586689        7       0.02321447      -0.01523710      -0.04021565
O        6.33695335       4.37089548       4.41292528        8      -0.00000000       0.02776834      -0.04021565
O        5.26300807       1.53659201       3.47198161        9      -0.02321447       0.04300544      -0.00000000
10
Lattice="5.917036011271043 -0.011005661096877752 -0.007599254336150715 3.2376061343722484 4.952710651949061 -0.0075992543361510494 3.237606134372247 1.7476701042055558 4.634118012897639" Properties=species:S:1:pos:R:3:spacegroup_kinds:I:1:forces:R:3 spacegroup="P 1" unit_cell=conventional occupancy="_JSON {\"0\": {\"In\": 1}, \"1\": {\"In\": 1}, \"2\": {\"In\": 1}, \"3\": {\"In\": 1}, \"4\": {\"O\": 1}, \"5\": {\"O\": 1}, \"6\": {\"O\": 1}, \"7\": {\"O\": 1}, \"8\": {\"O\": 1}, \"9\": {\"O\": 1}}" n_minim_iter=3 energy=-11287.676155943476 stress="0.005213828899283488 2.9158816804081745e-06 2.0133759993041525e-06 2.9158816804081745e-06 0.00521000114974918 1.086824934441604e-06 2.0133759993041525e-06 1.086824934441604e-06 0.0052091775877001105" free_energy=-11287.676155943476 pbc="T T T"
In      10.62335482       5.73452078       3.95960601        0       0.00015951       0.00008610       0.00005945
In       7.96501761       4.29954188       2.96877325        1      -0.00015951      -0.00008610      -0.00005945
In       4.42723068       2.38983323       1.65014626        2       0.00015951       0.00008610       0.00005945
In       1.76889347       0.95485433       0.65931350        3      -0.00015951      -0.00008610      -0.00005945
O        6.05658008       2.31712372       0.20915472        4       0.00000000       0.00001080      -0.00001564
O        7.13174351       5.15030341       1.14713062        5      -0.00000903       0.00001672       0.00000000
O        8.21902279       2.18385164       2.52621372        6       0.00000903      -0.00000593      -0.00001564
O        4.17322550       4.50552347       2.09270578        7      -0.00000903       0.00000593       0.00001564
O        6.33566821       4.37225139       4.40976479        8      -0.00000000      -0.00001080       0.00001564
O        5.26050478       1.53907170       3.47178888        9       0.00000903      -0.00001672       0.00000000
