10
Lattice="5.330731060711369 -0.2555976672990493 -0.17648659761870433 2.7114076630667276 4.596769767328442 -0.1764865976186937 2.711407663066722 1.4636264932745808 4.3611050550460915" Properties=species:S:1:pos:R:3:spacegroup_kinds:I:1:forces:R:3 spacegroup="P 1" unit_cell=conventional occupancy="_JSON {\"0\": {\"In\": 1}, \"1\": {\"In\": 1}, \"2\": {\"In\": 1}, \"3\": {\"In\": 1}, \"4\": {\"O\": 1}, \"5\": {\"O\": 1}, \"6\": {\"O\": 1}, \"7\": {\"O\": 1}, \"8\": {\"O\": 1}, \"9\": {\"O\": 1}}" n_minim_iter=8 energy=-11287.448304948073 stress="0.02853690514130008 3.506146005018578e-05 2.420944602064887e-05 3.506146005018578e-05 0.028490879125036762 1.3068335304152137e-05 2.420944602064887e-05 1.3068335304152137e-05 0.02848097633877323" free_energy=-11287.448304948073 pbc="T T T"
In       9.34919499       5.04672524       3.48469286        0      -0.00041966      -0.00022653      -0.00015642
In       6.78112460       3.66047266       2.52750493        1       0.00041966       0.00022653       0.00015642
In       3.97242180       2.14432594       1.48062693        2      -0.00041966      -0.00022653      -0.00015642
In       1.40435140       0.75807336       0.52343900        3       0.00041966       0.00022653       0.00015642
O        5.35375213       2.00281174      -0.07017086        4      -0.00000000      -0.00038738       0.00056103
O        6.14146505       4.67400424       0.82554637        5       0.00032385      -0.00059995       0.00000000
O        7.27744688       1.68240645       2.11038166        6      -0.00032385       0.00021256       0.00056103
O        3.47609952       4.12239215       1.89775020        7       0.00032385      -0.00021256      -0.00056103
O        5.39979426       3.80198686       4.07830273        8       0.00000000       0.00038738      -0.00056103
O        4.61208135       1.13079437       3.18258549        9      -0.00032385       0.00059995      -0.00000000
