10
Lattice="6.008434168637046 -0.014588217462365449 -0.010072959164535124 3.2847632650044827 5.031085794121479 -0.010072959164542698 3.2847632650044782 1.77312567353226 4.708285364989904" Properties=species:S:1:pos:R:3:spacegroup_kinds:I:1:forces:R:3 spacegroup="P 1" unit_cell=conventional occupancy="_JSON {\"0\": {\"In\": 1}, \"1\": {\"In\": 1}, \"2\": {\"In\": 1}, \"3\": {\"In\": 1}, \"4\": {\"O\": 1}, \"5\": {\"O\": 1}, \"6\": {\"O\": 1}, \"7\": {\"O\": 1}, \"8\": {\"O\": 1}, \"9\": {\"O\": 1}}" n_minim_iter=5 energy=-11287.601069903212 stress="0.01713461449264061 3.225829115376694e-05 2.2273896363216387e-05 3.225829115376694e-05 0.017092268263712972 1.2023521569912842e-05 2.2273896363216387e-05 1.2023521569912842e-05 0.017083157207035272" free_energy=-11287.601069903212 pbc="T T T"
In      10.76614421       5.81159894       4.01282740        0      -0.00279296      -0.00150765      -0.00104101
In       8.10079685       4.37283594       3.01938177        1       0.00279296       0.00150765       0.00104101
In       4.47716386       2.41678732       1.66875768        2      -0.00279296      -0.00150765      -0.00104101
In       1.81181650       0.97802432       0.67531205        3       0.00279296       0.00150765       0.00104101
O        6.14870726       2.34713303       0.21546372        4      -0.00000000       0.00275910      -0.00399588
O        7.24181580       5.22319787       1.16196190        5      -0.00230662       0.00427308       0.00000000
O        8.34036199       2.21615260       2.56960640        6       0.00230662      -0.00151398      -0.00399588
O        4.23759872       4.57347067       2.11853305        7      -0.00230662       0.00151398       0.00399588
O        6.42925344       4.44249024       4.47267573        8      -0.00000000      -0.00275910       0.00399588
O        5.33614491       1.56642539       3.52617755        9       0.00230662      -0.00427308       0.00000000
