10
Lattice="6.054654709383092 -0.014700438929842038 -0.010150446510893233 3.310031667731394 5.06978797499214 -0.010150446510901892 3.3100316677313906 1.7867656378126655 4.744504368052705" Properties=species:S:1:pos:R:3:spacegroup_kinds:I:1:forces:R:3 spacegroup="P 1" unit_cell=conventional occupancy="_JSON {\"0\": {\"In\": 1}, \"1\": {\"In\": 1}, \"2\": {\"In\": 1}, \"3\": {\"In\": 1}, \"4\": {\"O\": 1}, \"5\": {\"O\": 1}, \"6\": {\"O\": 1}, \"7\": {\"O\": 1}, \"8\": {\"O\": 1}, \"9\": {\"O\": 1}}" n_minim_iter=1 energy=-11287.538165113643 stress="0.01914701482911339 -0.0017843686266462285 -0.001232081462368415 -0.0017843686266462285 0.02148939809935176 -0.0006650814976092454 -0.001232081462368415 -0.0006650814976092454 0.021993376538482413" free_energy=-11287.538165113643 pbc="T T T"
In      10.84896396       5.85630531       4.04369652        0      -0.10234227      -0.05524468      -0.03814568
In       8.16311312       4.40647447       3.04260870        1       0.10234227       0.05524468       0.03814568
In       4.51160494       2.43537872       1.68159478        2      -0.10234227      -0.05524468      -0.03814568
In       1.82575409       0.98554788       0.68050696        3       0.10234227       0.05524468       0.03814568
O        6.19600687       2.36518861       0.21712119        4      -0.00000000       0.00943664      -0.01366666
O        7.29752426       5.26337790       1.17090042        5      -0.00788908       0.01461473       0.00000000
O        8.40452115       2.23320059       2.58937338        6       0.00788908      -0.00517809      -0.01366667
O        4.27019691       4.60865259       2.13483010        7      -0.00788908       0.00517809       0.01366666
O        6.47871118       4.47666458       4.50708228        8       0.00000000      -0.00943664       0.01366667
O        5.37719379       1.57847529       3.55330306        9       0.00788908      -0.01461473       0.00000000
10
Lattice="6.076530155187144 0.007888395872143636 0.005446826502201978 3.34091958124414 5.07568096961852 0.005446826502193356 3.340919581244136 1.8034390319153049 4.7444888693547345" Properties=species:S:1:pos:R:3:spacegroup_kinds:I:1:forces:R:3 spacegroup="P 1" unit_cell=conventional occupancy="_JSON {\"0\": {\"In\": 1}, \"1\": {\"In\": 1}, \"2\": {\"In\": 1}, \"3\": {\"In\": 1}, \"4\": {\"O\": 1}, \"5\": {\"O\": 1}, \"6\": {\"O\": 1}, \"7\": {\"O\": 1}, \"8\": {\"O\": 1}, \"9\": {\"O\": 1}}" n_minim_iter=2 energy=-11287.541832717325 stress="0.018846947050123297 -0.0003093382037011156 -0.00021359368345885666 -0.0003093382037011156 0.019253022691297857 -0.00011529855149458224 -0.00021359368345885666 -0.00011529855149458224 0.0193403924105749" free_energy=-11287.541832717325 pbc="T T T"
In      10.91909384       5.89416164       4.06983579        0      -0.13237924      -0.07145874      -0.04934125
In       8.21846014       4.43635097       3.06323800        1       0.13237924       0.07145874       0.04934125
In       4.53990919       2.45065744       1.69214453        2      -0.13237924      -0.07145874      -0.04934125
In       1.83927548       0.99284677       0.68554674        3       0.13237924       0.07145874       0.04934125
O        6.22785741       2.38573215       0.23566857        4      -0.00000000       0.00708400      -0.01025944
O        7.34652394       5.28574872       1.19429246        5      -0.00592226       0.01097115      -0.00000000
O        8.45011046       2.26523973       2.60791300        6       0.00592226      -0.00388715      -0.01025944
O        4.30825887       4.62176868       2.14746952        7      -0.00592226       0.00388715       0.01025944
O        6.53051192       4.50127626       4.51971396        8      -0.00000000      -0.00708400       0.01025944
O        5.41184538       1.60125969       3.56109007        9       0.00592226      -0.01097115      -0.00000000
10
Lattice="6.1519261708436535 0.08473656671609087 0.05850940860159669 3.446536476081266 5.096544144446428 0.05850940860158821 3.4465364760812633 1.8604513681739463 4.745198233356094" Properties=species:S:1:pos:R:3:spacegroup_kinds:I:1:forces:R:3 spacegroup="P 1" unit_cell=conventional occupancy="_JSON {\"0\": {\"In\": 1}, \"1\": {\"In\": 1}, \"2\": {\"In\": 1}, \"3\": {\"In\": 1}, \"4\": {\"O\": 1}, \"5\": {\"O\": 1}, \"6\": {\"O\": 1}, \"7\": {\"O\": 1}, \"8\": {\"O\": 1}, \"9\": {\"O\": 1}}" n_minim_iter=3 energy=-11287.54923101209 stress="0.011954892931746354 0.002067746716051904 0.0014277500519621134 0.002067746716051904 0.009240512480085318 0.0007707040257628809 0.0014277500519621134 0.0007707040257628809 0.00865649651634794" free_energy=-11287.54923101209 pbc="T T T"
In      11.14617452       6.01674052       4.15447478        0      -0.16925553      -0.09136468      -0.06308602
In       8.42132417       4.54585762       3.13885080        1       0.16925553       0.09136468       0.06308602
In       4.62367496       2.49587448       1.72336625        2      -0.16925553      -0.09136468      -0.06308602
In       1.89882461       1.02499158       0.70774228        3       0.16925553       0.09136468       0.06308602
O        6.33721287       2.45658567       0.29796224        4       0.00000000      -0.04035119       0.05843883
O        7.51391412       5.36360351       1.27406367        5       0.03373379      -0.06249277       0.00000000
O        8.60704810       2.37428123       2.67056135        6      -0.03373379       0.02214158       0.05843883
O        4.43795104       4.66745086       2.19165570        7       0.03373379      -0.02214158      -0.05843883
O        6.70778626       4.58514642       4.56425482        8       0.00000000       0.04035119      -0.05843883
O        5.53108501       1.67812858       3.58815338        9      -0.03373379       0.06249277      -0.00000000
10
Lattice="6.166847777479502 0.09976800109344061 0.0688884028178607 3.4672906416970455 5.100770605569917 0.06888840281785218 3.4672906416970424 1.8716545328823866 4.745473178960106" Properties=species:S:1:pos:R:3:spacegroup_kinds:I:1:forces:R:3 spacegroup="P 1" unit_cell=conventional occupancy="_JSON {\"0\": {\"In\": 1}, \"1\": {\"In\": 1}, \"2\": {\"In\": 1}, \"3\": {\"In\": 1}, \"4\": {\"O\": 1}, \"5\": {\"O\": 1}, \"6\": {\"O\": 1}, \"7\": {\"O\": 1}, \"8\": {\"O\": 1}, \"9\": {\"O\": 1}}" n_minim_iter=4 energy=-11287.561926472956 stress="0.006043386743365719 0.0005014709640617476 0.0003462586544844757 0.0005014709640617476 0.005385093844343168 0.00018691152499143067 0.0003462586544844757 0.00018691152499143067 0.00524345800088509" free_energy=-11287.561926472956 pbc="T T T"
In      11.16256310       6.02558712       4.16058323        0       0.02906060       0.01568700       0.01083166
In       8.48958050       4.58270260       3.16429175        1      -0.02906060      -0.01568700      -0.01083166
In       4.61184857       2.48949055       1.71895824        2       0.02906060       0.01568700       0.01083166
In       1.93886597       1.04660603       0.72266675        3      -0.02906060      -0.01568700      -0.01083166
O        6.35878116       2.46908440       0.31222215        4       0.00000000      -0.05417940       0.07846561
O        7.54806007       5.37677108       1.28970090        5       0.04529425      -0.08390883       0.00000000
O        8.63679289       2.39645817       2.68495874        6      -0.04529425       0.02972942       0.07846561
O        4.46463619       4.67573498       2.19829125        7       0.04529425      -0.02972942      -0.07846561
O        6.74264791       4.60310876       4.57102784        8       0.00000000       0.05417940      -0.07846561
O        5.55336900       1.69542207       3.59354909        9      -0.04529425       0.08390883      -0.00000000
10
Lattice="6.149619919982001 0.08240824284128032 0.05690173368358202 3.4433244954841404 5.095893709402358 0.05690173368357343 3.443324495484137 1.8587175308163724 4.7451596016845015" Properties=species:S:1:pos:R:3:spacegroup_kinds:I:1:forces:R:3 spacegroup="P 1" unit_cell=conventional occupancy="_JSON {\"0\": {\"In\": 1}, \"1\": {\"In\": 1}, \"2\": {\"In\": 1}, \"3\": {\"In\": 1}, \"4\": {\"O\": 1}, \"5\": {\"O\": 1}, \"6\": {\"O\": 1}, \"7\": {\"O\": 1}, \"8\": {\"O\": 1}, \"9\": {\"O\": 1}}" n_minim_iter=5 energy=-11287.563009814638 stress="0.006694241145243389 -0.00031589001354345134 -0.00021811761504229827 -0.00031589001354345134 0.007108917502613762 -0.00011774058210186624 -0.00021811761504229827 -0.00011774058210186624 0.007198137719622669" free_energy=-11287.563009814638 pbc="T T T"
In      11.11193701       5.99825900       4.14171355        0       0.01069379       0.00577254       0.00398586
In       8.44246636       4.55727024       3.14673106        1      -0.01069379      -0.00577254      -0.00398586
In       4.59380256       2.47974926       1.71223201        2       0.01069379       0.00577254       0.00398586
In       1.92433191       1.03876050       0.71724952        3      -0.01069379      -0.00577254      -0.00398586
O        6.33387719       2.45276537       0.29848541        4       0.00000000      -0.03549763       0.05140964
O        7.51020806       5.35864698       1.27164250        5       0.02967620      -0.05497596       0.00000000
O        8.60087082       2.37188301       2.67106521        6      -0.02967620       0.01947833       0.05140964
O        4.43539810       4.66513649       2.18789786        7       0.02967620      -0.01947833      -0.05140964
O        6.70239173       4.58425412       4.56047766        8      -0.00000000       0.03549763      -0.05140964
O        5.52606086       1.67837251       3.58732057        9      -0.02967620       0.05497596       0.00000000
10
Lattice="6.159745838191428 0.09262088980706734 0.06395342290562782 3.4574186317940585 5.098755125015185 0.06395342290561935 3.4574186317940545 1.8663255904910612 4.745336938031712" Properties=species:S:1:pos:R:3:spacegroup_kinds:I:1:forces:R:3 spacegroup="P 1" unit_cell=conventional occupancy="_JSON {\"0\": {\"In\": 1}, \"1\": {\"In\": 1}, \"2\": {\"In\": 1}, \"3\": {\"In\": 1}, \"4\": {\"O\": 1}, \"5\": {\"O\": 1}, \"6\": {\"O\": 1}, \"7\": {\"O\": 1}, \"8\": {\"O\": 1}, \"9\": {\"O\": 1}}" n_minim_iter=6 energy=-11287.563934881233 stress="0.007180837703648636 0.00022926691799869968 0.00015830558584226402 0.00022926691799869968 0.006879873551215117 8.54538593978494e-05 0.00015830558584226402 8.54538593978494e-05 0.006815119225780441" free_energy=-11287.563934881233 pbc="T T T"
In      11.14657073       6.01695439       4.15462245        0      -0.02098634      -0.01132849      -0.00782217
In       8.46530394       4.56959803       3.15524323        1       0.02098634       0.01132849       0.00782217
In       4.60927918       2.48810358       1.71800056        2      -0.02098634      -0.01132849      -0.00782217
In       1.92801239       1.04074723       0.71862134        3       0.02098634       0.01132849       0.00782217
O        6.34851870       2.45999628       0.30999274        4      -0.00000000      -0.01279328       0.01852793
O        7.53444306       5.36563722       1.28226437        5       0.01069524      -0.01981322      -0.00000000
O        8.62001297       2.38763527       2.68266121        6      -0.01069524       0.00701995       0.01852793
O        4.45457014       4.67006635       2.19058258        7       0.01069524      -0.00701995      -0.01852793
O        6.72606441       4.59770534       4.56325105        8       0.00000000       0.01279328      -0.01852793
O        5.54014005       1.69206439       3.59097942        9      -0.01069524       0.01981322      -0.00000000
10
Lattice="6.160742818616936 0.09362498731959519 0.06464673812847808 3.4588051272598768 5.0990376353809745 0.06464673812846952 3.458805127259872 1.8670740251599673 4.7453554758685055" Properties=species:S:1:pos:R:3:spacegroup_kinds:I:1:forces:R:3 spacegroup="P 1" unit_cell=conventional occupancy="_JSON {\"0\": {\"In\": 1}, \"1\": {\"In\": 1}, \"2\": {\"In\": 1}, \"3\": {\"In\": 1}, \"4\": {\"O\": 1}, \"5\": {\"O\": 1}, \"6\": {\"O\": 1}, \"7\": {\"O\": 1}, \"8\": {\"O\": 1}, \"9\": {\"O\": 1}}" n_minim_iter=7 energy=-11287.564257551767 stress="0.00680804086133086 5.46125886446119e-05 3.770922519224442e-05 5.46125886446119e-05 0.006736349612023562 2.0355560351399295e-05 3.770922519224442e-05 2.0355560351399295e-05 0.006720924791545231" free_energy=-11287.564257551767 pbc="T T T"
In      11.14724210       6.01731679       4.15487269        0      -0.00598476      -0.00323059      -0.00223068
In       8.47028752       4.57228819       3.15710074        1       0.00598476       0.00323059       0.00223068
In       4.60806556       2.48744847       1.71754821        2      -0.00598476      -0.00323059      -0.00223068
In       1.93111099       1.04241986       0.71977627        3       0.00598476       0.00323059       0.00223068
O        6.34995968       2.45997112       0.31219104        4      -0.00000000      -0.00343022       0.00496784
O        7.53744337       5.36518485       1.28330898        5       0.00286768      -0.00531246      -0.00000000
O        8.62128112       2.38958875       2.68486878        6      -0.00286768       0.00188224       0.00496784
O        4.45707196       4.67014791       2.18978017        7       0.00286768      -0.00188224      -0.00496784
O        6.72839340       4.59976554       4.56245791        8      -0.00000000       0.00343022      -0.00496784
O        5.54090971       1.69455181       3.59133998        9      -0.00286768       0.00531246      -0.00000000
