10
Lattice="5.7964381783909795 0.017501238914361113 0.012084359543450388 3.1952633794446026 4.836247903618292 0.012084359543452609 3.195263379444599 1.724813350219599 4.5182362403821" Properties=species:S:1:pos:R:3:spacegroup_kinds:I:1:forces:R:3 spacegroup="P 1" unit_cell=conventional occupancy="_JSON {\"0\": {\"In\": 1}, \"1\": {\"In\": 1}, \"2\": {\"In\": 1}, \"3\": {\"In\": 1}, \"4\": {\"O\": 1}, \"5\": {\"O\": 1}, \"6\": {\"O\": 1}, \"7\": {\"O\": 1}, \"8\": {\"O\": 1}, \"9\": {\"O\": 1}}" n_minim_iter=1 energy=-11287.649060896676 stress="-0.01352553659206139 -0.0010505018364421333 -0.0007253567565406754 -0.0010505018364421333 -0.012146517766208854 -0.00039154988731392854 -0.0007253567565406754 -0.00039154988731392854 -0.011849813225326045" free_energy=-11287.649060896676 pbc="T T T"
In      10.44367826       5.63753079       3.89263579        0      -0.01818076      -0.00981403      -0.00677645
In       7.83676916       4.23031296       2.92097165        1       0.01818076       0.00981403       0.00677645
In       4.35019579       2.34824955       1.62143331        2      -0.01818076      -0.00981403      -0.00677645
In       1.74328669       0.94103171       0.64976917        3       0.01818076       0.00981403       0.00677645
O        5.94496033       2.28944142       0.22048033        4       0.00000000       0.05628239      -0.08151127
O        7.01085091       5.05657999       1.14768560        5      -0.04705236       0.08716576      -0.00000000
O        8.07433313       2.16678330       2.47959845        6       0.04705236      -0.03088338      -0.08151127
O        4.11263182       4.41177920       2.06280651        7      -0.04705236       0.03088338       0.08151127
O        6.24200462       4.28912109       4.32192463        8      -0.00000000      -0.05628239       0.08151127
O        5.17611404       1.52198251       3.39471936        9       0.04705236      -0.08716576       0.00000000
10
Lattice="5.807150325367179 0.028482641596619833 0.01966686378518617 3.2103218758971592 4.839177576347098 0.01966686378518839 3.2103218758971557 1.7329419745710974 4.518289334883431" Properties=species:S:1:pos:R:3:spacegroup_kinds:I:1:forces:R:3 spacegroup="P 1" unit_cell=conventional occupancy="_JSON {\"0\": {\"In\": 1}, \"1\": {\"In\": 1}, \"2\": {\"In\": 1}, \"3\": {\"In\": 1}, \"4\": {\"O\": 1}, \"5\": {\"O\": 1}, \"6\": {\"O\": 1}, \"7\": {\"O\": 1}, \"8\": {\"O\": 1}, \"9\": {\"O\": 1}}" n_minim_iter=2 energy=-11287.650244402093 stress="-0.01159500651884018 0.0003561155809619507 0.0002458928038052665 0.0003561155809619507 -0.012062487939829936 0.00013273371836591713 0.0002458928038052665 0.00013273371836591713 -0.012163069494766934" free_energy=-11287.650244402093 pbc="T T T"
In      10.47840639       5.65627715       3.90557989        0      -0.03927635      -0.02120150      -0.01463934
In       7.86328473       4.24462615       2.93085471        1       0.03927635       0.02120150       0.01463934
In       4.36450935       2.35597605       1.62676836        2      -0.03927635      -0.02120150      -0.01463934
In       1.74938770       0.94432505       0.65204318        3       0.03927635       0.02120150       0.01463934
O        5.96052369       2.30018195       0.22845280        4       0.00000000       0.04700727      -0.06807854
O        7.03416095       5.06864264       1.15907263        5      -0.03929831       0.07280119       0.00000000
O        8.09720829       2.18199096       2.48759746        6       0.03929831      -0.02579392      -0.06807854
O        4.13058579       4.41861124       2.07002560        7      -0.03929831       0.02579392       0.06807854
O        6.26727040       4.30042026       4.32917027        8       0.00000000      -0.04700727       0.06807854
O        5.19363313       1.53195957       3.39855044        9       0.03929831      -0.07280119       0.00000000
10
Lattice="5.810562819266396 0.03197397417792164 0.02207757987246713 3.215113157292689 4.8401146678017 0.02207757987246934 3.215113157292686 1.7355283235302568 4.5183115048905655" Properties=species:S:1:pos:R:3:spacegroup_kinds:I:1:forces:R:3 spacegroup="P 1" unit_cell=conventional occupancy="_JSON {\"0\": {\"In\": 1}, \"1\": {\"In\": 1}, \"2\": {\"In\": 1}, \"3\": {\"In\": 1}, \"4\": {\"O\": 1}, \"5\": {\"O\": 1}, \"6\": {\"O\": 1}, \"7\": {\"O\": 1}, \"8\": {\"O\": 1}, \"9\": {\"O\": 1}}" n_minim_iter=3 energy=-11287.651515552867 stress="-0.010424328591081458 0.0003222706791124716 0.0002225233748731873 0.0003222706791124716 -0.010847381000627272 0.00012011882606062667 0.0002225233748731873 0.00012011882606062667 -0.010938403377971185" free_energy=-11287.651515552867 pbc="T T T"
In      10.48781858       5.66135788       3.90908806        0       0.00682618       0.00368479       0.00254430
In       7.87336513       4.25006758       2.93461194        1      -0.00682618      -0.00368479      -0.00254430
In       4.36742402       2.35754940       1.62785473        2       0.00682618       0.00368479       0.00254430
In       1.75297056       0.94625910       0.65337861        3      -0.00682618      -0.00368479      -0.00254430
O        5.96547870       2.30595959       0.22756953        4      -0.00000000       0.00346898      -0.00502397
O        7.03960695       5.07613896       1.16269425        5      -0.00290008       0.00537248       0.00000000
O        8.10646360       2.18553335       2.48672528        6       0.00290008      -0.00190350      -0.00502397
O        4.13432554       4.42208362       2.07574139        7      -0.00290008       0.00190350       0.00502397
O        6.27531045       4.30165739       4.33489714        8       0.00000000      -0.00346898       0.00502397
O        5.20118219       1.53147801       3.39977242        9       0.00290008      -0.00537248       0.00000000
