10
Lattice="5.193609852646368 -0.22057770309642574 -0.15230580443635117 2.665443125343745 4.462919534359371 -0.15230580443633512 2.6654431253437405 1.438814689399096 4.227370354937085" Properties=species:S:1:pos:R:3:spacegroup_kinds:I:1:forces:R:3 spacegroup="P 1" unit_cell=conventional occupancy="_JSON {\"0\": {\"In\": 1}, \"1\": {\"In\": 1}, \"2\": {\"In\": 1}, \"3\": {\"In\": 1}, \"4\": {\"O\": 1}, \"5\": {\"O\": 1}, \"6\": {\"O\": 1}, \"7\": {\"O\": 1}, \"8\": {\"O\": 1}, \"9\": {\"O\": 1}}" n_minim_iter=5 energy=-11287.62126843892 stress="-0.021528431662020172 -0.00013282108638358313 -9.171109289367674e-05 -0.00013282108638358313 -0.02135407425606187 -4.9505939789130544e-05 -9.171109289367674e-05 -4.9505939789130544e-05 -0.021316560166095032" free_energy=-11287.62126843892 pbc="T T T"
In       9.15345199       4.94106255       3.41173425        0       0.00325236       0.00175563       0.00121224
In       6.63329215       3.58067224       2.47240386        1      -0.00325236      -0.00175563      -0.00121224
In       3.89120394       2.10048428       1.45035488        2       0.00325236       0.00175563       0.00121224
In       1.37104410       0.74009397       0.51102449        3      -0.00325236      -0.00175563      -0.00121224
O        5.22792895       1.96512701      -0.04425404        4      -0.00000000      -0.00236762       0.00342892
O        6.01296129       4.55606913       0.82838388        5       0.00197935      -0.00366679       0.00000000
O        7.10833972       1.66992527       2.06943113        6      -0.00197935       0.00129917       0.00342892
O        3.41615637       4.01123125       1.85332761        7       0.00197935      -0.00129917      -0.00342892
O        5.29656714       3.71602951       3.96701279        8      -0.00000000       0.00236762      -0.00342892
O        4.51153480       1.12508739       3.09437486        9      -0.00197935       0.00366679      -0.00000000
