10
Lattice="6.207065932546247 0.09432896102567262 0.0651328220803061 3.4848121573675406 5.137377703822037 0.065132822080299 3.4848121573675357 1.8811127028532721 4.781036180097783" Properties=species:S:1:pos:R:3:spacegroup_kinds:I:1:forces:R:3 spacegroup="P 1" unit_cell=conventional occupancy="_JSON {\"0\": {\"In\": 1}, \"1\": {\"In\": 1}, \"2\": {\"In\": 1}, \"3\": {\"In\": 1}, \"4\": {\"O\": 1}, \"5\": {\"O\": 1}, \"6\": {\"O\": 1}, \"7\": {\"O\": 1}, \"8\": {\"O\": 1}, \"9\": {\"O\": 1}}" n_minim_iter=1 energy=-11287.540723081276 stress="0.00606055890647778 -0.001521066048998651 -0.0010502747334801157 -0.001521066048998651 0.008057298600752104 -0.0005669416469665865 -0.0010502747334801157 -0.0005669416469665865 0.008486909660062214" free_energy=-11287.540723081276 pbc="T T T"
In      11.23105909       6.06256148       4.18611351        0      -0.07092741      -0.03828684      -0.02643653
In       8.53397629       4.60666759       3.18083923        1       0.07092741       0.03828684       0.02643653
In       4.64271397       2.50615179       1.73046260        2      -0.07092741      -0.03828684      -0.02643653
In       1.94563116       1.05025790       0.72518832        3       0.07092741       0.03828684       0.02643653
O        6.39770553       2.47846783       0.31453843        4       0.00000000       0.02417530      -0.03501201
O        7.59411800       5.40552610       1.29295828        5      -0.02021067       0.03744082       0.00000000
O        8.68610522       2.40755626       2.70505652        6       0.02021067      -0.01326552      -0.03501201
O        4.49058504       4.70526312       2.20624531        7      -0.02021067       0.01326552       0.03501201
O        6.77898472       4.63435154       4.59676340        8       0.00000000      -0.02417530       0.03501201
O        5.58257225       1.70729328       3.61834355        9       0.02021067      -0.03744082       0.00000000
10
Lattice="6.227130918791009 0.11448396133427452 0.07904956657589422 3.5126719343985755 5.143092643386301 0.07904956657588712 3.5126719343985715 1.8961514992374446 4.781449598643677" Properties=species:S:1:pos:R:3:spacegroup_kinds:I:1:forces:R:3 spacegroup="P 1" unit_cell=conventional occupancy="_JSON {\"0\": {\"In\": 1}, \"1\": {\"In\": 1}, \"2\": {\"In\": 1}, \"3\": {\"In\": 1}, \"4\": {\"O\": 1}, \"5\": {\"O\": 1}, \"6\": {\"O\": 1}, \"7\": {\"O\": 1}, \"8\": {\"O\": 1}, \"9\": {\"O\": 1}}" n_minim_iter=2 energy=-11287.542987938807 stress="0.006342088420420148 1.8822497437267247e-05 1.299666938653663e-05 1.8822497437267247e-05 0.006317379679840417 7.015643462342354e-06 1.299666938653663e-05 7.015643462342354e-06 0.0063120634397046595" free_energy=-11287.542987938807 pbc="T T T"
In      11.29463444       6.09687965       4.20980972        0      -0.07409079      -0.03999444      -0.02761560
In       8.58407775       4.63371252       3.19951338        1       0.07409079       0.03999444       0.02761560
In       4.66839704       2.52001560       1.74003536        2      -0.07409079      -0.03999444      -0.02761560
In       1.95784036       1.05684847       0.72973901        3       0.07409079       0.03999444       0.02761560
O        6.42668416       2.49724684       0.33076811        4      -0.00000000       0.00709758      -0.01027910
O        7.63830200       5.42632540       1.31393675        5      -0.00593361       0.01099217       0.00000000
O        8.72773826       2.43621752       2.72149291        6       0.00593361      -0.00389460      -0.01027910
O        4.52473654       4.71751060       2.21805583        7      -0.00593361       0.00389460       0.01027910
O        6.82579064       4.65648128       4.60878063        8       0.00000000      -0.00709758       0.01027910
O        5.61417280       1.72740272       3.62561198        9       0.00593361      -0.01099217      -0.00000000
10
Lattice="6.237605630050758 0.12496583096660839 0.0862871502660814 3.5271825325663397 5.146097923369608 0.08628715026607427 3.5271825325663357 1.9039843663495706 4.781695603225546" Properties=species:S:1:pos:R:3:spacegroup_kinds:I:1:forces:R:3 spacegroup="P 1" unit_cell=conventional occupancy="_JSON {\"0\": {\"In\": 1}, \"1\": {\"In\": 1}, \"2\": {\"In\": 1}, \"3\": {\"In\": 1}, \"4\": {\"O\": 1}, \"5\": {\"O\": 1}, \"6\": {\"O\": 1}, \"7\": {\"O\": 1}, \"8\": {\"O\": 1}, \"9\": {\"O\": 1}}" n_minim_iter=3 energy=-11287.544233331175 stress="0.006022592275480819 0.000843036661960384 0.000582104967854188 0.000843036661960384 0.004915917936363674 0.00031422211618955035 0.000582104967854188 0.00031422211618955035 0.004677810016062836" free_energy=-11287.544233331175 pbc="T T T"
In      11.32239394       6.11186432       4.22015643        0      -0.02985497      -0.01611581      -0.01112774
In       8.61556211       4.65070788       3.21124844        1       0.02985497       0.01611581       0.01112774
In       4.67640859       2.52434026       1.74302147        2      -0.02985497      -0.01611581      -0.01112774
In       1.96957677       1.06318382       0.73411348        3       0.02985497       0.01611581       0.01112774
O        6.44179549       2.50754611       0.33846063        4      -0.00000000      -0.01105911       0.01601641
O        7.66089574       5.43797825       1.32485463        5       0.00924547      -0.01712748      -0.00000000
O        8.74987778       2.45085396       2.72930843        6      -0.00924547       0.00606837       0.01601641
O        4.54209293       4.72419417       2.22496148        7       0.00924547      -0.00606837      -0.01601641
O        6.85017521       4.66750202       4.61580928        8       0.00000000       0.01105911      -0.01601641
O        5.63107496       1.73706988       3.62941528        9      -0.00924547       0.01712748      -0.00000000
10
Lattice="6.23124233798971 0.11860142059253831 0.08189261433530289 3.5183701763980775 5.14427047048992 0.08189261433529574 3.518370176398074 1.8992274284196051 4.781543709825936" Properties=species:S:1:pos:R:3:spacegroup_kinds:I:1:forces:R:3 spacegroup="P 1" unit_cell=conventional occupancy="_JSON {\"0\": {\"In\": 1}, \"1\": {\"In\": 1}, \"2\": {\"In\": 1}, \"3\": {\"In\": 1}, \"4\": {\"O\": 1}, \"5\": {\"O\": 1}, \"6\": {\"O\": 1}, \"7\": {\"O\": 1}, \"8\": {\"O\": 1}, \"9\": {\"O\": 1}}" n_minim_iter=4 energy=-11287.54484610751 stress="0.005517958479146331 0.0002794069404155859 0.0001929265673559918 0.0002794069404155859 0.00515117432016357 0.00010414237502093276 0.0001929265673559918 0.00010414237502093276 0.0050722584081291525" free_energy=-11287.54484610751 pbc="T T T"
In      11.30018047       6.09987342       4.21187688        0      -0.01307190      -0.00705625      -0.00487224
In       8.60179358       4.64327558       3.20611654        1       0.01307190       0.00705625       0.00487224
In       4.66618912       2.51882376       1.73921241        2      -0.01307190      -0.00705625      -0.00487224
In       1.96780223       1.06222592       0.73345207        3       0.01307190       0.00705625       0.00487224
O        6.43261685       2.50175056       0.33312463        4      -0.00000000      -0.00758159       0.01098008
O        7.64678938       5.43161129       1.31822485        5       0.00633825      -0.01174178       0.00000000
O        8.73681449       2.44171377       2.72389649        6      -0.00633825       0.00416019       0.01098008
O        4.53116821       4.72038557       2.22143246        7       0.00633825      -0.00416019      -0.01098008
O        6.83536585       4.66034877       4.61220431        8      -0.00000000       0.00758159      -0.01098008
O        5.62119332       1.73048804       3.62710409        9      -0.00633825       0.01174178       0.00000000
10
Lattice="6.228079661260348 0.11543446930945828 0.07970587897624708 3.5139871595236496 5.143364232330085 0.07970587897623994 3.513987159523646 1.8968614619493962 4.781471033868875" Properties=species:S:1:pos:R:3:spacegroup_kinds:I:1:forces:R:3 spacegroup="P 1" unit_cell=conventional occupancy="_JSON {\"0\": {\"In\": 1}, \"1\": {\"In\": 1}, \"2\": {\"In\": 1}, \"3\": {\"In\": 1}, \"4\": {\"O\": 1}, \"5\": {\"O\": 1}, \"6\": {\"O\": 1}, \"7\": {\"O\": 1}, \"8\": {\"O\": 1}, \"9\": {\"O\": 1}}" n_minim_iter=5 energy=-11287.544953521296 stress="0.0052354868280697275 -8.096421358876948e-06 -5.590465779526582e-06 -8.096421358876948e-06 0.00524611519404204 -3.017751547348401e-06 -5.590465779526582e-06 -3.017751547348401e-06 0.005248401952193617" free_energy=-11287.544953521296 pbc="T T T"
In      11.28872918       6.09369197       4.20760868        0      -0.00160692      -0.00086742      -0.00059894
In       8.59535180       4.63979828       3.20371551        1       0.00160692       0.00086742       0.00059894
In       4.66070219       2.51586189       1.73716728        2      -0.00160692      -0.00086742      -0.00059894
In       1.96732481       1.06196820       0.73327412        3       0.00160692       0.00086742       0.00059894
O        6.42805333       2.49880868       0.33055565        4      -0.00000000      -0.00544920       0.00789184
O        7.63982419       5.42835423       1.31492658        5       0.00455556      -0.00843930      -0.00000000
O        8.73026963       2.43719958       2.72129117        6      -0.00455556       0.00299010       0.00789184
O        4.52578436       4.71846060       2.21959163        7       0.00455556      -0.00299010      -0.00789184
O        6.82800066       4.65685150       4.61032714        8      -0.00000000       0.00544920      -0.00789184
O        5.61622980       1.72730594       3.62595622        9      -0.00455556       0.00843930      -0.00000000
