10
Lattice="5.64208289186637 0.019473344495075016 0.013446070734967064 3.112213951807512 4.706123977118714 0.013446070734975226 3.1122139518075045 1.6799830046405506 4.396071062772851" Properties=species:S:1:pos:R:3:spacegroup_kinds:I:1:forces:R:3 spacegroup="P 1" unit_cell=conventional occupancy="_JSON {\"0\": {\"In\": 1}, \"1\": {\"In\": 1}, \"2\": {\"In\": 1}, \"3\": {\"In\": 1}, \"4\": {\"O\": 1}, \"5\": {\"O\": 1}, \"6\": {\"O\": 1}, \"7\": {\"O\": 1}, \"8\": {\"O\": 1}, \"9\": {\"O\": 1}}" n_minim_iter=1 energy=-11287.437191555882 stress="-0.034321030303373856 0.0010675697935088766 0.0007371419401823579 0.0010675697935088766 -0.03572245464454581 0.0003979115673320126 0.0007371419401823579 0.0003979115673320126 -0.036023979872170465" free_energy=-11287.437191555882 pbc="T T T"
In      10.18797191       5.49949969       3.79732726        0       0.11224431       0.06058983       0.04183643
In       7.61179429       4.10887081       2.83711755        1      -0.11224431      -0.06058983      -0.04183643
In       4.25471652       2.29670953       1.58584566        2       0.11224431       0.06058983       0.04183643
In       1.67853889       0.90608064       0.62563595        3      -0.11224431      -0.06058983      -0.04183643
O        5.78766915       2.24847968       0.18942127        4      -0.00000000       0.10011596      -0.14499348
O        6.81095009       4.95126840       1.11918687        5      -0.08369744       0.15505178       0.00000000
O        7.87660216       2.10139653       2.38745681        6       0.08369744      -0.05493582      -0.14499348
O        3.98990864       4.30418380       2.03550640        7      -0.08369744       0.05493582       0.14499348
O        6.07884166       4.15710066       4.23354193        8       0.00000000      -0.10011596       0.14499348
O        5.05556072       1.45431194       3.30377633        9       0.08369744      -0.15505178       0.00000000
10
Lattice="5.617291829515407 -0.0060540957443851635 -0.004180268039502882 3.0772694870050477 4.699405989522876 -0.004180268039494731 3.07726948700504 1.6611198712302304 4.396033996957769" Properties=species:S:1:pos:R:3:spacegroup_kinds:I:1:forces:R:3 spacegroup="P 1" unit_cell=conventional occupancy="_JSON {\"0\": {\"In\": 1}, \"1\": {\"In\": 1}, \"2\": {\"In\": 1}, \"3\": {\"In\": 1}, \"4\": {\"O\": 1}, \"5\": {\"O\": 1}, \"6\": {\"O\": 1}, \"7\": {\"O\": 1}, \"8\": {\"O\": 1}, \"9\": {\"O\": 1}}" n_minim_iter=2 energy=-11287.44286191571 stress="-0.03380847252410737 -0.002849217611556313 -0.0019673447215392717 -0.002849217611556313 -0.03006823658590815 -0.0010619789486585336 -0.0019673447215392717 -0.0010619789486585336 -0.029263501383500985" free_energy=-11287.44286191571 pbc="T T T"
In      10.11075489       5.45781770       3.76854643        0       0.22558092       0.12176930       0.08407999
In       7.54699132       4.07388996       2.81296377        1      -0.22558092      -0.12176930      -0.08407999
In       4.22483949       2.28058182       1.57470970        2       0.22558091       0.12176930       0.08407999
In       1.66107592       0.89665408       0.61912704        3      -0.22558092      -0.12176930      -0.08407999
O        5.75160362       2.22917116       0.16275965        4      -0.00000000       0.01187502      -0.01719806
O        6.75220206       4.93202070       1.09273810        5      -0.00992758       0.01839111      -0.00000000
O        7.82827467       2.06300429       2.36077665        6       0.00992758      -0.00651608      -0.01719806
O        3.94355615       4.29146749       2.02689681        7      -0.00992758       0.00651608       0.01719806
O        6.02022719       4.12530062       4.22491381        8      -0.00000000      -0.01187502       0.01719806
O        5.01962875       1.42245108       3.29493537        9       0.00992758      -0.01839111       0.00000000
10
Lattice="5.627562562940343 0.004544272761348921 0.003137756485728313 3.0917655517177614 4.702176817542482 0.003137756485736471 3.0917655517177542 1.668944893137026 4.396032257914127" Properties=species:S:1:pos:R:3:spacegroup_kinds:I:1:forces:R:3 spacegroup="P 1" unit_cell=conventional occupancy="_JSON {\"0\": {\"In\": 1}, \"1\": {\"In\": 1}, \"2\": {\"In\": 1}, \"3\": {\"In\": 1}, \"4\": {\"O\": 1}, \"5\": {\"O\": 1}, \"6\": {\"O\": 1}, \"7\": {\"O\": 1}, \"8\": {\"O\": 1}, \"9\": {\"O\": 1}}" n_minim_iter=3 energy=-11287.453111873694 stress="-0.0236963350020156 0.0007353166794815802 0.0005077258341186838 0.0007353166794815802 -0.024661602751224313 0.0002740720226089235 0.0005077258341186838 0.0002740720226089235 -0.024869286155447114" free_energy=-11287.453111873694 pbc="T T T"
In      10.15715913       5.48286686       3.78584252        0       0.07273747       0.03926392       0.02711119
In       7.55948138       4.08063213       2.81761914        1      -0.07273747      -0.03926392      -0.02711119
In       4.25161230       2.29503386       1.58468863        2       0.07273747       0.03926392       0.02711119
In       1.65393454       0.89279914       0.61646526        3      -0.07273747      -0.03926392      -0.02711119
O        5.76655470       2.24489647       0.16265120        4      -0.00000000      -0.04175000       0.06046467
O        6.77011449       4.95194504       1.10371470        5       0.03490321      -0.06465914      -0.00000000
O        7.85476046       2.07470092       2.36066733        6      -0.03490321       0.02290914       0.06046467
O        3.95633321       4.30096507       2.04164044        7       0.03490321      -0.02290914      -0.06046467
O        6.04453897       4.13076952       4.23965657        8      -0.00000000       0.04175000      -0.06046467
O        5.04097918       1.42372095       3.29859307        9      -0.03490321       0.06465914       0.00000000
10
Lattice="5.608227268077204 -0.01543469244199967 -0.010657438243322817 3.064453338514162 4.696975309303303 -0.010657438243314596 3.064453338514156 1.6542016734510796 4.396055898273639" Properties=species:S:1:pos:R:3:spacegroup_kinds:I:1:forces:R:3 spacegroup="P 1" unit_cell=conventional occupancy="_JSON {\"0\": {\"In\": 1}, \"1\": {\"In\": 1}, \"2\": {\"In\": 1}, \"3\": {\"In\": 1}, \"4\": {\"O\": 1}, \"5\": {\"O\": 1}, \"6\": {\"O\": 1}, \"7\": {\"O\": 1}, \"8\": {\"O\": 1}, \"9\": {\"O\": 1}}" n_minim_iter=4 energy=-11287.45547468436 stress="-0.021640919397462325 -0.0003055978454224035 -0.0002110110177000892 -0.0003055978454224035 -0.021239753815169 -0.00011390441956282006 -0.0002110110177000892 -0.00011390441956282006 -0.021153440526255934" free_energy=-11287.45547468436 pbc="T T T"
In      10.10086771       5.45248057       3.76486121        0       0.01351453       0.00729519       0.00503723
In       7.50483322       4.05113288       2.79725032        1      -0.01351453      -0.00729519      -0.00503723
In       4.23230074       2.28460942       1.57749070        2       0.01351453       0.00729519       0.00503723
In       1.63626624       0.88326173       0.60987981        3      -0.01351453      -0.00729519      -0.00503723
O        5.73839712       2.22644115       0.14666769        4       0.00000000      -0.00338659       0.00490465
O        6.72703420       4.93172032       1.08302782        5       0.00283121      -0.00524489      -0.00000000
O        7.81421339       2.04652755       2.34469564        6      -0.00283121       0.00185830       0.00490465
O        3.92292056       4.28921475       2.03004538        7       0.00283121      -0.00185830      -0.00490465
O        5.99873683       4.10930115       4.22807333        8       0.00000000       0.00338659      -0.00490465
O        5.01009976       1.40402198       3.29171321        9      -0.00283121       0.00524489       0.00000000
10
Lattice="5.609348418608537 -0.014273077279793942 -0.0098553592968036 3.0660396543700923 4.697275193121139 -0.009855359296795357 3.066039654370087 1.6550579718030634 4.39605214686874" Properties=species:S:1:pos:R:3:spacegroup_kinds:I:1:forces:R:3 spacegroup="P 1" unit_cell=conventional occupancy="_JSON {\"0\": {\"In\": 1}, \"1\": {\"In\": 1}, \"2\": {\"In\": 1}, \"3\": {\"In\": 1}, \"4\": {\"O\": 1}, \"5\": {\"O\": 1}, \"6\": {\"O\": 1}, \"7\": {\"O\": 1}, \"8\": {\"O\": 1}, \"9\": {\"O\": 1}}" n_minim_iter=5 energy=-11287.455510103351 stress="-0.02124787146083978 -1.529803304278636e-05 -1.0563077528821493e-05 -1.529803304278636e-05 -0.021227789366983694 -5.701982676831753e-06 -1.0563077528821493e-05 -5.701982676831753e-06 -0.021223468580885595" free_energy=-11287.455510103351 pbc="T T T"
In      10.10504521       5.45473559       3.76641828        0       0.00048862       0.00026376       0.00018212
In       7.50709639       4.05235455       2.79809387        1      -0.00048862      -0.00026376      -0.00018212
In       4.23433134       2.28570555       1.57824756        2       0.00048862       0.00026376       0.00018212
In       1.63638253       0.88332450       0.60992316        3      -0.00048862      -0.00026376      -0.00018212
O        5.74003115       2.22753888       0.14755939        4      -0.00000000      -0.00031967       0.00046297
O        6.72951365       4.93293368       1.08423000        5       0.00026725      -0.00049508      -0.00000000
O        7.81658830       2.04815027       2.34558546        6      -0.00026725       0.00017541       0.00046297
O        3.92483944       4.28990983       2.03075597        7       0.00026725      -0.00017541      -0.00046297
O        6.00139659       4.11052122       4.22878204        8      -0.00000000       0.00031967      -0.00046297
O        5.01191409       1.40512642       3.29211143        9      -0.00026725       0.00049508       0.00000000
