10
Lattice="5.642082891866369 0.01947334449507599 0.013446070734966469 3.1122139518075125 4.706123977118717 0.013446070734968956 3.112213951807504 1.6799830046405546 4.396071062772845" Properties=species:S:1:pos:R:3:spacegroup_kinds:I:1:forces:R:3 spacegroup="P 1" unit_cell=conventional occupancy="_JSON {\"0\": {\"In\": 1}, \"1\": {\"In\": 1}, \"2\": {\"In\": 1}, \"3\": {\"In\": 1}, \"4\": {\"O\": 1}, \"5\": {\"O\": 1}, \"6\": {\"O\": 1}, \"7\": {\"O\": 1}, \"8\": {\"O\": 1}, \"9\": {\"O\": 1}}" n_minim_iter=5 energy=-11287.535241671058 stress="-0.023605198428227992 6.14608385575351e-05 4.243784405184602e-05 6.14608385575351e-05 -0.023685879537307684 2.2908082195330923e-05 4.243784405184602e-05 2.2908082195330923e-05 -0.02370323858363145" free_energy=-11287.535241671058 pbc="T T T"
In      10.18797191       5.49949969       3.79732726        0      -0.00111294      -0.00060077      -0.00041482
In       7.61179429       4.10887081       2.83711755        1       0.00111294       0.00060077       0.00041482
In       4.25471652       2.29670953       1.58584566        2      -0.00111294      -0.00060077      -0.00041482
In       1.67853889       0.90608064       0.62563595        3       0.00111294       0.00060077       0.00041482
O        5.78766915       2.24847968       0.18942127        4       0.00000000       0.00034074      -0.00049348
O        6.81095009       4.95126840       1.11918687        5      -0.00028486       0.00052772       0.00000000
O        7.87660216       2.10139653       2.38745681        6       0.00028486      -0.00018697      -0.00049348
O        3.98990864       4.30418380       2.03550640        7      -0.00028486       0.00018697       0.00049348
O        6.07884166       4.15710066       4.23354193        8       0.00000000      -0.00034074       0.00049348
O        5.05556072       1.45431194       3.30377633        9       0.00028486      -0.00052772      -0.00000000
