10
Lattice="6.484392424500958 0.1531801636335036 0.10576875050555018 3.686187160716654 5.336931093205523 0.10576875050554789 3.6861871607166545 1.9898155711086765 4.953246865963864" Properties=species:S:1:pos:R:3:spacegroup_kinds:I:1:forces:R:3 spacegroup="P 1" unit_cell=conventional occupancy="_JSON {\"0\": {\"In\": 1}, \"1\": {\"In\": 1}, \"2\": {\"In\": 1}, \"3\": {\"In\": 1}, \"4\": {\"O\": 1}, \"5\": {\"O\": 1}, \"6\": {\"O\": 1}, \"7\": {\"O\": 1}, \"8\": {\"O\": 1}, \"9\": {\"O\": 1}}" n_minim_iter=4 energy=-11287.425138887525 stress="0.018039608942846595 -7.742907237052818e-06 -5.346369349719987e-06 -7.742907237052818e-06 0.018049773242683854 -2.8859867321941833e-06 -5.346369349719987e-06 -2.8859867321941833e-06 0.01805196015676805" free_energy=-11287.425138887525 pbc="T T T"
In      11.77535347       6.35637332       4.38898645        0      -0.00567498      -0.00306337      -0.00211522
In       9.00979666       4.86351694       3.35819010        1       0.00567498       0.00306337       0.00211522
In       4.84697010       2.61640990       1.80659427        2      -0.00567499      -0.00306338      -0.00211522
In       2.08141329       1.12355353       0.77579792        3       0.00567499       0.00306338       0.00211522
O        6.70638790       2.63566431       0.34609851        4       0.00000000      -0.00250542       0.00362849
O        7.97339670       5.68224998       1.39696484        5       0.00209455      -0.00388020      -0.00000000
O        9.12556627       2.56335946       2.82272194        6      -0.00209455       0.00137478       0.00362849
O        4.73120049       4.91656738       2.34206243        7       0.00209455      -0.00137478      -0.00362849
O        7.15037885       4.84426253       4.81868586        8      -0.00000000       0.00250542      -0.00362849
O        5.88337005       1.79767686       3.76781953        9      -0.00209455       0.00388020      -0.00000000
