10
Lattice="6.054654709383092 -0.01470043892984046 -0.010150446510893663 3.310031667731394 5.069787974992139 -0.010150446510901296 3.3100316677313897 1.7867656378126624 4.744504368052709" Properties=species:S:1:pos:R:3:spacegroup_kinds:I:1:forces:R:3 spacegroup="P 1" unit_cell=conventional occupancy="_JSON {\"0\": {\"In\": 1}, \"1\": {\"In\": 1}, \"2\": {\"In\": 1}, \"3\": {\"In\": 1}, \"4\": {\"O\": 1}, \"5\": {\"O\": 1}, \"6\": {\"O\": 1}, \"7\": {\"O\": 1}, \"8\": {\"O\": 1}, \"9\": {\"O\": 1}}" n_minim_iter=5 energy=-11287.601069903212 stress="0.01713461449264061 3.225829115376694e-05 2.2273896363216387e-05 3.225829115376694e-05 0.017092268263712972 1.2023521569912842e-05 2.2273896363216387e-05 1.2023521569912842e-05 0.017083157207035272" free_energy=-11287.601069903212 pbc="T T T"
In      10.84896396       5.85630531       4.04369652        0      -0.00279296      -0.00150765      -0.00104101
In       8.16311312       4.40647447       3.04260870        1       0.00279296       0.00150765       0.00104101
In       4.51160494       2.43537872       1.68159478        2      -0.00279296      -0.00150765      -0.00104101
In       1.82575409       0.98554788       0.68050696        3       0.00279296       0.00150765       0.00104101
O        6.19600687       2.36518861       0.21712119        4      -0.00000000       0.00275910      -0.00399588
O        7.29752426       5.26337790       1.17090042        5      -0.00230662       0.00427308       0.00000000
O        8.40452115       2.23320059       2.58937338        6       0.00230662      -0.00151398      -0.00399588
O        4.27019691       4.60865259       2.13483010        7      -0.00230662       0.00151398       0.00399588
O        6.47871118       4.47666458       4.50708228        8      -0.00000000      -0.00275910       0.00399588
O        5.37719379       1.57847529       3.55330306        9       0.00230662      -0.00427308       0.00000000
