10
Lattice="6.273876009332779 0.1162832826553978 0.08029197266411692 3.5398262283590394 5.181184445214037 0.08029197266410973 3.539826228359036 1.91080947361292 4.816630171785391" Properties=species:S:1:pos:R:3:spacegroup_kinds:I:1:forces:R:3 spacegroup="P 1" unit_cell=conventional occupancy="_JSON {\"0\": {\"In\": 1}, \"1\": {\"In\": 1}, \"2\": {\"In\": 1}, \"3\": {\"In\": 1}, \"4\": {\"O\": 1}, \"5\": {\"O\": 1}, \"6\": {\"O\": 1}, \"7\": {\"O\": 1}, \"8\": {\"O\": 1}, \"9\": {\"O\": 1}}" n_minim_iter=5 energy=-11287.544953521296 stress="0.0052354868280697275 -8.096421358876948e-06 -5.590465779526582e-06 -8.096421358876948e-06 0.00524611519404204 -3.017751547348401e-06 -5.590465779526582e-06 -3.017751547348401e-06 0.005248401952193617" free_energy=-11287.544953521296 pbc="T T T"
In      11.37173752       6.13850014       4.23854809        0      -0.00160692      -0.00086742      -0.00059894
In       8.65855519       4.67391567       3.22727309        1       0.00160692       0.00086742       0.00059894
In       4.69497329       2.53436154       1.74994103        2      -0.00160692      -0.00086742      -0.00059894
In       1.98179095       1.06977707       0.73866603        3       0.00160692       0.00086742       0.00059894
O        6.47532013       2.51718293       0.33298630        4      -0.00000000      -0.00544920       0.00789184
O        7.69600139       5.46827003       1.32459550        5       0.00455556      -0.00843930      -0.00000000
O        8.79446509       2.45512080       2.74130138        6      -0.00455556       0.00299010       0.00789184
O        4.55906338       4.75315641       2.23591274        7       0.00455556      -0.00299010      -0.00789184
O        6.87820835       4.69109428       4.64422782        8      -0.00000000       0.00544920      -0.00789184
O        5.65752709       1.74000718       3.65261862        9      -0.00455556       0.00843930      -0.00000000
