10
Lattice="5.137153100214097 -0.2181799294613021 -0.1506501754347465 2.6364686226530676 4.414405697081416 -0.15065017543473067 2.636468622653063 1.4231741605530703 4.181417037622232" Properties=species:S:1:pos:R:3:spacegroup_kinds:I:1:forces:R:3 spacegroup="P 1" unit_cell=conventional occupancy="_JSON {\"0\": {\"In\": 1}, \"1\": {\"In\": 1}, \"2\": {\"In\": 1}, \"3\": {\"In\": 1}, \"4\": {\"O\": 1}, \"5\": {\"O\": 1}, \"6\": {\"O\": 1}, \"7\": {\"O\": 1}, \"8\": {\"O\": 1}, \"9\": {\"O\": 1}}" n_minim_iter=5 energy=-11287.62126843892 stress="-0.021528431662020172 -0.00013282108638358313 -9.171109289367674e-05 -0.00013282108638358313 -0.02135407425606187 -4.9505939789130544e-05 -9.171109289367674e-05 -4.9505939789130544e-05 -0.021316560166095032" free_energy=-11287.62126843892 pbc="T T T"
In       9.05395007       4.88735109       3.37464725        0       0.00325236       0.00175563       0.00121224
In       6.56118544       3.54174880       2.44552778        1      -0.00325236      -0.00175563      -0.00121224
In       3.84890490       2.07765113       1.43458891        2       0.00325236       0.00175563       0.00121224
In       1.35614027       0.73204884       0.50546943        3      -0.00325236      -0.00175563      -0.00121224
O        5.17109913       1.94376524      -0.04377298        4      -0.00000000      -0.00236762       0.00342892
O        5.94759784       4.50654271       0.81937899        5       0.00197935      -0.00366679       0.00000000
O        7.03106904       1.65177247       2.04693554        6      -0.00197935       0.00129917       0.00342892
O        3.37902129       3.96762745       1.83318115        7       0.00197935      -0.00129917      -0.00342892
O        5.23899120       3.67563468       3.92388967        8      -0.00000000       0.00236762      -0.00342892
O        4.46249249       1.11285721       3.06073769        9      -0.00197935       0.00366679      -0.00000000
