10
Lattice="5.277948078366758 -0.25306683109539935 -0.17473909078332375 2.68456027925037 4.551254205821431 -0.17473909078331323 2.684560279250365 1.4491341899725065 4.317922960788878" Properties=species:S:1:pos:R:3:spacegroup_kinds:I:1:forces:R:3 spacegroup="P 1" unit_cell=conventional occupancy="_JSON {\"0\": {\"In\": 1}, \"1\": {\"In\": 1}, \"2\": {\"In\": 1}, \"3\": {\"In\": 1}, \"4\": {\"O\": 1}, \"5\": {\"O\": 1}, \"6\": {\"O\": 1}, \"7\": {\"O\": 1}, \"8\": {\"O\": 1}, \"9\": {\"O\": 1}}" n_minim_iter=8 energy=-11287.448304948073 stress="0.02853690514130008 3.506146005018578e-05 2.420944602064887e-05 3.506146005018578e-05 0.028490879125036762 1.3068335304152137e-05 2.420944602064887e-05 1.3068335304152137e-05 0.02848097633877323" free_energy=-11287.448304948073 pbc="T T T"
In       9.25662262       4.99675438       3.45018868        0      -0.00041966      -0.00022653      -0.00015642
In       6.71398034       3.62422798       2.50247849        1       0.00041966       0.00022653       0.00015642
In       3.93308831       2.12309360       1.46596629        2      -0.00041966      -0.00022653      -0.00015642
In       1.39044602       0.75056719       0.51825610        3       0.00041966       0.00022653       0.00015642
O        5.30074120       1.98298062      -0.06947606        4      -0.00000000      -0.00038738       0.00056103
O        6.08065447       4.62772393       0.81737211        5       0.00032385      -0.00059995       0.00000000
O        7.20538822       1.66574787       2.08948542        6      -0.00032385       0.00021256       0.00056103
O        3.44168043       4.08157371       1.87895936        7       0.00032385      -0.00021256      -0.00056103
O        5.34632744       3.76434096       4.03792084        8       0.00000000       0.00038738      -0.00056103
O        4.56641418       1.11959765       3.15107268        9      -0.00032385       0.00059995      -0.00000000
