10
Lattice="5.759139212489424 0.03169100381405763 0.02188219281251064 3.186659336228078 4.7972795481800325 0.021882192812512833 3.186659336228075 1.7201688602845284 4.478324350229238" Properties=species:S:1:pos:R:3:spacegroup_kinds:I:1:forces:R:3 spacegroup="P 1" unit_cell=conventional occupancy="_JSON {\"0\": {\"In\": 1}, \"1\": {\"In\": 1}, \"2\": {\"In\": 1}, \"3\": {\"In\": 1}, \"4\": {\"O\": 1}, \"5\": {\"O\": 1}, \"6\": {\"O\": 1}, \"7\": {\"O\": 1}, \"8\": {\"O\": 1}, \"9\": {\"O\": 1}}" n_minim_iter=3 energy=-11287.651515552867 stress="-0.010424328591081458 0.0003222706791124716 0.0002225233748731873 0.0003222706791124716 -0.010847381000627272 0.00012011882606062667 0.0002225233748731873 0.00012011882606062667 -0.010938403377971185" free_energy=-11287.651515552867 pbc="T T T"
In      10.39500116       5.61125474       3.87449255        0       0.00682618       0.00368479       0.00254430
In       7.80368568       4.21245439       2.90864056        1      -0.00682618      -0.00368479      -0.00254430
In       4.32877222       2.33668504       1.61344818        2       0.00682618       0.00368479       0.00254430
In       1.73745673       0.93788468       0.64759619        3      -0.00682618      -0.00368479      -0.00254430
O        5.91268408       2.28555179       0.22555553        4      -0.00000000       0.00346898      -0.00502397
O        6.97730628       5.03121502       1.15240438        5      -0.00290008       0.00537248       0.00000000
O        8.03472122       2.16619133       2.46471771        6       0.00290008      -0.00190350      -0.00502397
O        4.09773667       4.38294809       2.05737103        7      -0.00290008       0.00190350       0.00502397
O        6.21977381       4.26358763       4.29653321        8       0.00000000      -0.00346898       0.00502397
O        5.15515161       1.51792440       3.36968436        9       0.00290008      -0.00537248       0.00000000
