80
Lattice="11.757921604544823 0.010962303086019753 0.007569316238919 6.4609929859472 9.82366582627135 0.007569316238918095 6.4609929859472 3.487664594263904 9.183717288697343" Properties=species:S:1:pos:R:3:spacegroup_kinds:I:1:forces:R:3 spacegroup="P 1" unit_cell=conventional occupancy="_JSON {\"0\": {\"In\": 1}, \"1\": {\"In\": 1}, \"2\": {\"In\": 1}, \"3\": {\"In\": 1}, \"4\": {\"O\": 1}, \"5\": {\"O\": 1}, \"6\": {\"O\": 1}, \"7\": {\"O\": 1}, \"8\": {\"O\": 1}, \"9\": {\"O\": 1}}" n_minim_iter=4 energy=-90301.46608387606 stress="-0.0001869820727083478 -0.0001403786541706069 -5.00088888788212e-05 -0.0001403786541706069 -7.500995753468005e-05 -0.00019141676296838733 -5.00088888788212e-05 -0.00019141676296838733 -7.7346411289386e-05" free_energy=-11287.684535260581 pbc="T T T"
In      10.53520985       5.70975248       3.94250386        0       0.47654932      -0.02743901      -0.02485719
In      16.45650480       5.71527310       3.94631577        0      -0.02225552      -0.00140116       0.00270657
In      13.80804049      10.62162486       3.94631577        0      -0.00571410      -0.00896109      -0.00194037
In      19.68700130      10.62710601       3.95010043        0       0.00604776       0.01474260       0.00178056
In      13.80804049       7.45362425       8.53438975        0      -0.00513047      -0.00528620      -0.01144447
In      19.68700130       7.45910540       8.53817441        0       0.00050861       0.00764403       0.01693516
In      17.03853699      12.36545716       8.53817441        0       0.01122203       0.00347977      -0.00075254
In      22.91749779      12.37093831       8.54195907        0      -0.00174252       0.00079238       0.00057782
In       7.93238669       4.28192760       2.95661084        1      -0.09279907      -0.07901599      -0.05530260
In      13.81134749       4.28740875       2.96039550        1      -0.05392826       0.01980781       0.02425491
In      11.16288318       9.19376051       2.96039550        1       0.00870110      -0.02190590      -0.00139977
In      17.04184399       9.19924166       2.96418016        1      -0.00619227       0.00375105      -0.00117541
In      11.16288318       6.02575990       7.54846948        1       0.00833590      -0.00730689      -0.01046066
In      17.04184399       6.03124105       7.55225414        1      -0.00617712      -0.00203000      -0.00087783
In      14.39337968      10.93759281       7.55225414        1      -0.00308261      -0.00403550      -0.00038627
In      20.27234048      10.94307396       7.55603880        1      -0.00692082       0.00326881      -0.00011735
In       4.40756711       2.37921877       1.64281713        2       0.00366281       0.00162086       0.00503060
In      10.28652791       2.38469992       1.64660179        2       0.01279963      -0.00534205      -0.00062301
In       7.63806360       7.29105168       1.64660179        2      -0.01689517       0.02478116      -0.03658157
In      13.51702441       7.29653283       1.65038645        2      -0.01880780      -0.01419319       0.02456709
In       7.63806360       4.12305107       6.23467577        2      -0.01874104      -0.01238676       0.02775061
In      13.51702441       4.12853222       6.23846043        2      -0.02104829       0.01614482      -0.03263464
In      10.86856010       9.03488398       6.23846043        2       0.01298358       0.00498487      -0.00163091
In      16.74752090       9.04036513       6.24224509        2       0.00357290       0.00175085       0.00525847
In       1.76240979       0.95135442       0.65689686        3      -0.00340722       0.00223187       0.00135010
In       7.64137059       0.95683557       0.66068152        3      -0.00799704      -0.00646795      -0.00204028
In       4.99290628       5.86318733       0.66068152        3      -0.00786997      -0.00440444      -0.00357649
In      10.87186709       5.86866848       0.66446618        3       0.02026336       0.01025089       0.01968507
In       4.99290628       2.69518672       5.24875550        3      -0.01360945      -0.00080429      -0.00257951
In      10.87186709       2.70066787       5.25254016        3       0.04476343       0.01130862      -0.01053593
In       8.22340278       7.60701963       5.25254016        3      -0.02928771       0.05621500       0.04346903
In      14.10236358       7.61250078       5.25632482        3      -0.01790400      -0.01459015      -0.01013312
O        6.02446885       2.31311441       0.21749824        4       0.00153680       0.00214423       0.00120186
O       11.90342965       2.31859556       0.22128290        4      -0.00134434      -0.00003917      -0.00349657
O        9.25496534       7.22494732       0.22128290        4      -0.00497569      -0.00288933       0.00597881
O       15.13392615       7.23042847       0.22506756        4       0.00376773       0.00160163      -0.00517994
O        9.25496534       4.05694671       4.80935688        4      -0.05215996      -0.02472533       0.00641960
O       15.13392615       4.06242786       4.81314154        4       0.02565535      -0.00416753       0.00138492
O       12.48546184       8.96877962       4.81314154        4       0.00170813       0.01107808       0.00491930
O       18.36442264       8.97426077       4.81692620        4       0.00938347      -0.01100263      -0.00345279
O        7.10042095       5.12300433       1.15364165        5       0.01308537       0.00853859       0.01721877
O       12.97938175       5.12848548       1.15742631        5       0.00258242      -0.00213825      -0.01317852
O       10.33091744      10.03483724       1.15742631        5      -0.00593421       0.00428867      -0.00012190
O       16.20987825      10.04031839       1.16121097        5       0.00147459       0.00151380      -0.00104020
O       10.33091744       6.86683663       5.74550029        5      -0.03364023       0.01616815       0.01875649
O       16.20987825       6.87231778       5.74928495        5       0.00520849       0.00144825      -0.00010333
O       13.56141394      11.77866954       5.74928495        5       0.00565644       0.00705689      -0.00097574
O       19.44037474      11.78415069       5.75306961        5       0.00097436      -0.01491811       0.00826202
O        8.17901325       2.18596986       2.51342756        6       0.00646897       0.01239024       0.00395583
O       14.05797405       2.19145101       2.51721222        6       0.00535502      -0.01214716      -0.00645257
O       11.40950974       7.09780277       2.51721222        6      -0.05372798      -0.04677038       0.04173083
O       17.28847055       7.10328392       2.52099688        6       0.01685854      -0.00185337       0.00311360
O       11.40950974       3.92980216       7.10528620        6      -0.00927508       0.00015214       0.00404853
O       17.28847055       3.93528331       7.10907086        6       0.00528893      -0.00071380       0.00029660
O       14.64000624       8.84163507       7.10907086        6       0.00118757       0.00252735       0.00113238
O       20.51896704       8.84711622       7.11285552        6       0.00264223      -0.00586620      -0.00758878
O        4.16094055       4.47517652       2.08600040        7       0.00856337       0.00080693      -0.00133777
O       10.03990135       4.48065767       2.08978506        7      -0.04256953      -0.00747498      -0.00889783
O        7.39143704       9.38700943       2.08978506        7       0.00140108      -0.00999008       0.00508003
O       13.27039785       9.39249058       2.09356972        7       0.00639902       0.01284188      -0.00267661
O        7.39143704       6.21900882       6.67785904        7       0.00882391      -0.00119429      -0.01119938
O       13.27039785       6.22448997       6.68164370        7       0.00513876       0.00884382       0.01580386
O       10.62193354      11.13084173       6.68164370        7      -0.00224178       0.00034491       0.00075500
O       16.50089434      11.13632288       6.68542836        7      -0.00603307       0.00158033       0.00168945
O        6.31548494       4.34803196       4.38192972        8       0.02034854       0.00577947      -0.00037411
O       12.19444574       4.35351311       4.38571438        8      -0.12858408       0.07752641      -0.01827469
O        9.54598143       9.25986487       4.38571438        8      -0.00906880      -0.01272684       0.00106020
O       15.42494224       9.26534602       4.38949904        8       0.00274347       0.00179495      -0.00023688
O        9.54598143       6.09186426       8.97378836        8      -0.00092243      -0.00261786      -0.00236807
O       15.42494224       6.09734541       8.97757302        8       0.00210479       0.00099361       0.00305558
O       12.77647793      11.00369717       8.97757302        8       0.00162132       0.00019413       0.00456859
O       18.65543873      11.00917832       8.98135768        8       0.00166354      -0.00022142      -0.00830975
O        5.23953285       1.53814204       3.44578631        9       0.00268586       0.00166697      -0.00005574
O       11.11849365       1.54362319       3.44957097        9      -0.00566304      -0.00381975      -0.00360293
O        8.47002934       6.44997495       3.44957097        9      -0.09330042       0.01949338      -0.00672415
O       14.34899015       6.45545610       3.45335563        9       0.02588595       0.00525923      -0.00244107
O        8.47002934       3.28197434       8.03764495        9       0.00087525       0.00062876      -0.00656959
O       14.34899015       3.28745549       8.04142961        9       0.00276227      -0.00372947       0.00535467
O       11.70052584       8.19380725       8.04142961        9      -0.00076489      -0.00110462      -0.00007244
O       17.57948664       8.19928840       8.04521427        9       0.00045405      -0.00375704      -0.00537168
