40
Lattice="8.681012791937105 6.803917461135054e-10 7.616575398012709e-15 -2.8936709312871844 8.184537350101056 -1.178475606435053e-09 -2.8936709303249706 -4.092268674370136 7.088017264195739" Properties=species:S:1:pos:R:3:spacegroup_kinds:I:1:forces:R:3 spacegroup="P 1" unit_cell=conventional occupancy="_JSON {\"0\": {\"In\": 1}, \"1\": {\"In\": 1}, \"2\": {\"In\": 1}, \"3\": {\"In\": 1}, \"4\": {\"In\": 1}, \"5\": {\"In\": 1}, \"6\": {\"In\": 1}, \"7\": {\"In\": 1}, \"8\": {\"In\": 1}, \"9\": {\"In\": 1}, \"10\": {\"In\": 1}, \"11\": {\"In\": 1}, \"12\": {\"In\": 1}, \"13\": {\"In\": 1}, \"14\": {\"In\": 1}, \"15\": {\"In\": 1}, \"16\": {\"O\": 1}, \"17\": {\"O\": 1}, \"18\": {\"O\": 1}, \"19\": {\"O\": 1}, \"20\": {\"O\": 1}, \"21\": {\"O\": 1}, \"22\": {\"O\": 1}, \"23\": {\"O\": 1}, \"24\": {\"O\": 1}, \"25\": {\"O\": 1}, \"26\": {\"O\": 1}, \"27\": {\"O\": 1}, \"28\": {\"O\": 1}, \"29\": {\"O\": 1}, \"30\": {\"O\": 1}, \"31\": {\"O\": 1}, \"32\": {\"O\": 1}, \"33\": {\"O\": 1}, \"34\": {\"O\": 1}, \"35\": {\"O\": 1}, \"36\": {\"O\": 1}, \"37\": {\"O\": 1}, \"38\": {\"O\": 1}, \"39\": {\"O\": 1}}" n_minim_iter=8 energy=-45150.74631812158 stress="-0.05918460872549548 1.0416566317419179e-13 -1.5046892322803239e-13 1.0416566317419179e-13 -0.059184608726698056 4.751984371322569e-13 -1.5046892322803239e-13 4.751984371322569e-13 -0.059184608726699804" free_energy=-45150.74631812158 pbc="T T T"
In      -4.13035478       2.92060188       5.57339506        0       0.00096023      -0.00067899       0.00117604
In       7.02402571       1.17166680       1.51462220        1      -0.00096023       0.00067899      -0.00117604
In       1.23668385      -0.87446753       5.05863083        2      -0.00096023       0.00067899      -0.00117604
In      -1.44683547      -2.04613434       3.54400863        3      -0.00000000      -0.00000000       0.00000000
In      -1.23668385       3.94366904       3.28662651        4       0.00096023      -0.00067899      -0.00117604
In       4.55065801      -2.77200224       5.31601295        5       0.00096023       0.00135797       0.00000000
In      -1.23668385       1.32026644       5.31601295        6       0.00096023       0.00135797      -0.00000000
In      -1.65698708       6.86427092       1.77200431        7      -0.00096023      -0.00135797      -0.00000000
In       4.13035478       0.14859964       3.80139074        8      -0.00096023       0.00067899       0.00117604
In      -1.44683547       4.09226868      -0.00000000        9      -0.00000000      -0.00000000       0.00000000
In       4.13035478       6.28700265       0.25738211       10      -0.00096023       0.00067899       0.00117604
In      -1.23668385      -2.19473397       6.83063515       11       0.00096023      -0.00067899      -0.00117604
In       4.13035478       2.77200224       1.77200431       12      -0.00096023      -0.00135797      -0.00000000
In       1.65698708       4.96673621       2.02938643       13       0.00096023      -0.00067899       0.00117604
In       4.34050639       0.00000000      -0.00000000       14      -0.00000000      -0.00000000      -0.00000000
In       1.44683546       2.04613434       3.54400863       15      -0.00000000       0.00000000       0.00000000
O        0.84824248       4.09051781       3.89017961       16      -0.00019314      -0.00054914       0.00021395
O       -2.04542845       3.36986980       5.14444375       17      -0.00019314       0.00045986       0.00036860
O       -0.39998743       2.20636730       0.07167194       18      -0.00014856       0.00042834       0.00042320
O       -0.84824248      -0.72414974       1.94660610       19       0.00019314      -0.00008928       0.00058255
O        3.85895320       4.85779823       1.87493415       20       0.00049794       0.00033362       0.00015935
O        1.92838866       2.85129284       1.60043512       21      -0.00049794       0.00002881       0.00036860
O        1.92838866       6.09877406       0.27449904       22      -0.00049794       0.00030481      -0.00020925
O       -2.21351218       5.78005901       3.61568057       23      -0.00045336      -0.00000272       0.00042320
O        3.29365836       1.88590138       7.01634532       24       0.00014856      -0.00042834      -0.00042320
O        5.10718311      -1.68779033       3.47233669       25       0.00045336       0.00000272      -0.00042320
O        6.18732929       3.21138771       1.66907447       26       0.00014856       0.00058067      -0.00015935
O        3.57382968       2.28737606       3.81850767       27      -0.00045336       0.00036786      -0.00020925
O        0.68015875       4.20937096       6.74184628       28      -0.00045336      -0.00036514      -0.00021395
O        2.21351218      -0.11710228       0.34617098       29       0.00045336       0.00036514       0.00021395
O       -3.29365836       0.88088097       5.41894279       30      -0.00014856      -0.00058067       0.00015935
O        4.93909938       0.72239888       1.94357351       31       0.00019314      -0.00045986      -0.00036860
O        0.96528227       1.24097584       5.48758214       32       0.00049794      -0.00002881      -0.00036860
O        3.29365836      -1.00502041       5.49061473       33       0.00014856      -0.00015233       0.00058255
O        2.04542845       0.00175087       3.19783765       34       0.00019314       0.00054914      -0.00021395
O        0.96528227      -2.00650539       6.81351822       35       0.00049794      -0.00030481       0.00020925
O       -0.68015875       1.80489262       3.26950959       36       0.00045336      -0.00036786       0.00020925
O       -0.96528227      -0.76552955       5.21308310       37      -0.00049794      -0.00033362      -0.00015935
O       -0.39998743       5.09728909       1.59740253       38      -0.00014856       0.00015233      -0.00058255
O        3.74191341       4.81641842       5.14141116       39      -0.00019314       0.00008928      -0.00058255
