40
Lattice="9.597537615870134 7.522250791812756e-10 2.933488341053358e-14 -3.1991792059992488 9.048645240915581 -1.3029249040941153e-09 -3.199179204935467 -4.524322619705545 7.836356649334652" Properties=species:S:1:pos:R:3:spacegroup_kinds:I:1:forces:R:3 spacegroup="P 1" unit_cell=conventional occupancy="_JSON {\"0\": {\"In\": 1}, \"1\": {\"In\": 1}, \"2\": {\"In\": 1}, \"3\": {\"In\": 1}, \"4\": {\"In\": 1}, \"5\": {\"In\": 1}, \"6\": {\"In\": 1}, \"7\": {\"In\": 1}, \"8\": {\"In\": 1}, \"9\": {\"In\": 1}, \"10\": {\"In\": 1}, \"11\": {\"In\": 1}, \"12\": {\"In\": 1}, \"13\": {\"In\": 1}, \"14\": {\"In\": 1}, \"15\": {\"In\": 1}, \"16\": {\"O\": 1}, \"17\": {\"O\": 1}, \"18\": {\"O\": 1}, \"19\": {\"O\": 1}, \"20\": {\"O\": 1}, \"21\": {\"O\": 1}, \"22\": {\"O\": 1}, \"23\": {\"O\": 1}, \"24\": {\"O\": 1}, \"25\": {\"O\": 1}, \"26\": {\"O\": 1}, \"27\": {\"O\": 1}, \"28\": {\"O\": 1}, \"29\": {\"O\": 1}, \"30\": {\"O\": 1}, \"31\": {\"O\": 1}, \"32\": {\"O\": 1}, \"33\": {\"O\": 1}, \"34\": {\"O\": 1}, \"35\": {\"O\": 1}, \"36\": {\"O\": 1}, \"37\": {\"O\": 1}, \"38\": {\"O\": 1}, \"39\": {\"O\": 1}}" n_minim_iter=1 energy=-45143.150662238324 stress="0.11607637185194168 -3.7548720513617344e-13 1.916961894042982e-13 -3.7548720513617344e-13 0.11607637185217524 8.794695867215098e-14 1.916961894042982e-13 8.794695867215098e-14 0.1160763718523787" free_energy=-45143.150662238324 pbc="T T T"
In      -4.51983204       3.19600388       6.21889387        0       0.05218541      -0.03690065       0.06391381
In       7.71901124       1.32831874       1.61746278        1      -0.05218541       0.03690065      -0.06391381
In       1.32065283      -0.93384257       5.53564110        2      -0.05218541       0.03690065      -0.06391381
In      -1.59958960      -2.26216131       3.91817832        3       0.00000000      -0.00000000      -0.00000000
In      -1.32065283       4.32708454       3.57655194        4       0.05218541      -0.03690065      -0.06391381
In       5.07770558      -2.99876580       5.87726748        5       0.05218541       0.07380131      -0.00000000
In      -1.32065283       1.52555682       5.87726748        6       0.05218541       0.07380131       0.00000000
In      -1.87852638       7.52308842       1.95908916        7      -0.05218541      -0.07380131       0.00000000
In       4.51983203       0.19723809       4.25980470        8      -0.05218541       0.03690065       0.06391381
In      -1.59958960       4.52432262      -0.00000000        9       0.00000000      -0.00000000      -0.00000000
In       4.51983203       6.98372202       0.34162638       10      -0.05218541       0.03690065       0.06391381
In      -1.32065283      -2.45939939       7.49473026       11       0.05218541      -0.03690065      -0.06391381
In       4.51983203       2.99876580       1.95908916       12      -0.05218541      -0.07380131       0.00000000
In       1.87852637       5.45816519       2.30071554       13       0.05218541      -0.03690065       0.06391381
In       4.79876881       0.00000000      -0.00000000       14      -0.00000000      -0.00000000       0.00000000
In       1.59958960       2.26216131       3.91817832       15      -0.00000000       0.00000000      -0.00000000
O        1.07172919       4.53202017       4.21629129       16       0.00667947       0.03183849      -0.02164220
O       -2.12745002       3.64756660       5.72154473       17       0.00667947      -0.03466194      -0.01675185
O       -0.46211313       2.46999560      -0.07519911       18      -0.00043548      -0.02963091      -0.02546585
O       -1.07172919      -0.86905848       2.10147938       19      -0.00667947      -0.00282344      -0.03839404
O        4.14810877       5.34996488       2.17667848       20      -0.03490608      -0.01187927      -0.01292819
O        2.25024963       3.05208489       1.80336641       21       0.03490608       0.00525651      -0.01675185
O        2.25024963       6.82220261       0.37331207       22       0.03490608      -0.01713578       0.00382365
O       -2.48277189       6.39883650       3.84297922       23       0.02779113       0.01028754      -0.02546585
O        3.66129233       2.05432703       7.91155575       24       0.00043548       0.02963091       0.02546585
O        5.68195109      -1.87451388       3.99337743       25      -0.02779113      -0.01028754       0.02546585
O        6.86047153       3.43203478       1.74149984       26       0.00043548      -0.03686952       0.01292819
O        3.91558652       2.39086069       4.29149040       27       0.02779113      -0.02719784       0.00382365
O        0.71640732       4.78327067       7.53824367       28       0.02779113       0.01691030       0.02164220
O        2.48277189      -0.25894805       0.29811297       29      -0.02779113      -0.01691030      -0.02164220
O       -3.66129233       1.09228785       6.09485680       30      -0.00043548       0.03686952      -0.01292819
O        5.32662922       0.87675602       2.11481191       31      -0.00667947       0.03466194       0.01675185
O        0.94892957       1.47223774       6.03299024       32      -0.03490608      -0.00525651       0.01675185
O        3.66129233      -0.96203918       6.01965770       33       0.00043548       0.00723862      -0.03839404
O        2.12745001      -0.00769754       3.62006535       34      -0.00667947      -0.03183849       0.02164220
O        0.94892957      -2.29787999       7.46304457       35      -0.03490608       0.01713578      -0.00382365
O       -0.71640732       2.13346193       3.54486625       36      -0.02779113       0.02719784      -0.00382365
O       -0.94892957      -0.82564225       5.65967816       37       0.03490608       0.01187927       0.01292819
O       -0.46211313       5.48636180       1.81669894       38      -0.00043548      -0.00723862       0.03839404
O        4.27090839       5.39338110       5.73487727       39       0.00667947       0.00282344       0.03839404
40
Lattice="9.597537615870133 7.522250791812753e-10 2.933488341053356e-14 -3.199179205999248 9.048645240915576 -1.3029249040941145e-09 -3.199179204935466 -4.524322619705543 7.836356649334649" Properties=species:S:1:pos:R:3:spacegroup_kinds:I:1:forces:R:3 spacegroup="P 1" unit_cell=conventional occupancy="_JSON {\"0\": {\"In\": 1}, \"1\": {\"In\": 1}, \"2\": {\"In\": 1}, \"3\": {\"In\": 1}, \"4\": {\"In\": 1}, \"5\": {\"In\": 1}, \"6\": {\"In\": 1}, \"7\": {\"In\": 1}, \"8\": {\"In\": 1}, \"9\": {\"In\": 1}, \"10\": {\"In\": 1}, \"11\": {\"In\": 1}, \"12\": {\"In\": 1}, \"13\": {\"In\": 1}, \"14\": {\"In\": 1}, \"15\": {\"In\": 1}, \"16\": {\"O\": 1}, \"17\": {\"O\": 1}, \"18\": {\"O\": 1}, \"19\": {\"O\": 1}, \"20\": {\"O\": 1}, \"21\": {\"O\": 1}, \"22\": {\"O\": 1}, \"23\": {\"O\": 1}, \"24\": {\"O\": 1}, \"25\": {\"O\": 1}, \"26\": {\"O\": 1}, \"27\": {\"O\": 1}, \"28\": {\"O\": 1}, \"29\": {\"O\": 1}, \"30\": {\"O\": 1}, \"31\": {\"O\": 1}, \"32\": {\"O\": 1}, \"33\": {\"O\": 1}, \"34\": {\"O\": 1}, \"35\": {\"O\": 1}, \"36\": {\"O\": 1}, \"37\": {\"O\": 1}, \"38\": {\"O\": 1}, \"39\": {\"O\": 1}}" n_minim_iter=2 energy=-45143.157557489605 stress="0.11536363351861224 -2.825219157529135e-13 1.6033004971657405e-13 -2.825219157529135e-13 0.11536363351892051 4.9007830617033145e-14 1.6033004971657405e-13 4.9007830617033145e-14 0.11536363351835811" free_energy=-45143.157557489605 pbc="T T T"
In      -4.51610451       3.19336812       6.22345914        0       0.03057664      -0.02162095       0.03744858
In       7.71528371       1.33095450       1.61289751        1      -0.03057664       0.02162095      -0.03744858
In       1.31692530      -0.93120681       5.53107583        2      -0.03057664       0.02162095      -0.03744858
In      -1.59958960      -2.26216131       3.91817832        3      -0.00000000      -0.00000000       0.00000000
In      -1.31692530       4.32444878       3.57198667        4       0.03057664      -0.02162095      -0.03744858
In       5.08143311      -2.99349427       5.87726748        5       0.03057664       0.04324190      -0.00000000
In      -1.31692530       1.53082835       5.87726748        6       0.03057664       0.04324190      -0.00000000
In      -1.88225391       7.51781690       1.95908916        7      -0.03057664      -0.04324190       0.00000000
In       4.51610450       0.19987385       4.26436998        8      -0.03057664       0.02162095       0.03744858
In      -1.59958960       4.52432262      -0.00000000        9      -0.00000000       0.00000000       0.00000000
In       4.51610450       6.98635778       0.34619165       10      -0.03057664       0.02162095       0.03744858
In      -1.31692530      -2.46203515       7.49016499       11       0.03057664      -0.02162095      -0.03744858
In       4.51610450       2.99349428       1.95908916       12      -0.03057664      -0.04324190      -0.00000000
In       1.88225390       5.45552943       2.30528081       13       0.03057664      -0.02162095       0.03744858
In       4.79876881       0.00000000      -0.00000000       14       0.00000000       0.00000000       0.00000000
In       1.59958960       2.26216131       3.91817832       15       0.00000000       0.00000000       0.00000000
O        1.07220629       4.53429434       4.21474542       16       0.00643943      -0.00083286      -0.00026405
O       -2.12697291       3.64509075       5.72034817       17       0.00643943       0.00018775       0.00085331
O       -0.46214423       2.46787910      -0.07701810       18       0.00153826       0.00365341      -0.00514938
O       -1.07220630      -0.86926015       2.09873695       19      -0.00643943      -0.00064511       0.00058925
O        4.14561548       5.34911636       2.17575504       20      -0.00196946      -0.00232788       0.00573863
O        2.25274292       3.05246035       1.80216984       21       0.00196946      -0.00613374       0.00085331
O        2.25274292       6.82097863       0.37358519       22       0.00196946       0.00380586       0.00488532
O       -2.48078681       6.39957133       3.84116023       23      -0.00293171      -0.00266809      -0.00514938
O        3.66132344       2.05644352       7.91337474       24      -0.00153826      -0.00365341       0.00514938
O        5.67996601      -1.87524870       3.99519641       25       0.00293171       0.00266809       0.00514938
O        6.86050264       3.42940124       1.74242328       26      -0.00153826      -0.00263279      -0.00573863
O        3.91757160       2.38891799       4.29176351       27      -0.00293171      -0.00312545       0.00488532
O        0.71839240       4.78447855       7.53978955       28      -0.00293171       0.00579354       0.00026405
O        2.48078680      -0.26015593       0.29656710       29       0.00293171      -0.00579354      -0.00026405
O       -3.66132344       1.09492139       6.09393336       30       0.00153826       0.00263279       0.00573863
O        5.32615211       0.87923188       2.11600847       31      -0.00643943      -0.00018775      -0.00085331
O        0.94643628       1.47186227       6.03418680       32      -0.00196946       0.00613374      -0.00085331
O        3.66132344      -0.96152213       6.01691527       33      -0.00153826       0.00628619       0.00058925
O        2.12697291      -0.00997172       3.62161122       34      -0.00643943       0.00083286       0.00026405
O        0.94643628      -2.29665600       7.46277145       35      -0.00196946      -0.00380586      -0.00488532
O       -0.71839240       2.13540463       3.54459313       36       0.00293171       0.00312545      -0.00488532
O       -0.94643628      -0.82479373       5.66060161       37       0.00196946       0.00232788      -0.00573863
O       -0.46214423       5.48584476       1.81944137       38       0.00153826      -0.00628619      -0.00058925
O        4.27138550       5.39358277       5.73761970       39       0.00643943       0.00064511      -0.00058925
40
Lattice="9.597537615870129 7.522250791812751e-10 2.9334883410533556e-14 -3.199179205999247 9.048645240915574 -1.3029249040941143e-09 -3.199179204935465 -4.524322619705542 7.836356649334647" Properties=species:S:1:pos:R:3:spacegroup_kinds:I:1:forces:R:3 spacegroup="P 1" unit_cell=conventional occupancy="_JSON {\"0\": {\"In\": 1}, \"1\": {\"In\": 1}, \"2\": {\"In\": 1}, \"3\": {\"In\": 1}, \"4\": {\"In\": 1}, \"5\": {\"In\": 1}, \"6\": {\"In\": 1}, \"7\": {\"In\": 1}, \"8\": {\"In\": 1}, \"9\": {\"In\": 1}, \"10\": {\"In\": 1}, \"11\": {\"In\": 1}, \"12\": {\"In\": 1}, \"13\": {\"In\": 1}, \"14\": {\"In\": 1}, \"15\": {\"In\": 1}, \"16\": {\"O\": 1}, \"17\": {\"O\": 1}, \"18\": {\"O\": 1}, \"19\": {\"O\": 1}, \"20\": {\"O\": 1}, \"21\": {\"O\": 1}, \"22\": {\"O\": 1}, \"23\": {\"O\": 1}, \"24\": {\"O\": 1}, \"25\": {\"O\": 1}, \"26\": {\"O\": 1}, \"27\": {\"O\": 1}, \"28\": {\"O\": 1}, \"29\": {\"O\": 1}, \"30\": {\"O\": 1}, \"31\": {\"O\": 1}, \"32\": {\"O\": 1}, \"33\": {\"O\": 1}, \"34\": {\"O\": 1}, \"35\": {\"O\": 1}, \"36\": {\"O\": 1}, \"37\": {\"O\": 1}, \"38\": {\"O\": 1}, \"39\": {\"O\": 1}}" n_minim_iter=3 energy=-45143.15948606824 stress="0.11475984781891943 7.929530036626368e-14 -2.3424920880199187e-13 7.929530036626368e-14 0.11475984781822961 -2.3357350526376336e-13 -2.3424920880199187e-13 -2.3357350526376336e-13 0.1147598478184609" free_energy=-45143.15948606824 pbc="T T T"
In      -4.51291779       3.19111477       6.22736205        0       0.01224624      -0.00865940       0.01499852
In       7.71209699       1.33320785       1.60899459        1      -0.01224624       0.00865940      -0.01499852
In       1.31373858      -0.92895346       5.52717292        2      -0.01224624       0.00865940      -0.01499852
In      -1.59958960      -2.26216131       3.91817832        3       0.00000000       0.00000000      -0.00000000
In      -1.31373859       4.32219543       3.56808375        4       0.01224624      -0.00865940      -0.01499852
In       5.08461982      -2.98898758       5.87726748        5       0.01224624       0.01731880       0.00000000
In      -1.31373859       1.53533504       5.87726748        6       0.01224624       0.01731880       0.00000000
In      -1.88544062       7.51331020       1.95908916        7      -0.01224624      -0.01731880       0.00000000
In       4.51291779       0.20212720       4.26827289        8      -0.01224624       0.00865940       0.01499852
In      -1.59958960       4.52432262      -0.00000000        9      -0.00000000      -0.00000000      -0.00000000
In       4.51291779       6.98861113       0.35009456       10      -0.01224624       0.00865940       0.01499852
In      -1.31373859      -2.46428850       7.48626208       11       0.01224624      -0.00865940      -0.01499852
In       4.51291779       2.98898758       1.95908916       12      -0.01224624      -0.01731880      -0.00000000
In       1.88544062       5.45327608       2.30918373       13       0.01224624      -0.00865940       0.01499852
In       4.79876881       0.00000000      -0.00000000       14       0.00000000       0.00000000      -0.00000000
In       1.59958960       2.26216131       3.91817832       15      -0.00000000       0.00000000       0.00000000
O        1.07267753       4.53574975       4.21373529       16       0.00498931      -0.02260156       0.01598665
O       -2.12650167       3.64348825       5.71959282       17       0.00498931       0.02514563       0.01158020
O       -0.46212584       2.46659681      -0.07832807       18       0.00406168       0.02580157       0.01044408
O       -1.07267754      -0.86940725       2.09697146       19      -0.00498931       0.00254407       0.02756685
O        4.14394755       5.34850715       2.17529953       20       0.02204442       0.00348582       0.01712277
O        2.25441086       3.05255023       1.80141450       21      -0.02204442      -0.01308585       0.01158020
O        2.25441086       6.82027954       0.37388503       22      -0.02204442       0.01657167       0.00554258
O       -2.47957172       6.39998142       3.83985026       23      -0.02297206      -0.01242991       0.01044408
O        3.66130504       2.05772581       7.91468471       24      -0.00406168      -0.02580157      -0.01044408
O        5.67875092      -1.87565879       3.99650638       25       0.02297206       0.01242991      -0.01044408
O        6.86048425       3.42762563       1.74287879       26      -0.00406168       0.02194562      -0.01712277
O        3.91878669       2.38757848       4.29206335       27      -0.02297206       0.01525979       0.00554258
O        0.71960748       4.78540797       7.54079968       28      -0.02297206      -0.00282988      -0.01598665
O        2.47957172      -0.26108535       0.29555696       29       0.02297206       0.00282988       0.01598665
O       -3.66130505       1.09669700       6.09347785       30       0.00406168      -0.02194562       0.01712277
O        5.32568087       0.88083438       2.11676382       31      -0.00498931      -0.02514563      -0.01158020
O        0.94476834       1.47177239       6.03494215       32       0.02204442       0.01308585      -0.01158020
O        3.66130504      -0.96102881       6.01514979       33      -0.00406168       0.00385595       0.02756685
O        2.12650167      -0.01142712       3.62262135       34      -0.00498931       0.02260156      -0.01598665
O        0.94476834      -2.29595691       7.46247162       35       0.02204442      -0.01657167      -0.00554258
O       -0.71960749       2.13674415       3.54429329       36       0.02297206      -0.01525979      -0.00554258
O       -0.94476835      -0.82418452       5.66105712       37      -0.02204442      -0.00348582      -0.01712277
O       -0.46212584       5.48535144       1.82120685       38       0.00406168      -0.00385595      -0.02756685
O        4.27185674       5.39372987       5.73938518       39       0.00498931      -0.00254407      -0.02756685
40
Lattice="9.59753761587013 7.522250791812752e-10 2.9334883410533575e-14 -3.1991792059992474 9.048645240915574 -1.3029249040941145e-09 -3.1991792049354655 -4.524322619705542 7.836356649334648" Properties=species:S:1:pos:R:3:spacegroup_kinds:I:1:forces:R:3 spacegroup="P 1" unit_cell=conventional occupancy="_JSON {\"0\": {\"In\": 1}, \"1\": {\"In\": 1}, \"2\": {\"In\": 1}, \"3\": {\"In\": 1}, \"4\": {\"In\": 1}, \"5\": {\"In\": 1}, \"6\": {\"In\": 1}, \"7\": {\"In\": 1}, \"8\": {\"In\": 1}, \"9\": {\"In\": 1}, \"10\": {\"In\": 1}, \"11\": {\"In\": 1}, \"12\": {\"In\": 1}, \"13\": {\"In\": 1}, \"14\": {\"In\": 1}, \"15\": {\"In\": 1}, \"16\": {\"O\": 1}, \"17\": {\"O\": 1}, \"18\": {\"O\": 1}, \"19\": {\"O\": 1}, \"20\": {\"O\": 1}, \"21\": {\"O\": 1}, \"22\": {\"O\": 1}, \"23\": {\"O\": 1}, \"24\": {\"O\": 1}, \"25\": {\"O\": 1}, \"26\": {\"O\": 1}, \"27\": {\"O\": 1}, \"28\": {\"O\": 1}, \"29\": {\"O\": 1}, \"30\": {\"O\": 1}, \"31\": {\"O\": 1}, \"32\": {\"O\": 1}, \"33\": {\"O\": 1}, \"34\": {\"O\": 1}, \"35\": {\"O\": 1}, \"36\": {\"O\": 1}, \"37\": {\"O\": 1}, \"38\": {\"O\": 1}, \"39\": {\"O\": 1}}" n_minim_iter=4 energy=-45143.16064826101 stress="0.11435211536207116 -3.8992230700054967e-13 7.296727468768799e-13 -3.8992230700054967e-13 0.11435211536174664 4.9092572676638506e-14 7.296727468768799e-13 4.9092572676638506e-14 0.11435211536221997" free_energy=-45143.16064826101 pbc="T T T"
In      -4.50991211       3.18898944       6.23104324        0      -0.00160347       0.00113383      -0.00196385
In       7.70909132       1.33533319       1.60531340        1       0.00160347      -0.00113383       0.00196385
In       1.31073291      -0.92682812       5.52349173        2       0.00160347      -0.00113383       0.00196385
In      -1.59958960      -2.26216131       3.91817832        3       0.00000000      -0.00000000       0.00000000
In      -1.31073291       4.32007009       3.56440256        4      -0.00160347       0.00113383       0.00196385
In       5.08762550      -2.98473691       5.87726748        5      -0.00160347      -0.00226765      -0.00000000
In      -1.31073291       1.53958571       5.87726748        6      -0.00160347      -0.00226765       0.00000000
In      -1.88844630       7.50905953       1.95908916        7       0.00160347       0.00226765       0.00000000
In       4.50991211       0.20425253       4.27195408        8       0.00160347      -0.00113383      -0.00196385
In      -1.59958960       4.52432262      -0.00000000        9      -0.00000000       0.00000000      -0.00000000
In       4.50991211       6.99073646       0.35377575       10       0.00160347      -0.00113383      -0.00196385
In      -1.31073291      -2.46641384       7.48258089       11      -0.00160347       0.00113383       0.00196385
In       4.50991211       2.98473691       1.95908916       12       0.00160347       0.00226765       0.00000000
In       1.88844630       5.45115075       2.31286492       13      -0.00160347       0.00113383      -0.00196385
In       4.79876881       0.00000000      -0.00000000       14       0.00000000      -0.00000000      -0.00000000
In       1.59958960       2.26216131       3.91817832       15      -0.00000000      -0.00000000      -0.00000000
O        1.07335684       4.53502551       4.21426645       16      -0.00060106      -0.01542598       0.01838151
O       -2.12582236       3.64431037       5.71995444       17      -0.00060106       0.02363184       0.00416854
O       -0.46180712       2.46767390      -0.07840807       18       0.00753620       0.01787793       0.01413462
O       -1.07335685      -0.86930936       2.09786425       19       0.00060106       0.00820586       0.02255005
O        4.14449621       5.34836307       2.17627232       20       0.02248067      -0.00004524       0.00841543
O        2.25386219       3.05163573       1.80177612       21      -0.02248067      -0.00731059       0.00416854
O        2.25386219       6.82104996       0.37449619       22      -0.02248067       0.00726536       0.00424689
O       -2.48048097       6.39932189       3.83977026       23      -0.01434340      -0.01306451       0.01413462
O        3.66098632       2.05664872       7.91476471       24      -0.00753620      -0.01787793      -0.01413462
O        5.67966017      -1.87499926       3.99658639       25       0.01434340       0.01306451      -0.01413462
O        6.86016552       3.42809489       1.74190600       26      -0.00753620       0.02117990      -0.00841543
O        3.91787744       2.38783896       4.29267452       27      -0.01434340       0.01877319       0.00424689
O        0.71869823       4.78580702       7.54026851       28      -0.01434340      -0.00570868      -0.01838151
O        2.48048097      -0.26148440       0.29608813       29       0.01434340       0.00570868       0.01838151
O       -3.66098632       1.09622774       6.09445064       30       0.00753620      -0.02117990       0.00841543
O        5.32500156       0.88001226       2.11640220       31       0.00060106      -0.02363184      -0.00416854
O        0.94531701       1.47268689       6.03458053       32       0.02248067       0.00731059      -0.00416854
O        3.66098632      -0.96042098       6.01604258       33      -0.00753620      -0.00330197       0.02255005
O        2.12582236      -0.01070289       3.62209019       34       0.00060106       0.01542598      -0.01838151
O        0.94531701      -2.29672733       7.46186045       35       0.02248067      -0.00726536      -0.00424689
O       -0.71869824       2.13648367       3.54368212       36       0.01434340      -0.01877319      -0.00424689
O       -0.94531701      -0.82404045       5.66008433       37      -0.02248067       0.00004524      -0.00841543
O       -0.46180712       5.48474361       1.82031407       38       0.00753620       0.00330197      -0.02255005
O        4.27253605       5.39363199       5.73849239       39      -0.00060106      -0.00820586      -0.02255005
40
Lattice="9.597537615870129 7.522250791812748e-10 2.9334883410533556e-14 -3.1991792059992457 9.04864524091557 -1.302924904094114e-09 -3.1991792049354637 -4.52432261970554 7.836356649334644" Properties=species:S:1:pos:R:3:spacegroup_kinds:I:1:forces:R:3 spacegroup="P 1" unit_cell=conventional occupancy="_JSON {\"0\": {\"In\": 1}, \"1\": {\"In\": 1}, \"2\": {\"In\": 1}, \"3\": {\"In\": 1}, \"4\": {\"In\": 1}, \"5\": {\"In\": 1}, \"6\": {\"In\": 1}, \"7\": {\"In\": 1}, \"8\": {\"In\": 1}, \"9\": {\"In\": 1}, \"10\": {\"In\": 1}, \"11\": {\"In\": 1}, \"12\": {\"In\": 1}, \"13\": {\"In\": 1}, \"14\": {\"In\": 1}, \"15\": {\"In\": 1}, \"16\": {\"O\": 1}, \"17\": {\"O\": 1}, \"18\": {\"O\": 1}, \"19\": {\"O\": 1}, \"20\": {\"O\": 1}, \"21\": {\"O\": 1}, \"22\": {\"O\": 1}, \"23\": {\"O\": 1}, \"24\": {\"O\": 1}, \"25\": {\"O\": 1}, \"26\": {\"O\": 1}, \"27\": {\"O\": 1}, \"28\": {\"O\": 1}, \"29\": {\"O\": 1}, \"30\": {\"O\": 1}, \"31\": {\"O\": 1}, \"32\": {\"O\": 1}, \"33\": {\"O\": 1}, \"34\": {\"O\": 1}, \"35\": {\"O\": 1}, \"36\": {\"O\": 1}, \"37\": {\"O\": 1}, \"38\": {\"O\": 1}, \"39\": {\"O\": 1}}" n_minim_iter=5 energy=-45143.16115687638 stress="0.11439461514879674 2.5722735027338636e-13 1.9815941492770732e-13 2.5722735027338636e-13 0.11439461514819282 -1.448207208497826e-13 1.9815941492770732e-13 -1.448207208497826e-13 0.11439461514803517" free_energy=-45143.16115687638 pbc="T T T"
In      -4.50958219       3.18875615       6.23144731        0      -0.00107187       0.00075792      -0.00131276
In       7.70876140       1.33556647       1.60490934        1       0.00107187      -0.00075792       0.00131276
In       1.31040299      -0.92659484       5.52308766        2       0.00107187      -0.00075792       0.00131276
In      -1.59958960      -2.26216131       3.91817832        3      -0.00000000      -0.00000000       0.00000000
In      -1.31040299       4.31983681       3.56399850        4      -0.00107187       0.00075792       0.00131276
In       5.08795542      -2.98427033       5.87726748        5      -0.00107187      -0.00151585      -0.00000000
In      -1.31040299       1.54005229       5.87726748        6      -0.00107187      -0.00151585      -0.00000000
In      -1.88877622       7.50859295       1.95908916        7       0.00107187       0.00151585      -0.00000000
In       4.50958219       0.20448582       4.27235815        8       0.00107187      -0.00075792      -0.00131276
In      -1.59958960       4.52432262      -0.00000000        9      -0.00000000       0.00000000       0.00000000
In       4.50958219       6.99096975       0.35417982       10       0.00107187      -0.00075792      -0.00131276
In      -1.31040299      -2.46664712       7.48217682       11      -0.00107187       0.00075792       0.00131276
In       4.50958219       2.98427033       1.95908916       12       0.00107187       0.00151585       0.00000000
In       1.88877622       5.45091746       2.31326898       13      -0.00107187       0.00075792      -0.00131276
In       4.79876881       0.00000000      -0.00000000       14       0.00000000       0.00000000       0.00000000
In       1.59958960       2.26216131       3.91817832       15      -0.00000000      -0.00000000      -0.00000000
O        1.07351003       4.53395216       4.21514923       16      -0.00306188      -0.00132519       0.01140921
O       -2.12566918       3.64561155       5.72044260       17      -0.00306188       0.01054326      -0.00455696
O       -0.46154125       2.46889541      -0.07778190       18       0.00767026       0.00295449       0.00858717
O       -1.07351003      -0.86908153       2.09923519       19       0.00306188       0.00921808       0.00685225
O        4.14567192       5.34849675       2.17701709       20       0.01096091      -0.00426027      -0.00173492
O        2.25268649       3.05105758       1.80226428       21      -0.01096091      -0.00062765      -0.00455696
O        2.25268649       6.82176179       0.37475281       22      -0.01096091      -0.00363262       0.00282204
O       -2.48154400       6.39866406       3.84039642       23      -0.00022877      -0.00821642       0.00858717
O        3.66072045       2.05542722       7.91413855       24      -0.00767026      -0.00295449      -0.00858717
O        5.68072320      -1.87434144       3.99596022       25       0.00022877       0.00821642      -0.00858717
O        6.85989966       3.42924791       1.74116123       26      -0.00767026       0.00891396       0.00173492
O        3.91681442       2.38871015       4.29293113       27      -0.00022877       0.01154492       0.00282204
O        0.71763521       4.78559366       7.53938573       28      -0.00022877      -0.00332850      -0.01140921
O        2.48154399      -0.26127104       0.29697091       29       0.00022877       0.00332850       0.01140921
O       -3.66072046       1.09507471       6.09519541       30       0.00767026      -0.00891396      -0.00173492
O        5.32484838       0.87871107       2.11591404       31       0.00306188      -0.01054326       0.00455696
O        0.94649272       1.47326504       6.03409237       32       0.01096091       0.00062765       0.00455696
O        3.66072045      -0.96035250       6.01741351       33      -0.00767026      -0.00595946       0.00685225
O        2.12566918      -0.00962954       3.62120741       34       0.00306188       0.00132519      -0.01140921
O        0.94649272      -2.29743917       7.46160384       35       0.01096091       0.00363262      -0.00282204
O       -0.71763521       2.13561248       3.54342551       36       0.00022877      -0.01154492      -0.00282204
O       -0.94649272      -0.82417413       5.65933956       37      -0.01096091       0.00426027       0.00173492
O       -0.46154125       5.48467513       1.81894313       38       0.00767026       0.00595946      -0.00685225
O        4.27268923       5.39340415       5.73712145       39      -0.00306188      -0.00921808      -0.00685225
40