40
Lattice="9.597537615870129 7.522250791812745e-10 2.933488341053354e-14 -3.1991792059992443 9.048645240915567 -1.3029249040941137e-09 -3.1991792049354624 -4.524322619705538 7.8363566493346415" Properties=species:S:1:pos:R:3:spacegroup_kinds:I:1:forces:R:3 spacegroup="P 1" unit_cell=conventional occupancy="_JSON {\"0\": {\"In\": 1}, \"1\": {\"In\": 1}, \"2\": {\"In\": 1}, \"3\": {\"In\": 1}, \"4\": {\"In\": 1}, \"5\": {\"In\": 1}, \"6\": {\"In\": 1}, \"7\": {\"In\": 1}, \"8\": {\"In\": 1}, \"9\": {\"In\": 1}, \"10\": {\"In\": 1}, \"11\": {\"In\": 1}, \"12\": {\"In\": 1}, \"13\": {\"In\": 1}, \"14\": {\"In\": 1}, \"15\": {\"In\": 1}, \"16\": {\"O\": 1}, \"17\": {\"O\": 1}, \"18\": {\"O\": 1}, \"19\": {\"O\": 1}, \"20\": {\"O\": 1}, \"21\": {\"O\": 1}, \"22\": {\"O\": 1}, \"23\": {\"O\": 1}, \"24\": {\"O\": 1}, \"25\": {\"O\": 1}, \"26\": {\"O\": 1}, \"27\": {\"O\": 1}, \"28\": {\"O\": 1}, \"29\": {\"O\": 1}, \"30\": {\"O\": 1}, \"31\": {\"O\": 1}, \"32\": {\"O\": 1}, \"33\": {\"O\": 1}, \"34\": {\"O\": 1}, \"35\": {\"O\": 1}, \"36\": {\"O\": 1}, \"37\": {\"O\": 1}, \"38\": {\"O\": 1}, \"39\": {\"O\": 1}}" n_minim_iter=6 energy=-45143.16125912245 stress="0.11444701985456684 -1.9544815843154143e-13 2.44588673013942e-13 -1.9544815843154143e-13 0.1144470198539932 2.24532836423947e-14 2.44588673013942e-13 2.24532836423947e-14 0.11444701985467345" free_energy=-45143.16125912245 pbc="T T T"
In      -4.50962617       3.18878725       6.23139345        0       0.00042154      -0.00029807       0.00051628
In       7.70880537       1.33553538       1.60496319        1      -0.00042154       0.00029807      -0.00051628
In       1.31044696      -0.92662593       5.52314152        2      -0.00042154       0.00029807      -0.00051628
In      -1.59958960      -2.26216131       3.91817832        3      -0.00000000      -0.00000000      -0.00000000
In      -1.31044697       4.31986790       3.56405236        4       0.00042154      -0.00029807      -0.00051628
In       5.08791145      -2.98433252       5.87726748        5       0.00042154       0.00059615       0.00000000
In      -1.31044696       1.53999010       5.87726748        6       0.00042154       0.00059615       0.00000000
In      -1.88873224       7.50865515       1.95908916        7      -0.00042154      -0.00059615       0.00000000
In       4.50962617       0.20445472       4.27230429        8      -0.00042154       0.00029807       0.00051628
In      -1.59958960       4.52432262      -0.00000000        9      -0.00000000      -0.00000000       0.00000000
In       4.50962617       6.99093865       0.35412596       10      -0.00042154       0.00029807       0.00051628
In      -1.31044696      -2.46661603       7.48223068       11       0.00042154      -0.00029807      -0.00051628
In       4.50962617       2.98433253       1.95908916       12      -0.00042154      -0.00059615       0.00000000
In       1.88873224       5.45094856       2.31321512       13       0.00042154      -0.00029807       0.00051628
In       4.79876881       0.00000000      -0.00000000       14       0.00000000      -0.00000000       0.00000000
In       1.59958960       2.26216131       3.91817832       15       0.00000000      -0.00000000      -0.00000000
O        1.07348862       4.53348327       4.21570867       16      -0.00379330       0.00508825       0.00664149
O       -2.12569058       3.64633048       5.72056896       17      -0.00379330       0.00320758      -0.00772730
O       -0.46131265       2.46943756      -0.07734935       18       0.00655694      -0.00411115       0.00494911
O       -1.07348863      -0.86883149       2.09992098       19       0.00379330       0.00829582      -0.00108581
O        4.14635687       5.34849645       2.17727033       20       0.00428856      -0.00543845      -0.00603492
O        2.25200154       3.05083812       1.80239063       21      -0.00428856       0.00250717      -0.00772730
O        2.25200154       6.82198095       0.37487969       22      -0.00428856      -0.00794562       0.00169238
O       -2.48197894       6.39826782       3.84082897       23       0.00606168      -0.00481156       0.00494911
O        3.66049185       2.05488507       7.91370599       24      -0.00655694       0.00411115      -0.00494911
O        5.68115814      -1.87394519       3.99552767       25      -0.00606168       0.00481156      -0.00494911
O        6.85967106       3.42989359       1.74090799       26      -0.00655694       0.00223048       0.00603492
O        3.91637947       2.38928287       4.29305802       27       0.00606168       0.00669184       0.00169238
O        0.71720026       4.78541718       7.53882630       28       0.00606168      -0.00188028      -0.00664149
O        2.48197894      -0.26109456       0.29753034       29      -0.00606168       0.00188028       0.00664149
O       -3.66049185       1.09442904       6.09544865       30       0.00655694      -0.00223048      -0.00603492
O        5.32486978       0.87799214       2.11578768       31       0.00379330      -0.00320758       0.00772730
O        0.94717766       1.47348451       6.03396601       32       0.00428856      -0.00250717       0.00772730
O        3.66049185      -0.96045603       6.01809930       33      -0.00655694      -0.00634163      -0.00108581
O        2.12569058      -0.00916064       3.62064798       34       0.00379330      -0.00508825      -0.00664149
O        0.94717766      -2.29765833       7.46147695       35       0.00428856       0.00794562      -0.00169238
O       -0.71720027       2.13503976       3.54329863       36      -0.00606168      -0.00669184      -0.00169238
O       -0.94717767      -0.82417383       5.65908631       37      -0.00428856       0.00543845       0.00603492
O       -0.46131265       5.48477865       1.81825734       38       0.00655694       0.00634163       0.00108581
O        4.27266783       5.39315412       5.73643566       39      -0.00379330      -0.00829582       0.00108581
