40
Lattice="8.909564685600285 6.983050313062543e-10 3.1258141248514353e-15 -2.9698548958584636 8.400018141911435 -1.209501849212053e-09 -2.9698548948709123 -4.200009070257412 7.274629103951794" Properties=species:S:1:pos:R:3:spacegroup_kinds:I:1:forces:R:3 spacegroup="P 1" unit_cell=conventional occupancy="_JSON {\"0\": {\"In\": 1}, \"1\": {\"In\": 1}, \"2\": {\"In\": 1}, \"3\": {\"In\": 1}, \"4\": {\"In\": 1}, \"5\": {\"In\": 1}, \"6\": {\"In\": 1}, \"7\": {\"In\": 1}, \"8\": {\"In\": 1}, \"9\": {\"In\": 1}, \"10\": {\"In\": 1}, \"11\": {\"In\": 1}, \"12\": {\"In\": 1}, \"13\": {\"In\": 1}, \"14\": {\"In\": 1}, \"15\": {\"In\": 1}, \"16\": {\"O\": 1}, \"17\": {\"O\": 1}, \"18\": {\"O\": 1}, \"19\": {\"O\": 1}, \"20\": {\"O\": 1}, \"21\": {\"O\": 1}, \"22\": {\"O\": 1}, \"23\": {\"O\": 1}, \"24\": {\"O\": 1}, \"25\": {\"O\": 1}, \"26\": {\"O\": 1}, \"27\": {\"O\": 1}, \"28\": {\"O\": 1}, \"29\": {\"O\": 1}, \"30\": {\"O\": 1}, \"31\": {\"O\": 1}, \"32\": {\"O\": 1}, \"33\": {\"O\": 1}, \"34\": {\"O\": 1}, \"35\": {\"O\": 1}, \"36\": {\"O\": 1}, \"37\": {\"O\": 1}, \"38\": {\"O\": 1}, \"39\": {\"O\": 1}}" n_minim_iter=1 energy=-45151.91153042493 stress="0.0002578158941507908 -3.0049011787611684e-13 2.1329050030703555e-14 -3.0049011787611684e-13 0.0002578158951236554 8.625525786859809e-14 2.1329050030703555e-14 8.625525786859809e-14 0.0002578158955680669" free_energy=-45151.91153042493 pbc="T T T"
In      -4.25424084       3.00820255       5.70158400        0       0.00144315      -0.00102046       0.00176749
In       7.22409574       1.19180653       1.57304510        1      -0.00144315       0.00102046      -0.00176749
In       1.28438595      -0.90819801       5.21035965        2      -0.00144315       0.00102046      -0.00176749
In      -1.48492745      -2.10000453       3.63731455        3      -0.00000000       0.00000000      -0.00000000
In      -1.28438595       4.05820482       3.39170237        4       0.00144315      -0.00102046      -0.00176749
In       4.65532384      -2.86639829       5.45597183        5       0.00144315       0.00204092      -0.00000000
In      -1.28438595       1.33361078       5.45597182        6       0.00144315       0.00204092       0.00000000
In      -1.68546895       7.06640737       1.81865727        7      -0.00144315      -0.00204092      -0.00000000
In       4.25424084       0.14180426       3.88292672        8      -0.00144315       0.00102046       0.00176749
In      -1.48492745       4.20000907      -0.00000000        9       0.00000000      -0.00000000      -0.00000000
In       4.25424084       6.44181786       0.24561217       10      -0.00144315       0.00102046       0.00176749
In      -1.28438595      -2.24180879       7.02901693       11       0.00144315      -0.00102046      -0.00176749
In       4.25424084       2.86639830       1.81865727       12      -0.00144315      -0.00204092       0.00000000
In       1.68546895       5.10820709       2.06426945       13       0.00144315      -0.00102046       0.00176749
In       4.45478234       0.00000000      -0.00000000       14       0.00000000      -0.00000000      -0.00000000
In       1.48492745       2.10000454       3.63731455       15       0.00000000       0.00000000       0.00000000
O        0.87293982       4.20024608       3.95985577       16       0.00467998      -0.00347762      -0.00516726
O       -2.09691508       3.42921720       5.29449596       17       0.00467998      -0.00273617       0.00559534
O       -0.43550616       2.25442368       0.05466890       18      -0.00429842       0.00361252      -0.00540092
O       -0.87293982      -0.77055487       1.97972263       19      -0.00467998      -0.00621379       0.00042807
O        3.93206866       5.00212705       1.92505372       20      -0.00413968       0.00309557       0.00582899
O        2.00764112       2.93392263       1.65718140       21       0.00413968      -0.00350027       0.00559534
O        2.00764112       6.26821349       0.26787232       22       0.00413968       0.00659584       0.00023366
O       -2.27065975       5.95913819       3.69198346       23      -0.00483872       0.00284842      -0.00540092
O        3.40536105       1.94558539       7.21996019       24       0.00429842      -0.00361252       0.00540092
O        5.24051464      -1.75912911       3.58264564       25       0.00483872      -0.00284842       0.00540092
O        6.37521595       3.27456104       1.71226082       26       0.00429842      -0.00287107      -0.00582899
O        3.66905004       2.31778691       3.90518687       27      -0.00483872      -0.00610154       0.00023366
O        0.69919514       4.32310212       6.95208788       28      -0.00483872       0.00325312       0.00516726
O        2.27065975      -0.12309305       0.32254122       29       0.00483872      -0.00325312      -0.00516726
O       -3.40536105       0.92544803       5.56236827       30      -0.00429842       0.00287107       0.00582899
O        5.06676997       0.77079188       1.98013314       31      -0.00467998       0.00273617      -0.00559534
O        0.96221377       1.26608644       5.61744769       32      -0.00413968       0.00350027      -0.00559534
O        3.40536105      -1.02013735       5.61703718       33       0.00429842       0.00648359       0.00042807
O        2.09691507      -0.00023701       3.31477332       34      -0.00467998       0.00347762       0.00516726
O        0.96221377      -2.06820442       7.00675678       35      -0.00413968      -0.00659584      -0.00023366
O       -0.69919515       1.88222217       3.36944223       36       0.00483872       0.00610154      -0.00023366
O       -0.96221377      -0.80211797       5.34957538       37       0.00413968      -0.00309557      -0.00582899
O       -0.43550616       5.22014643       1.65759192       38      -0.00429842      -0.00648359      -0.00042807
O        3.84279471       4.97056394       5.29490647       39       0.00467998       0.00621379      -0.00042807
