40
Lattice="8.356180287191071 6.549316218968175e-10 2.3697095533911715e-14 -2.7853934296811658 7.878282327635231 -1.1343847466328807e-09 -2.785393428754971 -3.9391411631626836 6.822792634674351" Properties=species:S:1:pos:R:3:spacegroup_kinds:I:1:forces:R:3 spacegroup="P 1" unit_cell=conventional occupancy="_JSON {\"0\": {\"In\": 1}, \"1\": {\"In\": 1}, \"2\": {\"In\": 1}, \"3\": {\"In\": 1}, \"4\": {\"In\": 1}, \"5\": {\"In\": 1}, \"6\": {\"In\": 1}, \"7\": {\"In\": 1}, \"8\": {\"In\": 1}, \"9\": {\"In\": 1}, \"10\": {\"In\": 1}, \"11\": {\"In\": 1}, \"12\": {\"In\": 1}, \"13\": {\"In\": 1}, \"14\": {\"In\": 1}, \"15\": {\"In\": 1}, \"16\": {\"O\": 1}, \"17\": {\"O\": 1}, \"18\": {\"O\": 1}, \"19\": {\"O\": 1}, \"20\": {\"O\": 1}, \"21\": {\"O\": 1}, \"22\": {\"O\": 1}, \"23\": {\"O\": 1}, \"24\": {\"O\": 1}, \"25\": {\"O\": 1}, \"26\": {\"O\": 1}, \"27\": {\"O\": 1}, \"28\": {\"O\": 1}, \"29\": {\"O\": 1}, \"30\": {\"O\": 1}, \"31\": {\"O\": 1}, \"32\": {\"O\": 1}, \"33\": {\"O\": 1}, \"34\": {\"O\": 1}, \"35\": {\"O\": 1}, \"36\": {\"O\": 1}, \"37\": {\"O\": 1}, \"38\": {\"O\": 1}, \"39\": {\"O\": 1}}" n_minim_iter=1 energy=-45145.28880207093 stress="-0.16237213684703256 1.9204198993434288e-13 3.8431051793311134e-13 1.9204198993434288e-13 -0.16237213684601914 -2.145576242241326e-13 3.8431051793311134e-13 -2.145576242241326e-13 -0.16237213684602336" free_energy=-45145.28880207093 pbc="T T T"
In      -3.90592136       2.76190348       5.45043179        0       0.11424771      -0.08078533       0.13992430
In       6.69131479       1.17723769       1.37236083        1      -0.11424771       0.08078533      -0.13992430
In       1.12052793      -0.79233290       4.78375715        2      -0.11424771       0.08078533      -0.13992430
In      -1.39269672      -1.96957058       3.41139632        3       0.00000000      -0.00000000      -0.00000000
In      -1.12052793       3.74668877       3.07805899        4       0.11424771      -0.08078533      -0.13992430
In       4.45025893      -2.56945109       5.11709447        5       0.11424771       0.16157066      -0.00000000
In      -1.12052793       1.36969008       5.11709447        6       0.11424771       0.16157066      -0.00000000
In      -1.66486550       6.50859225       1.70569816        7      -0.11424771      -0.16157066       0.00000000
In       3.90592136       0.19245239       3.74473364        8      -0.11424771       0.08078533       0.13992430
In      -1.39269672       3.93914117      -0.00000000        9       0.00000000      -0.00000000       0.00000000
In       3.90592136       6.10116414       0.33333732       10      -0.11424771       0.08078533       0.13992430
In      -1.12052793      -2.16202297       6.48945531       11       0.11424771      -0.08078533      -0.13992430
In       3.90592136       2.56945109       1.70569816       12      -0.11424771      -0.16157066       0.00000000
In       1.66486550       4.73147406       2.03903548       13       0.11424771      -0.08078533       0.13992430
In       4.17809014       0.00000000      -0.00000000       14      -0.00000000      -0.00000000       0.00000000
In       1.39269671       1.96957058       3.41139631       15       0.00000000       0.00000000      -0.00000000
O        0.84222597       3.93681743       3.82330153       16      -0.01334973      -0.01256726       0.24351002
O       -1.94316746       3.31223812       4.91315429       17      -0.01334973       0.21716949      -0.11087144
O       -0.31249871       2.15918119       0.08751484       18       0.18845092       0.07447488       0.13628287
O       -0.84222597      -0.62922678       1.91366318       19       0.01334973       0.20460223       0.13263858
O        3.77053053       4.61889467       1.82614834       20       0.20919927      -0.12591928      -0.00364429
O        1.80025632       2.69752706       1.50175797       21      -0.20919927      -0.05980359      -0.11087144
O        1.80025632       5.86050877       0.32439037       22      -0.20919927      -0.06611569       0.10722715
O       -2.13986179       5.48361129       3.49891115       23      -0.00739862      -0.20249820       0.13628287
O        3.09789214       1.77995998       6.73527779       24      -0.18845092      -0.07447488      -0.13628287
O        4.92525521      -1.54447013       3.32388148       25       0.00739862       0.20249820      -0.13628287
O        5.88328557       3.12495125       1.58524797       26      -0.18845092       0.15526187       0.00364429
O        3.43092507       2.25791089       3.73578669       27      -0.00739862       0.21927353       0.10722715
O        0.64553164       4.07590132       6.41088742       28      -0.00739862      -0.01677533      -0.24351002
O        2.13986179      -0.13676015       0.41190521       29       0.00739862       0.01677533       0.24351002
O       -3.09789214       0.81418991       5.23754466       30       0.18845092      -0.15526187      -0.00364429
O        4.72856089       0.62690305       1.90963834       31       0.01334973      -0.21716949       0.11087144
O        0.98513710       1.24161411       5.32103466       32       0.20919927       0.05980359       0.11087144
O        3.09789214      -0.96577006       5.32505950       33      -0.18845092      -0.08078699       0.13263858
O        1.94316746       0.00232374       2.99949110       34       0.01334973       0.01256726      -0.24351002
O        0.98513710      -1.92136760       6.49840226       35       0.20919927       0.06611569      -0.10722715
O       -0.64553164       1.68123028       3.08700594       36       0.00739862      -0.21927353      -0.10722715
O       -0.98513711      -0.67975350       4.99664429       37      -0.20919927       0.12591928       0.00364429
O       -0.31249871       4.90491123       1.49773313       38       0.18845092       0.08078699      -0.13263858
O        3.62761940       4.56836795       4.90912945       39      -0.01334973      -0.20460223      -0.13263858
40
Lattice="8.356180287191076 6.549316218968182e-10 2.369709553391173e-14 -2.7853934296811693 7.878282327635239 -1.1343847466328813e-09 -2.7853934287549746 -3.9391411631626876 6.822792634674356" Properties=species:S:1:pos:R:3:spacegroup_kinds:I:1:forces:R:3 spacegroup="P 1" unit_cell=conventional occupancy="_JSON {\"0\": {\"In\": 1}, \"1\": {\"In\": 1}, \"2\": {\"In\": 1}, \"3\": {\"In\": 1}, \"4\": {\"In\": 1}, \"5\": {\"In\": 1}, \"6\": {\"In\": 1}, \"7\": {\"In\": 1}, \"8\": {\"In\": 1}, \"9\": {\"In\": 1}, \"10\": {\"In\": 1}, \"11\": {\"In\": 1}, \"12\": {\"In\": 1}, \"13\": {\"In\": 1}, \"14\": {\"In\": 1}, \"15\": {\"In\": 1}, \"16\": {\"O\": 1}, \"17\": {\"O\": 1}, \"18\": {\"O\": 1}, \"19\": {\"O\": 1}, \"20\": {\"O\": 1}, \"21\": {\"O\": 1}, \"22\": {\"O\": 1}, \"23\": {\"O\": 1}, \"24\": {\"O\": 1}, \"25\": {\"O\": 1}, \"26\": {\"O\": 1}, \"27\": {\"O\": 1}, \"28\": {\"O\": 1}, \"29\": {\"O\": 1}, \"30\": {\"O\": 1}, \"31\": {\"O\": 1}, \"32\": {\"O\": 1}, \"33\": {\"O\": 1}, \"34\": {\"O\": 1}, \"35\": {\"O\": 1}, \"36\": {\"O\": 1}, \"37\": {\"O\": 1}, \"38\": {\"O\": 1}, \"39\": {\"O\": 1}}" n_minim_iter=2 energy=-45145.44247848717 stress="-0.1379888292287385 -4.964873969133244e-13 4.156510024631127e-14 -4.964873969133244e-13 -0.1379888292283466 -7.582462598944414e-13 4.156510024631127e-14 -7.582462598944414e-13 -0.13798882922854053" free_energy=-45145.44247848717 pbc="T T T"
In      -3.88650962       2.74817731       5.47420623        0       0.10355420      -0.07322387       0.12682747
In       6.67190304       1.19096386       1.34858640        1      -0.10355420       0.07322387      -0.12682747
In       1.10111619      -0.77860672       4.75998272        2      -0.10355420       0.07322387      -0.12682747
In      -1.39269672      -1.96957058       3.41139632        3      -0.00000000      -0.00000000      -0.00000000
In      -1.10111619       3.73296260       3.05428456        4       0.10355420      -0.07322387      -0.12682747
In       4.46967067      -2.54199873       5.11709447        5       0.10355420       0.14644775      -0.00000000
In      -1.10111619       1.39714243       5.11709447        6       0.10355420       0.14644775       0.00000000
In      -1.68427724       6.48113990       1.70569816        7      -0.10355420      -0.14644775       0.00000000
In       3.88650961       0.20617857       3.76850807        8      -0.10355420       0.07322387       0.12682747
In      -1.39269672       3.93914117      -0.00000000        9      -0.00000000      -0.00000000      -0.00000000
In       3.88650961       6.11489032       0.35711175       10      -0.10355420       0.07322387       0.12682747
In      -1.10111619      -2.17574915       6.46568088       11       0.10355420      -0.07322387      -0.12682747
In       3.88650961       2.54199874       1.70569816       12      -0.10355420      -0.14644775      -0.00000000
In       1.68427724       4.71774789       2.06280991       13       0.10355420      -0.07322387       0.12682747
In       4.17809014       0.00000000      -0.00000000       14       0.00000000       0.00000000       0.00000000
In       1.39269671       1.96957058       3.41139631       15       0.00000000      -0.00000000       0.00000000
O        0.83995773       3.93468213       3.86467613       16      -0.02384354      -0.01585289      -0.07400013
O       -1.94543570       3.34913723       4.89431620       17      -0.02384354      -0.05615955       0.05072907
O       -0.28047916       2.17183517       0.11067056       18      -0.07584182      -0.01939121      -0.01295556
O       -0.83995773      -0.59446297       1.93619970       19       0.02384354      -0.07201244      -0.02327106
O        3.80607543       4.59749981       1.82552914       20      -0.04499988       0.06453254      -0.01031550
O        1.76471143       2.68736588       1.48291988       21       0.04499988       0.04119976       0.05072907
O        1.76471143       5.84927510       0.34260925       22       0.04499988       0.02333278      -0.06104457
O       -2.14111888       5.44920498       3.52206688       23      -0.00699840       0.07796809      -0.01295556
O        3.06587258       1.76730600       6.71212207       24       0.07584182       0.01939121       0.01295556
O        4.92651231      -1.51006381       3.30072575       25       0.00699840      -0.07796809       0.01295556
O        5.85126601       3.15133168       1.58586717       26       0.07584182      -0.02091545       0.01031550
O        3.42966798       2.29516749       3.75400557       27      -0.00699840      -0.05020389      -0.06104457
O        0.64427455       4.07305103       6.36951281       28      -0.00699840      -0.02776421       0.07400013
O        2.14111888      -0.13390987       0.45327982       29       0.00699840       0.02776421      -0.07400013
O       -3.06587258       0.78780948       5.23692546       30      -0.07584182       0.02091545      -0.01031550
O        4.73082913       0.59000394       1.92847643       31       0.02384354       0.05615955      -0.05072907
O        1.02068200       1.25177529       5.33987275       32      -0.04499988      -0.04119976      -0.05072907
O        3.06587258      -0.97949652       5.34759602       33       0.07584182       0.00152424      -0.02327106
O        1.94543570       0.00445904       2.95811650       34       0.02384354       0.01585289       0.07400013
O        1.02068200      -1.91013394       6.48018337       35      -0.04499988      -0.02333278       0.06104457
O       -0.64427455       1.64397368       3.06878706       36       0.00699840       0.05020389       0.06104457
O       -1.02068200      -0.65835865       4.99726349       37       0.04499988      -0.06453254       0.01031550
O       -0.28047916       4.91863768       1.47519661       38      -0.07584182      -0.00152424       0.02327106
O        3.62535116       4.53360414       4.88659293       39      -0.02384354       0.07201244       0.02327106
40
Lattice="8.356180287191075 6.549316218968181e-10 2.3697095533911734e-14 -2.785393429681169 7.8782823276352385 -1.1343847466328813e-09 -2.785393428754974 -3.939141163162687 6.8227926346743555" Properties=species:S:1:pos:R:3:spacegroup_kinds:I:1:forces:R:3 spacegroup="P 1" unit_cell=conventional occupancy="_JSON {\"0\": {\"In\": 1}, \"1\": {\"In\": 1}, \"2\": {\"In\": 1}, \"3\": {\"In\": 1}, \"4\": {\"In\": 1}, \"5\": {\"In\": 1}, \"6\": {\"In\": 1}, \"7\": {\"In\": 1}, \"8\": {\"In\": 1}, \"9\": {\"In\": 1}, \"10\": {\"In\": 1}, \"11\": {\"In\": 1}, \"12\": {\"In\": 1}, \"13\": {\"In\": 1}, \"14\": {\"In\": 1}, \"15\": {\"In\": 1}, \"16\": {\"O\": 1}, \"17\": {\"O\": 1}, \"18\": {\"O\": 1}, \"19\": {\"O\": 1}, \"20\": {\"O\": 1}, \"21\": {\"O\": 1}, \"22\": {\"O\": 1}, \"23\": {\"O\": 1}, \"24\": {\"O\": 1}, \"25\": {\"O\": 1}, \"26\": {\"O\": 1}, \"27\": {\"O\": 1}, \"28\": {\"O\": 1}, \"29\": {\"O\": 1}, \"30\": {\"O\": 1}, \"31\": {\"O\": 1}, \"32\": {\"O\": 1}, \"33\": {\"O\": 1}, \"34\": {\"O\": 1}, \"35\": {\"O\": 1}, \"36\": {\"O\": 1}, \"37\": {\"O\": 1}, \"38\": {\"O\": 1}, \"39\": {\"O\": 1}}" n_minim_iter=3 energy=-45145.44987934801 stress="-0.13691472563490822 1.8423909455214127e-13 -4.634804425193205e-13 1.8423909455214127e-13 -0.1369147256354341 -5.670698851282589e-13 -4.634804425193205e-13 -5.670698851282589e-13 -0.13691472563538923" free_energy=-45145.44987934801 pbc="T T T"
In      -3.88265822       2.74545396       5.47892321        0       0.00487753      -0.00344894       0.00597373
In       6.66805165       1.19368721       1.34386942        1      -0.00487753       0.00344894      -0.00597373
In       1.09726479      -0.77588337       4.75526574        2      -0.00487753       0.00344894      -0.00597373
In      -1.39269672      -1.96957058       3.41139632        3       0.00000000      -0.00000000      -0.00000000
In      -1.09726479       3.73023925       3.04956758        4       0.00487753      -0.00344894      -0.00597373
In       4.47352207      -2.53655203       5.11709447        5       0.00487753       0.00689787       0.00000000
In      -1.09726479       1.40258913       5.11709447        6       0.00487753       0.00689787      -0.00000000
In      -1.68812864       6.47569320       1.70569816        7      -0.00487753      -0.00689787      -0.00000000
In       3.88265822       0.20890192       3.77322505        8      -0.00487753       0.00344894       0.00597373
In      -1.39269672       3.93914117      -0.00000000        9       0.00000000      -0.00000000      -0.00000000
In       3.88265822       6.11761367       0.36182873       10      -0.00487753       0.00344894       0.00597373
In      -1.09726479      -2.17847250       6.46096390       11       0.00487753      -0.00344894      -0.00597373
In       3.88265822       2.53655204       1.70569816       12      -0.00487753      -0.00689787      -0.00000000
In       1.68812864       4.71502454       2.06752689       13       0.00487753      -0.00344894       0.00597373
In       4.17809014       0.00000000      -0.00000000       14      -0.00000000       0.00000000      -0.00000000
In       1.39269671       1.96957058       3.41139631       15      -0.00000000      -0.00000000       0.00000000
O        0.83918410       3.93413552       3.86476388       16       0.01048747       0.03566998      -0.00726469
O       -1.94620933       3.34948652       4.89474570       17       0.01048747      -0.02412639      -0.02725876
O       -0.28092306       2.17195131       0.11150389       18       0.01437922      -0.02687828      -0.02249236
O       -0.83918410      -0.59466028       1.93671695       19      -0.01048747       0.01154359      -0.03452345
O        3.80666262       4.59817825       1.82521306       20      -0.02624241      -0.02452956      -0.01203109
O        1.76412424       2.68797883       1.48334939       21       0.02624241      -0.00184555      -0.02725876
O        1.76412424       5.84934059       0.34186367       22       0.02624241      -0.02268401       0.01522767
O       -2.14137635       5.44958478       3.52290021       23       0.03013416      -0.00459743      -0.02249236
O        3.06631649       1.76718986       6.71128874       24      -0.01437922       0.02687828       0.02249236
O        4.92676978      -1.51044361       3.29989242       25      -0.03013416       0.00459743       0.02249236
O        5.85170992       3.15211144       1.58618325       26      -0.01437922      -0.03291810       0.01203109
O        3.42941051       2.29569927       3.75325999       27       0.03013416      -0.01718024       0.01522767
O        0.64401708       4.07213945       6.36942507       28       0.03013416       0.02177767       0.00726469
O        2.14137635      -0.13299828       0.45336756       29      -0.03013416      -0.02177767      -0.00726469
O       -3.06631649       0.78702973       5.23660938       30       0.01437922       0.03291810      -0.01203109
O        4.73160276       0.58965464       1.92804693       31      -0.01048747       0.02412639       0.02725876
O        1.02126919       1.25116234       5.33944324       32      -0.02624241       0.00184555       0.02725876
O        3.06631649      -0.98016013       5.34811327       33      -0.01437922       0.00603982      -0.03452345
O        1.94620933       0.00500564       2.95802875       34      -0.01048747      -0.03566998       0.00726469
O        1.02126919      -1.91019942       6.48092896       35      -0.02624241       0.02268401      -0.01522767
O       -0.64401708       1.64344190       3.06953264       36      -0.03013416       0.01718024      -0.01522767
O       -1.02126919      -0.65903708       4.99757957       37       0.02624241       0.02452956       0.01203109
O       -0.28092306       4.91930130       1.47467936       38       0.01437922      -0.00603982       0.03452345
O        3.62457753       4.53380145       4.88607568       39       0.01048747      -0.01154359       0.03452345
40
Lattice="8.356180287191076 6.549316218968184e-10 2.369709553391174e-14 -2.78539342968117 7.878282327635241 -1.1343847466328817e-09 -2.7853934287549755 -3.9391411631626885 6.822792634674358" Properties=species:S:1:pos:R:3:spacegroup_kinds:I:1:forces:R:3 spacegroup="P 1" unit_cell=conventional occupancy="_JSON {\"0\": {\"In\": 1}, \"1\": {\"In\": 1}, \"2\": {\"In\": 1}, \"3\": {\"In\": 1}, \"4\": {\"In\": 1}, \"5\": {\"In\": 1}, \"6\": {\"In\": 1}, \"7\": {\"In\": 1}, \"8\": {\"In\": 1}, \"9\": {\"In\": 1}, \"10\": {\"In\": 1}, \"11\": {\"In\": 1}, \"12\": {\"In\": 1}, \"13\": {\"In\": 1}, \"14\": {\"In\": 1}, \"15\": {\"In\": 1}, \"16\": {\"O\": 1}, \"17\": {\"O\": 1}, \"18\": {\"O\": 1}, \"19\": {\"O\": 1}, \"20\": {\"O\": 1}, \"21\": {\"O\": 1}, \"22\": {\"O\": 1}, \"23\": {\"O\": 1}, \"24\": {\"O\": 1}, \"25\": {\"O\": 1}, \"26\": {\"O\": 1}, \"27\": {\"O\": 1}, \"28\": {\"O\": 1}, \"29\": {\"O\": 1}, \"30\": {\"O\": 1}, \"31\": {\"O\": 1}, \"32\": {\"O\": 1}, \"33\": {\"O\": 1}, \"34\": {\"O\": 1}, \"35\": {\"O\": 1}, \"36\": {\"O\": 1}, \"37\": {\"O\": 1}, \"38\": {\"O\": 1}, \"39\": {\"O\": 1}}" n_minim_iter=4 energy=-45145.4507106518 stress="-0.1380528974932651 -8.090214363203078e-13 -2.6192459541122877e-13 -8.090214363203078e-13 -0.13805289749396496 -4.8698886473684115e-15 -2.6192459541122877e-13 -4.8698886473684115e-15 -0.1380528974946247" free_energy=-45145.4507106518 pbc="T T T"
In      -3.88304777       2.74572941       5.47844611        0       0.00197886      -0.00139926       0.00242360
In       6.66844120       1.19341176       1.34434652        1      -0.00197886       0.00139926      -0.00242360
In       1.09765434      -0.77615882       4.75574284        2      -0.00197886       0.00139926      -0.00242360
In      -1.39269672      -1.96957058       3.41139632        3       0.00000000       0.00000000      -0.00000000
In      -1.09765434       3.73051470       3.05004468        4       0.00197886      -0.00139926      -0.00242360
In       4.47313252      -2.53710294       5.11709447        5       0.00197886       0.00279853      -0.00000000
In      -1.09765434       1.40203822       5.11709447        6       0.00197886       0.00279853      -0.00000000
In      -1.68773909       6.47624411       1.70569816        7      -0.00197886      -0.00279853       0.00000000
In       3.88304777       0.20862647       3.77274795        8      -0.00197886       0.00139926       0.00242360
In      -1.39269672       3.93914117      -0.00000000        9       0.00000000       0.00000000       0.00000000
In       3.88304777       6.11733821       0.36135163       10      -0.00197886       0.00139926       0.00242360
In      -1.09765434      -2.17819704       6.46144100       11       0.00197886      -0.00139926      -0.00242360
In       3.88304777       2.53710295       1.70569816       12      -0.00197886      -0.00279853       0.00000000
In       1.68773909       4.71529999       2.06704979       13       0.00197886      -0.00139926       0.00242360
In       4.17809014       0.00000000      -0.00000000       14      -0.00000000       0.00000000      -0.00000000
In       1.39269671       1.96957058       3.41139631       15       0.00000000       0.00000000       0.00000000
O        0.83963465       3.93558424       3.86255251       16       0.01041576       0.00911722       0.00789581
O       -1.94575878       3.34684707       4.89459676       17       0.01041576       0.00227937      -0.01184365
O       -0.28189552       2.17031807       0.10961212       18       0.01421672      -0.00040832      -0.00718844
O       -0.83963465      -0.59585102       1.93435665       19      -0.01041576       0.01139659      -0.00394784
O        3.80402393       4.59827678       1.82474452       20      -0.00132291      -0.01554683       0.00324060
O        1.76676292       2.68843386       1.48320045       21       0.00132291      -0.01057986      -0.01184365
O        1.76676292       5.84898409       0.34154407       22       0.00132291      -0.00496697       0.01508425
O       -2.14016068       5.45104603       3.52100844       23       0.00512388      -0.01326755      -0.00718844
O        3.06728894       1.76882309       6.71318051       24      -0.01421672       0.00040832       0.00718844
O        4.92555410      -1.51190486       3.30178419       25      -0.00512388       0.01326755       0.00718844
O        5.85268237       3.14965651       1.58665179       26      -0.01421672      -0.00642953      -0.00324060
O        3.43062618       2.29333033       3.75294039       27       0.00512388       0.00040840       0.01508425
O        0.64523275       4.07304714       6.37163643       28       0.00512388       0.01285915      -0.00789581
O        2.14016067      -0.13390597       0.45115620       29      -0.00512388      -0.01285915       0.00789581
O       -3.06728895       0.78948466       5.23614084       30       0.01421672       0.00642953       0.00324060
O        4.73115220       0.59229410       1.92819586       31      -0.01041576      -0.00227937       0.01184365
O        1.01863050       1.25070731       5.33959218       32      -0.00132291       0.01057986       0.01184365
O        3.06728894      -0.97933843       5.34575296       33      -0.01421672       0.00602121      -0.00394784
O        1.94575877       0.00355693       2.96024012       34      -0.01041576      -0.00911722      -0.00789581
O        1.01863050      -1.90984292       6.48124856       35      -0.00132291       0.00496697      -0.01508425
O       -0.64523276       1.64581084       3.06985224       36      -0.00512388      -0.00040840      -0.01508425
O       -1.01863051      -0.65913561       4.99804811       37       0.00132291       0.01554683      -0.00324060
O       -0.28189552       4.91847960       1.47703966       38       0.01421672      -0.00602121       0.00394784
O        3.62502808       4.53499219       4.88843598       39       0.01041576      -0.01139659       0.00394784
40
Lattice="8.356180287191075 6.549316218968185e-10 2.3697095533911737e-14 -2.78539342968117 7.878282327635243 -1.1343847466328817e-09 -2.7853934287549755 -3.9391411631626894 6.822792634674359" Properties=species:S:1:pos:R:3:spacegroup_kinds:I:1:forces:R:3 spacegroup="P 1" unit_cell=conventional occupancy="_JSON {\"0\": {\"In\": 1}, \"1\": {\"In\": 1}, \"2\": {\"In\": 1}, \"3\": {\"In\": 1}, \"4\": {\"In\": 1}, \"5\": {\"In\": 1}, \"6\": {\"In\": 1}, \"7\": {\"In\": 1}, \"8\": {\"In\": 1}, \"9\": {\"In\": 1}, \"10\": {\"In\": 1}, \"11\": {\"In\": 1}, \"12\": {\"In\": 1}, \"13\": {\"In\": 1}, \"14\": {\"In\": 1}, \"15\": {\"In\": 1}, \"16\": {\"O\": 1}, \"17\": {\"O\": 1}, \"18\": {\"O\": 1}, \"19\": {\"O\": 1}, \"20\": {\"O\": 1}, \"21\": {\"O\": 1}, \"22\": {\"O\": 1}, \"23\": {\"O\": 1}, \"24\": {\"O\": 1}, \"25\": {\"O\": 1}, \"26\": {\"O\": 1}, \"27\": {\"O\": 1}, \"28\": {\"O\": 1}, \"29\": {\"O\": 1}, \"30\": {\"O\": 1}, \"31\": {\"O\": 1}, \"32\": {\"O\": 1}, \"33\": {\"O\": 1}, \"34\": {\"O\": 1}, \"35\": {\"O\": 1}, \"36\": {\"O\": 1}, \"37\": {\"O\": 1}, \"38\": {\"O\": 1}, \"39\": {\"O\": 1}}" n_minim_iter=5 energy=-45145.45090441985 stress="-0.13761630440936637 2.320718715029151e-13 6.034074310652008e-13 2.320718715029151e-13 -0.13761630440990552 3.612517113611873e-13 6.034074310652008e-13 3.612517113611873e-13 -0.1376163044092283" free_energy=-45145.45090441985 pbc="T T T"
In      -3.88260092       2.74541344       5.47899338        0       0.00127809      -0.00090375       0.00156534
In       6.66799435       1.19372773       1.34379925        1      -0.00127809       0.00090375      -0.00156534
In       1.09720749      -0.77584286       4.75519556        2      -0.00127809       0.00090375      -0.00156534
In      -1.39269672      -1.96957058       3.41139632        3       0.00000000       0.00000000      -0.00000000
In      -1.09720749       3.73019873       3.04949740        4       0.00127809      -0.00090375      -0.00156534
In       4.47357936      -2.53647100       5.11709447        5       0.00127809       0.00180749       0.00000000
In      -1.09720749       1.40267016       5.11709447        6       0.00127809       0.00180749       0.00000000
In      -1.68818594       6.47561217       1.70569816        7      -0.00127809      -0.00180749      -0.00000000
In       3.88260092       0.20894244       3.77329522        8      -0.00127809       0.00090375       0.00156534
In      -1.39269672       3.93914117      -0.00000000        9       0.00000000       0.00000000      -0.00000000
In       3.88260092       6.11765418       0.36189891       10      -0.00127809       0.00090375       0.00156534
In      -1.09720749      -2.17851301       6.46089372       11       0.00127809      -0.00090375      -0.00156534
In       3.88260092       2.53647101       1.70569816       12      -0.00127809      -0.00180749       0.00000000
In       1.68818594       4.71498402       2.06759707       13       0.00127809      -0.00090375       0.00156534
In       4.17809014       0.00000000      -0.00000000       14      -0.00000000      -0.00000000      -0.00000000
In       1.39269671       1.96957058       3.41139631       15       0.00000000      -0.00000000      -0.00000000
O        0.83979112       3.93588086       3.86324813       16       0.00851007       0.00249444       0.00296329
O       -1.94560230       3.34730118       4.89399208       17       0.00851007       0.00131907      -0.00364189
O       -0.28113556       2.17034546       0.10974655       18       0.00643210       0.00278842      -0.00618688
O       -0.83979113      -0.59510029       1.93444758       19      -0.00851007       0.00381350      -0.00067860
O        3.80439992       4.59760366       1.82470103       20      -0.00159306      -0.00738550       0.00550828
O        1.76638694       2.68813497       1.48259576       21       0.00159306      -0.00846306      -0.00364189
O        1.76638694       5.84860986       0.34210527       22       0.00159306       0.00107756       0.00915017
O       -2.13993318       5.45032041       3.52114286       23      -0.00048491      -0.00699371      -0.00618688
O        3.06652899       1.76879571       6.71304608       24      -0.00643210      -0.00278842       0.00618688
O        4.92532661      -1.51117924       3.30164977       25       0.00048491       0.00699371       0.00618688
O        5.85192242       3.14978661       1.58669529       26      -0.00643210      -0.00396378      -0.00550828
O        3.43085368       2.29380955       3.75350158       27      -0.00048491      -0.00186114       0.00915017
O        0.64546025       4.07329354       6.37094081       28      -0.00048491       0.00885485      -0.00296329
O        2.13993318      -0.13415237       0.45185181       29       0.00048491      -0.00885485       0.00296329
O       -3.06652899       0.78935455       5.23609734       30       0.00643210       0.00396378       0.00550828
O        4.73099573       0.59183999       1.92880055       31      -0.00851007      -0.00131907       0.00364189
O        1.01900649       1.25100620       5.34019687       32      -0.00159306       0.00846306       0.00364189
O        3.06652899      -0.97944115       5.34584389       33      -0.00643210       0.00675220      -0.00067860
O        1.94560230       0.00326031       2.95954450       34      -0.00851007      -0.00249444      -0.00296329
O        1.01900649      -1.90946869       6.48068736       35      -0.00159306      -0.00107756      -0.00915017
O       -0.64546025       1.64533162       3.06929105       36       0.00048491       0.00186114      -0.00915017
O       -1.01900649      -0.65846249       4.99809160       37       0.00159306       0.00738550      -0.00550828
O       -0.28113556       4.91858232       1.47694874       38       0.00643210      -0.00675220       0.00067860
O        3.62518455       4.53424146       4.88834505       39       0.00851007      -0.00381350       0.00067860
