40
Lattice="8.27090719140661 6.482464781307643e-10 2.7270720485901576e-14 -2.7569690644133753 7.797886081928182 -1.1228064736649432e-09 -2.756969063496641 -3.898943040315843 6.753167443515428" Properties=species:S:1:pos:R:3:spacegroup_kinds:I:1:forces:R:3 spacegroup="P 1" unit_cell=conventional occupancy="_JSON {\"0\": {\"In\": 1}, \"1\": {\"In\": 1}, \"2\": {\"In\": 1}, \"3\": {\"In\": 1}, \"4\": {\"In\": 1}, \"5\": {\"In\": 1}, \"6\": {\"In\": 1}, \"7\": {\"In\": 1}, \"8\": {\"In\": 1}, \"9\": {\"In\": 1}, \"10\": {\"In\": 1}, \"11\": {\"In\": 1}, \"12\": {\"In\": 1}, \"13\": {\"In\": 1}, \"14\": {\"In\": 1}, \"15\": {\"In\": 1}, \"16\": {\"O\": 1}, \"17\": {\"O\": 1}, \"18\": {\"O\": 1}, \"19\": {\"O\": 1}, \"20\": {\"O\": 1}, \"21\": {\"O\": 1}, \"22\": {\"O\": 1}, \"23\": {\"O\": 1}, \"24\": {\"O\": 1}, \"25\": {\"O\": 1}, \"26\": {\"O\": 1}, \"27\": {\"O\": 1}, \"28\": {\"O\": 1}, \"29\": {\"O\": 1}, \"30\": {\"O\": 1}, \"31\": {\"O\": 1}, \"32\": {\"O\": 1}, \"33\": {\"O\": 1}, \"34\": {\"O\": 1}, \"35\": {\"O\": 1}, \"36\": {\"O\": 1}, \"37\": {\"O\": 1}, \"38\": {\"O\": 1}, \"39\": {\"O\": 1}}" n_minim_iter=1 energy=-45143.065379978245 stress="-0.21813529486518843 -6.8242274620318774e-15 -1.825646532177881e-13 -6.8242274620318774e-15 -0.21813529486451036 -5.571283801981396e-14 -1.825646532177881e-13 -5.571283801981396e-14 -0.21813529486523844" free_energy=-45143.065379978245 pbc="T T T"
In      -3.84297978       2.71739706       5.42308139        0       0.07285310      -0.05151492       0.08922646
In       6.59994884       1.18154598       1.33008605        1      -0.07285310       0.05151492      -0.08922646
In       1.08601071      -0.76792554       4.70666977        2      -0.07285310       0.05151492      -0.08922646
In      -1.37848453      -1.94947152       3.37658372        3      -0.00000000       0.00000000      -0.00000000
In      -1.08601072       3.69213282       3.01837791        4       0.07285310      -0.05151492      -0.08922646
In       4.42792741      -2.51058684       5.06487558        5       0.07285310       0.10302985      -0.00000000
In      -1.08601072       1.38835620       5.06487558        6       0.07285310       0.10302985      -0.00000000
In      -1.67095835       6.40952989       1.68829186        7      -0.07285310      -0.10302985       0.00000000
In       3.84297978       0.20681022       3.73478953        8      -0.07285310       0.05151492       0.08922646
In      -1.37848453       3.89894304      -0.00000000        9      -0.00000000      -0.00000000       0.00000000
In       3.84297978       6.05522478       0.35820580       10      -0.07285310       0.05151492       0.08922646
In      -1.08601072      -2.15628174       6.39496163       11       0.07285310      -0.05151492      -0.08922646
In       3.84297978       2.51058685       1.68829186       12      -0.07285310      -0.10302985       0.00000000
In       1.67095835       4.66686858       2.04649766       13       0.07285310      -0.05151492       0.08922646
In       4.13545359       0.00000000      -0.00000000       14       0.00000000      -0.00000000       0.00000000
In       1.37848453       1.94947152       3.37658372       15       0.00000000       0.00000000      -0.00000000
O        0.83122123       3.89571600       3.82382448       16       0.00777939      -0.00699353       0.30079503
O       -1.92574783       3.31314266       4.84404990       17       0.00777939       0.26399290      -0.14434094
O       -0.27826663       2.14819753       0.10862661       18       0.24489447       0.09632723       0.14606452
O       -0.83122123      -0.58902742       1.91470694       19      -0.00777940       0.25699938       0.15645409
O        3.76557680       4.55068606       1.80608033       20       0.24630177      -0.17266898       0.01038957
O        1.74836132       2.66070310       1.46746617       21      -0.24630177      -0.09533212      -0.14434094
O        1.74836132       5.78892600       0.33861415       22      -0.24630177      -0.07733686       0.15473051
O       -2.11809560       5.39470102       3.48521033       23      -0.00918669      -0.26299779       0.14606452
O        3.03523569       1.75074551       6.64454083       24      -0.24489447      -0.09632723      -0.14606452
O        4.87506466      -1.49575797       3.26795711       25       0.00918669       0.26299779      -0.14606452
O        5.79220476       3.11764369       1.57050339       26      -0.24489447       0.17465920      -0.01038957
O        3.39584253       2.27040170       3.71519787       27      -0.00918669       0.25799449       0.15473051
O        0.63887346       4.03172642       6.30592668       28      -0.00918669       0.00500331      -0.30079503
O        2.11809560      -0.13278337       0.44724076       29       0.00918669      -0.00500331       0.30079503
O       -3.03523570       0.78129935       5.18266405       30       0.24489447      -0.17465920       0.01038957
O        4.68271690       0.58580038       1.90911754       31      -0.00777939      -0.26399290       0.14434094
O        1.00860774       1.23823994       5.28570126       32       0.24630177       0.09533212       0.14434094
O        3.03523569      -0.96944615       5.29129066       33      -0.24489447      -0.07833197       0.15645409
O        1.92574783       0.00322704       2.92934296       34      -0.00777939       0.00699353      -0.30079503
O        1.00860774      -1.88998296       6.41455329       35       0.24630177       0.07733686      -0.15473051
O       -0.63887346       1.62854135       3.03796956       36       0.00918669      -0.25799449      -0.15473051
O       -1.00860774      -0.65174302       4.94708711       37      -0.24630177       0.17266898      -0.01038957
O       -0.27826663       4.86838920       1.46187678       38       0.24489447       0.07833197      -0.15645409
O        3.58819029       4.48797046       4.83846050       39       0.00777940      -0.25699938      -0.15645409
40
Lattice="8.270907191406604 6.482464781307638e-10 2.727072048590156e-14 -2.756969064413373 7.797886081928178 -1.1228064736649424e-09 -2.756969063496639 -3.8989430403158414 6.753167443515425" Properties=species:S:1:pos:R:3:spacegroup_kinds:I:1:forces:R:3 spacegroup="P 1" unit_cell=conventional occupancy="_JSON {\"0\": {\"In\": 1}, \"1\": {\"In\": 1}, \"2\": {\"In\": 1}, \"3\": {\"In\": 1}, \"4\": {\"In\": 1}, \"5\": {\"In\": 1}, \"6\": {\"In\": 1}, \"7\": {\"In\": 1}, \"8\": {\"In\": 1}, \"9\": {\"In\": 1}, \"10\": {\"In\": 1}, \"11\": {\"In\": 1}, \"12\": {\"In\": 1}, \"13\": {\"In\": 1}, \"14\": {\"In\": 1}, \"15\": {\"In\": 1}, \"16\": {\"O\": 1}, \"17\": {\"O\": 1}, \"18\": {\"O\": 1}, \"19\": {\"O\": 1}, \"20\": {\"O\": 1}, \"21\": {\"O\": 1}, \"22\": {\"O\": 1}, \"23\": {\"O\": 1}, \"24\": {\"O\": 1}, \"25\": {\"O\": 1}, \"26\": {\"O\": 1}, \"27\": {\"O\": 1}, \"28\": {\"O\": 1}, \"29\": {\"O\": 1}, \"30\": {\"O\": 1}, \"31\": {\"O\": 1}, \"32\": {\"O\": 1}, \"33\": {\"O\": 1}, \"34\": {\"O\": 1}, \"35\": {\"O\": 1}, \"36\": {\"O\": 1}, \"37\": {\"O\": 1}, \"38\": {\"O\": 1}, \"39\": {\"O\": 1}}" n_minim_iter=2 energy=-45143.184756998526 stress="-0.20531850023603299 -2.264026421211294e-13 -3.0991505607883367e-13 -2.264026421211294e-13 -0.20531850023726517 -2.7648623169960504e-13 -3.0991505607883367e-13 -2.7648623169960504e-13 -0.20531850023726914" free_energy=-45143.184756998526 pbc="T T T"
In      -3.83777599       2.71371743       5.42945470        0       0.20591468      -0.14560367       0.25219295
In       6.59474505       1.18522562       1.32371273        1      -0.20591468       0.14560367      -0.25219295
In       1.08080692      -0.76424590       4.70029646        2      -0.20591468       0.14560367      -0.25219295
In      -1.37848453      -1.94947152       3.37658372        3       0.00000000      -0.00000000       0.00000000
In      -1.08080692       3.68845319       3.01200459        4       0.20591468      -0.14560367      -0.25219295
In       4.43313120      -2.50322757       5.06487558        5       0.20591468       0.29120734      -0.00000000
In      -1.08080692       1.39571547       5.06487558        6       0.20591468       0.29120734      -0.00000000
In      -1.67616214       6.40217061       1.68829186        7      -0.20591468      -0.29120734       0.00000000
In       3.83777599       0.21048986       3.74116284        8      -0.20591468       0.14560367       0.25219295
In      -1.37848453       3.89894304      -0.00000000        9      -0.00000000      -0.00000000      -0.00000000
In       3.83777598       6.05890442       0.36457912       10      -0.20591468       0.14560367       0.25219295
In      -1.08080692      -2.15996137       6.38858832       11       0.20591468      -0.14560367      -0.25219295
In       3.83777598       2.50322757       1.68829186       12      -0.20591468      -0.29120734       0.00000000
In       1.67616214       4.66318895       2.05287098       13       0.20591468      -0.14560367       0.25219295
In       4.13545359       0.00000000      -0.00000000       14       0.00000000      -0.00000000       0.00000000
In       1.37848453       1.94947152       3.37658372       15       0.00000000      -0.00000000      -0.00000000
O        0.83177690       3.89521647       3.84530984       16      -0.05088849      -0.08075289       0.06926243
O       -1.92519216       3.33199930       4.83373983       17      -0.05088849       0.10035947       0.03530284
O       -0.26077417       2.15507805       0.11905979       18       0.00152243       0.06329935       0.09949285
O       -0.83177690      -0.57067032       1.92588223       19       0.05088849       0.01960658       0.10456527
O        3.78316978       4.53835256       1.80682244       20       0.11158265       0.03783564       0.00507242
O        1.73076834       2.65389367       1.45715611       21      -0.11158265       0.01452498       0.03530284
O        1.73076834       5.78340194       0.34966633       22      -0.11158265       0.02331067      -0.03023042
O       -2.11875180       5.37591546       3.49564351       23      -0.05917172      -0.02253515       0.09949285
O        3.01774323       1.74386499       6.63410765       24      -0.00152243      -0.06329935      -0.09949285
O        4.87572086      -1.47697241       3.25752393       25       0.05917172       0.02253515      -0.09949285
O        5.77471230       3.13011935       1.56976128       26      -0.00152243       0.11781301      -0.00507242
O        3.39518633       2.28882988       3.72625005       27      -0.05917172       0.09743091      -0.03023042
O        0.63821727       4.03208379       6.28444132       28      -0.05917172      -0.07489576      -0.06926243
O        2.11875179      -0.13314075       0.46872612       29       0.05917172       0.07489576       0.06926243
O       -3.01774324       0.76882370       5.18340616       30       0.00152243      -0.11781301       0.00507242
O        4.68216122       0.56694374       1.91942761       31       0.05088849      -0.10035947      -0.03530284
O        1.02620072       1.24504938       5.29601133       32       0.11158265      -0.01452498      -0.03530284
O        3.01774323      -0.97504129       5.30246595       33      -0.00152243      -0.05451366       0.10456527
O        1.92519216       0.00372658       2.90785760       34       0.05088849       0.08075289      -0.06926243
O        1.02620072      -1.88445889       6.40350111       35       0.11158265      -0.02331067       0.03023042
O       -0.63821727       1.61011317       3.02691739       36       0.05917172      -0.09743091       0.03023042
O       -1.02620072      -0.63940952       4.94634500       37      -0.11158265      -0.03783564      -0.00507242
O       -0.26077417       4.87398434       1.45070149       38       0.00152243       0.05451366      -0.10456527
O        3.58874596       4.46961336       4.82728521       39      -0.05088849      -0.01960658      -0.10456527
40
Lattice="8.270907191406593 6.482464781307631e-10 2.7270720485901535e-14 -2.7569690644133704 7.797886081928172 -1.1228064736649415e-09 -2.756969063496636 -3.8989430403158383 6.75316744351542" Properties=species:S:1:pos:R:3:spacegroup_kinds:I:1:forces:R:3 spacegroup="P 1" unit_cell=conventional occupancy="_JSON {\"0\": {\"In\": 1}, \"1\": {\"In\": 1}, \"2\": {\"In\": 1}, \"3\": {\"In\": 1}, \"4\": {\"In\": 1}, \"5\": {\"In\": 1}, \"6\": {\"In\": 1}, \"7\": {\"In\": 1}, \"8\": {\"In\": 1}, \"9\": {\"In\": 1}, \"10\": {\"In\": 1}, \"11\": {\"In\": 1}, \"12\": {\"In\": 1}, \"13\": {\"In\": 1}, \"14\": {\"In\": 1}, \"15\": {\"In\": 1}, \"16\": {\"O\": 1}, \"17\": {\"O\": 1}, \"18\": {\"O\": 1}, \"19\": {\"O\": 1}, \"20\": {\"O\": 1}, \"21\": {\"O\": 1}, \"22\": {\"O\": 1}, \"23\": {\"O\": 1}, \"24\": {\"O\": 1}, \"25\": {\"O\": 1}, \"26\": {\"O\": 1}, \"27\": {\"O\": 1}, \"28\": {\"O\": 1}, \"29\": {\"O\": 1}, \"30\": {\"O\": 1}, \"31\": {\"O\": 1}, \"32\": {\"O\": 1}, \"33\": {\"O\": 1}, \"34\": {\"O\": 1}, \"35\": {\"O\": 1}, \"36\": {\"O\": 1}, \"37\": {\"O\": 1}, \"38\": {\"O\": 1}, \"39\": {\"O\": 1}}" n_minim_iter=3 energy=-45143.364681887826 stress="-0.16721571142253 1.0248066669786748e-13 3.510480284788482e-13 1.0248066669786748e-13 -0.1672157114244549 7.192917234969415e-14 3.510480284788482e-13 7.192917234969415e-14 -0.16721571142454295" free_energy=-45143.364681887826 pbc="T T T"
In      -3.80943998       2.69368084       5.46415908        0       0.04785308      -0.03383724       0.05860782
In       6.56640904       1.20526220       1.28900836        1      -0.04785308       0.03383724      -0.05860782
In       1.05247092      -0.74420932       4.66559208        2      -0.04785308       0.03383724      -0.05860782
In      -1.37848453      -1.94947152       3.37658372        3       0.00000000      -0.00000000       0.00000000
In      -1.05247092       3.66841661       2.97730022        4       0.04785308      -0.03383724      -0.05860782
In       4.46146721      -2.46315440       5.06487558        5       0.04785308       0.06767448       0.00000000
In      -1.05247092       1.43578864       5.06487558        6       0.04785308       0.06767448      -0.00000000
In      -1.70449815       6.36209745       1.68829186        7      -0.04785308      -0.06767448       0.00000000
In       3.80943998       0.23052644       3.77586722        8      -0.04785308       0.03383724       0.05860782
In      -1.37848453       3.89894304      -0.00000000        9       0.00000000      -0.00000000      -0.00000000
In       3.80943998       6.07894100       0.39928350       10      -0.04785308       0.03383724       0.05860782
In      -1.05247092      -2.17999796       6.35388394       11       0.04785308      -0.03383724      -0.05860782
In       3.80943998       2.46315441       1.68829186       12      -0.04785308      -0.06767448       0.00000000
In       1.70449814       4.64315237       2.08757536       13       0.04785308      -0.03383724       0.05860782
In       4.13545359       0.00000000      -0.00000000       14       0.00000000      -0.00000000       0.00000000
In       1.37848453       1.94947152       3.37658372       15      -0.00000000       0.00000000      -0.00000000
O        0.82978717       3.88829917       3.90855904       16      -0.09605842       0.02506750       0.05695710
O       -1.92718189       3.39023336       4.80810579       17      -0.09605842       0.03679254      -0.05018764
O       -0.21305551       2.17816297       0.15430584       18       0.02630273      -0.04972986       0.09967356
O       -0.82978717      -0.51935356       1.96349739       19       0.09605842       0.06186004       0.00676945
O        3.83873663       4.50738512       1.80919154       20       0.06670782      -0.00431349      -0.09290411
O        1.67520150       2.63635825       1.43152207       21      -0.06670782       0.07830057      -0.05018764
O        1.67520150       5.76996992       0.37766947       22      -0.06670782      -0.08261406      -0.04271646
O       -2.12461024       5.32323090       3.53088957       23       0.05565334      -0.00822183       0.09967356
O        2.97002457       1.72078008       6.59886159       24      -0.02630273       0.04972986      -0.09967356
O        4.88157930      -1.42428785       3.22227787       25      -0.05565334       0.00822183      -0.09967356
O        5.72699363       3.17218579       1.56739218       26      -0.02630273       0.06145490       0.09290411
O        3.38932788       2.34569614       3.75425319       27       0.05565334       0.09043075      -0.04271646
O        0.63235882       4.02790209       6.22119212       28       0.05565334      -0.08220892      -0.05695710
O        2.12461024      -0.12895905       0.53197532       29      -0.05565334       0.08220892       0.05695710
O       -2.97002457       0.72675725       5.18577526       30       0.02630273      -0.06145490      -0.09290411
O        4.68415095       0.50870968       1.94506165       31       0.09605842      -0.03679254       0.05018764
O        1.08176756       1.26258480       5.32164537       32       0.06670782      -0.07830057       0.05018764
O        2.97002457      -0.99402282       5.34008111       33      -0.02630273      -0.11118477       0.00676945
O        1.92718189       0.01064388       2.84460840       34       0.09605842      -0.02506750      -0.05695710
O        1.08176756      -1.87102687       6.37549797       35       0.06670782       0.08261406       0.04271646
O       -0.63235882       1.55324691       2.99891425       36      -0.05565334      -0.09043075       0.04271646
O       -1.08176757      -0.60844208       4.94397590       37      -0.06670782       0.00431349       0.09290411
O       -0.21305551       4.89296586       1.41308633       38       0.02630273       0.11118477      -0.00676945
O        3.58675623       4.41829660       4.78967005       39      -0.09605842      -0.06186004      -0.00676945
40
Lattice="8.270907191406565 6.482464781307609e-10 2.7270720485901383e-14 -2.756969064413361 7.797886081928143 -1.1228064736649368e-09 -2.756969063496627 -3.8989430403158236 6.753167443515395" Properties=species:S:1:pos:R:3:spacegroup_kinds:I:1:forces:R:3 spacegroup="P 1" unit_cell=conventional occupancy="_JSON {\"0\": {\"In\": 1}, \"1\": {\"In\": 1}, \"2\": {\"In\": 1}, \"3\": {\"In\": 1}, \"4\": {\"In\": 1}, \"5\": {\"In\": 1}, \"6\": {\"In\": 1}, \"7\": {\"In\": 1}, \"8\": {\"In\": 1}, \"9\": {\"In\": 1}, \"10\": {\"In\": 1}, \"11\": {\"In\": 1}, \"12\": {\"In\": 1}, \"13\": {\"In\": 1}, \"14\": {\"In\": 1}, \"15\": {\"In\": 1}, \"16\": {\"O\": 1}, \"17\": {\"O\": 1}, \"18\": {\"O\": 1}, \"19\": {\"O\": 1}, \"20\": {\"O\": 1}, \"21\": {\"O\": 1}, \"22\": {\"O\": 1}, \"23\": {\"O\": 1}, \"24\": {\"O\": 1}, \"25\": {\"O\": 1}, \"26\": {\"O\": 1}, \"27\": {\"O\": 1}, \"28\": {\"O\": 1}, \"29\": {\"O\": 1}, \"30\": {\"O\": 1}, \"31\": {\"O\": 1}, \"32\": {\"O\": 1}, \"33\": {\"O\": 1}, \"34\": {\"O\": 1}, \"35\": {\"O\": 1}, \"36\": {\"O\": 1}, \"37\": {\"O\": 1}, \"38\": {\"O\": 1}, \"39\": {\"O\": 1}}" n_minim_iter=4 energy=-45144.825536664815 stress="-0.05195857890386512 -1.1628767045957583e-13 4.625973318275767e-13 -1.1628767045957583e-13 -0.0519585789034019 6.846556848169518e-14 4.625973318275767e-13 6.846556848169518e-14 -0.05195857890297239" free_energy=-45144.825536664815 pbc="T T T"
In      -3.72161326       2.63157798       5.57172440        0      -0.31129266       0.22011715      -0.38125409
In       6.47858233       1.26736507       1.18144303        1       0.31129266      -0.22011715       0.38125409
In       0.96464420      -0.68210645       4.55802676        2       0.31129266      -0.22011715       0.38125409
In      -1.37848453      -1.94947152       3.37658372        3      -0.00000000      -0.00000000       0.00000000
In      -0.96464420       3.60631374       2.86973489        4      -0.31129266       0.22011715       0.38125409
In       4.54929393      -2.33894867       5.06487558        5      -0.31129266      -0.44023431       0.00000000
In      -0.96464420       1.55999437       5.06487558        6      -0.31129266      -0.44023431       0.00000000
In      -1.79232487       6.23789171       1.68829186        7       0.31129266       0.44023431      -0.00000000
In       3.72161326       0.29262931       3.88343254        8       0.31129266      -0.22011715      -0.38125409
In      -1.37848453       3.89894304      -0.00000000        9      -0.00000000       0.00000000       0.00000000
In       3.72161326       6.14104387       0.50684882       10       0.31129266      -0.22011715      -0.38125409
In      -0.96464420      -2.24210082       6.24631862       11      -0.31129266       0.22011715       0.38125409
In       3.72161326       2.33894867       1.68829186       12       0.31129266       0.44023431      -0.00000000
In       1.79232486       4.58104950       2.19514068       13      -0.31129266       0.22011715      -0.38125409
In       4.13545359       0.00000000      -0.00000000       14      -0.00000000      -0.00000000       0.00000000
In       1.37848453       1.94947152       3.37658372       15       0.00000000       0.00000000      -0.00000000
O        0.81538874       3.87193770       4.11515215       16      -0.79581837      -0.00268422       0.14796464
O       -1.94158032       3.57732898       4.71897868       17      -0.79581837       0.12948325      -0.07165771
O       -0.05688528       2.24464834       0.27408182       18      -0.14572552      -0.33020181       0.72454016
O       -0.81538874      -0.34861940       2.08096339       19       0.79581837       0.12679902       0.07630692
O        4.01993154       4.40580366       1.80688157       20       0.38735077       0.29151444      -0.64823324
O        1.49400658       2.58756801       1.34239495       21      -0.38735077       0.70714367      -0.07165771
O        1.49400658       5.71717869       0.46448661       22      -0.38735077      -0.41562923      -0.57657553
O       -2.13523651       5.15383041       3.65066554       23       0.26274208       0.24745861       0.72454016
O        2.81385434       1.65429471       6.47908562       24       0.14572552       0.33020181      -0.72454016
O        4.89220557      -1.25488736       3.10250190       25      -0.26274208      -0.24745861      -0.72454016
O        5.57082341       3.30915751       1.56970215       26       0.14572552       0.46236928       0.64823324
O        3.37870162       2.53412542       3.84107033       27       0.26274208       0.50374088      -0.57657553
O        0.62173256       4.00887330       6.01459901       28       0.26274208      -0.75119949      -0.14796464
O        2.13523650      -0.10993026       0.73856843       29      -0.26274208       0.75119949       0.14796464
O       -2.81385435       0.58978554       5.18346529       30      -0.14572552      -0.46236928      -0.64823324
O        4.69854938       0.32161407       2.03418876       31       0.79581837      -0.12948325       0.07165771
O        1.26296248       1.31137503       5.41077248       32       0.38735077      -0.70714367       0.07165771
O        2.81385434      -1.06450917       5.45754711       33       0.14572552      -0.79257109       0.07630693
O        1.94158032       0.02700534       2.63801529       34       0.79581837       0.00268422      -0.14796464
O        1.26296248      -1.81823565       6.28868083       35       0.38735077       0.41562923       0.57657553
O       -0.62173256       1.36481762       2.91209711       36      -0.26274208      -0.50374088       0.57657553
O       -1.26296248      -0.50686062       4.94628587       37      -0.38735077      -0.29151444       0.64823324
O       -0.05688528       4.96345222       1.29562033       38      -0.14572552       0.79257109      -0.07630693
O        3.57235780       4.24756245       4.67220405       39      -0.79581837      -0.12679902      -0.07630693
40
Lattice="8.270907191406566 6.482464781307609e-10 2.7270720485901355e-14 -2.7569690644133615 7.797886081928142 -1.122806473664937e-09 -2.7569690634966273 -3.898943040315823 6.753167443515395" Properties=species:S:1:pos:R:3:spacegroup_kinds:I:1:forces:R:3 spacegroup="P 1" unit_cell=conventional occupancy="_JSON {\"0\": {\"In\": 1}, \"1\": {\"In\": 1}, \"2\": {\"In\": 1}, \"3\": {\"In\": 1}, \"4\": {\"In\": 1}, \"5\": {\"In\": 1}, \"6\": {\"In\": 1}, \"7\": {\"In\": 1}, \"8\": {\"In\": 1}, \"9\": {\"In\": 1}, \"10\": {\"In\": 1}, \"11\": {\"In\": 1}, \"12\": {\"In\": 1}, \"13\": {\"In\": 1}, \"14\": {\"In\": 1}, \"15\": {\"In\": 1}, \"16\": {\"O\": 1}, \"17\": {\"O\": 1}, \"18\": {\"O\": 1}, \"19\": {\"O\": 1}, \"20\": {\"O\": 1}, \"21\": {\"O\": 1}, \"22\": {\"O\": 1}, \"23\": {\"O\": 1}, \"24\": {\"O\": 1}, \"25\": {\"O\": 1}, \"26\": {\"O\": 1}, \"27\": {\"O\": 1}, \"28\": {\"O\": 1}, \"29\": {\"O\": 1}, \"30\": {\"O\": 1}, \"31\": {\"O\": 1}, \"32\": {\"O\": 1}, \"33\": {\"O\": 1}, \"34\": {\"O\": 1}, \"35\": {\"O\": 1}, \"36\": {\"O\": 1}, \"37\": {\"O\": 1}, \"38\": {\"O\": 1}, \"39\": {\"O\": 1}}" n_minim_iter=5 energy=-45144.83504802595 stress="-0.050033687979066224 -5.9885578328849e-14 -2.1320803961736382e-13 -5.9885578328849e-14 -0.050033687979095964 -1.0196474572135756e-13 -2.1320803961736382e-13 -1.0196474572135756e-13 -0.050033687979126724" free_energy=-45144.83504802595 pbc="T T T"
In      -3.71852925       2.62939725       5.57550154        0      -0.29126682       0.20595674      -0.35672754
In       6.47549831       1.26954580       1.17766590        1       0.29126682      -0.20595674       0.35672754
In       0.96156018      -0.67992572       4.55424962        2       0.29126682      -0.20595674       0.35672754
In      -1.37848453      -1.94947152       3.37658372        3      -0.00000000       0.00000000      -0.00000000
In      -0.96156018       3.60413301       2.86595776        4      -0.29126682       0.20595674       0.35672754
In       4.55237794      -2.33458721       5.06487558        5      -0.29126682      -0.41191349       0.00000000
In      -0.96156018       1.56435583       5.06487558        6      -0.29126682      -0.41191349       0.00000000
In      -1.79540888       6.23353025       1.68829186        7       0.29126682       0.41191349      -0.00000000
In       3.71852924       0.29481004       3.88720968        8       0.29126682      -0.20595674      -0.35672754
In      -1.37848453       3.89894304      -0.00000000        9       0.00000000       0.00000000      -0.00000000
In       3.71852924       6.14322460       0.51062596       10       0.29126682      -0.20595674      -0.35672754
In      -0.96156018      -2.24428155       6.24254148       11      -0.29126682       0.20595674       0.35672754
In       3.71852924       2.33458721       1.68829186       12       0.29126682       0.41191349      -0.00000000
In       1.79540888       4.57886877       2.19891782       13      -0.29126682       0.20595674      -0.35672754
In       4.13545359       0.00000000      -0.00000000       14       0.00000000       0.00000000      -0.00000000
In       1.37848453       1.94947152       3.37658372       15      -0.00000000       0.00000000      -0.00000000
O        0.81415561       3.87130249       4.12307365       16      -0.83338909      -0.01594001       0.04761121
O       -1.94281345       3.58450680       4.71556804       17      -0.83338909       0.04920253      -0.01000115
O       -0.05112789       2.24688311       0.27923278       18      -0.24643616      -0.36583587       0.70886643
O       -0.81415561      -0.34207679       2.08547424       19       0.83338909       0.03326252       0.03761006
O        4.02710990       4.40223496       1.80624146       20       0.32418495       0.37600171      -0.67125637
O        1.48682822       2.58633801       1.33898431       21      -0.32418495       0.76932593      -0.01000115
O        1.48682822       5.71483999       0.46725714       22      -0.32418495      -0.39332422      -0.66125522
O       -2.13542434       5.14765736       3.65581650       23       0.26276798       0.35428753       0.70886643
O        2.80809695       1.65205993       6.47393466       24       0.24643616       0.36583587      -0.70886643
O        4.89239340      -1.24871432       3.09735093       25      -0.26276798      -0.35428753      -0.70886643
O        5.56506602       3.31473576       1.57034226       26       0.24643616       0.43097840       0.67125637
O        3.37851378       2.54167281       3.84384086       27       0.26276798       0.43675257      -0.66125522
O        0.62154472       4.00749896       6.00667751       28       0.26276798      -0.79104010      -0.04761121
O        2.13542434      -0.10855591       0.74648993       29      -0.26276798       0.79104010       0.04761121
O       -2.80809696       0.58420728       5.18282518       30      -0.24643616      -0.43097840      -0.67125637
O        4.69978251       0.31443624       2.03759940       31       0.83338909      -0.04920253       0.01000115
O        1.27014084       1.31260503       5.41418312       32       0.32418495      -0.76932593       0.01000115
O        2.80809695      -1.06785265       5.46205797       33       0.24643616      -0.79681427       0.03761006
O        1.94281345       0.02764055       2.63009379       34       0.83338909       0.01594001      -0.04761121
O        1.27014084      -1.81589695       6.28591030       35       0.32418495       0.39332422       0.66125522
O       -0.62154472       1.35727024       2.90932657       36      -0.26276798      -0.43675257       0.66125522
O       -1.27014084      -0.50329192       4.94692598       37      -0.32418495      -0.37600171       0.67125637
O       -0.05112789       4.96679569       1.29110947       38      -0.24643616       0.79681427      -0.03761006
O        3.57112467       4.24101984       4.66769319       39      -0.83338909      -0.03326252      -0.03761006
40