40
Lattice="9.467825260839946 7.420602781120277e-10 2.58087496227273e-14 -3.155941754312941 8.926351259791604 -1.2853072074886128e-09 -3.155941753263534 -4.4631756291537314 7.730446954939618" Properties=species:S:1:pos:R:3:spacegroup_kinds:I:1:forces:R:3 spacegroup="P 1" unit_cell=conventional occupancy="_JSON {\"0\": {\"In\": 1}, \"1\": {\"In\": 1}, \"2\": {\"In\": 1}, \"3\": {\"In\": 1}, \"4\": {\"In\": 1}, \"5\": {\"In\": 1}, \"6\": {\"In\": 1}, \"7\": {\"In\": 1}, \"8\": {\"In\": 1}, \"9\": {\"In\": 1}, \"10\": {\"In\": 1}, \"11\": {\"In\": 1}, \"12\": {\"In\": 1}, \"13\": {\"In\": 1}, \"14\": {\"In\": 1}, \"15\": {\"In\": 1}, \"16\": {\"O\": 1}, \"17\": {\"O\": 1}, \"18\": {\"O\": 1}, \"19\": {\"O\": 1}, \"20\": {\"O\": 1}, \"21\": {\"O\": 1}, \"22\": {\"O\": 1}, \"23\": {\"O\": 1}, \"24\": {\"O\": 1}, \"25\": {\"O\": 1}, \"26\": {\"O\": 1}, \"27\": {\"O\": 1}, \"28\": {\"O\": 1}, \"29\": {\"O\": 1}, \"30\": {\"O\": 1}, \"31\": {\"O\": 1}, \"32\": {\"O\": 1}, \"33\": {\"O\": 1}, \"34\": {\"O\": 1}, \"35\": {\"O\": 1}, \"36\": {\"O\": 1}, \"37\": {\"O\": 1}, \"38\": {\"O\": 1}, \"39\": {\"O\": 1}}" n_minim_iter=8 energy=-45146.0079363291 stress="0.09560418883370729 -1.0425478230879343e-14 -1.9756748567241454e-14 -1.0425478230879343e-14 0.09560418883388888 -7.579335418932693e-14 -1.9756748567241454e-14 -7.579335418932693e-14 0.09560418883328646" free_energy=-45146.0079363291 pbc="T T T"
In      -4.46867630       3.15983131       6.12268206        0      -0.00208422       0.00147377      -0.00255264
In       7.62461805       1.30334432       1.60776489        1       0.00208422      -0.00147377       0.00255264
In       1.31273454      -0.92824349       5.47298837        2       0.00208422      -0.00147377       0.00255264
In      -1.57797088      -2.23158781       3.86522347        3       0.00000000       0.00000000      -0.00000000
In      -1.31273454       4.27562522       3.54037663        4      -0.00208422       0.00147377       0.00255264
In       4.99914897      -2.97228090       5.79783521        5      -0.00208422      -0.00294754      -0.00000000
In      -1.31273454       1.49089473       5.79783521        6      -0.00208422      -0.00294754       0.00000000
In      -1.84320722       7.43545653       1.93261174        7       0.00208422       0.00294754      -0.00000000
In       4.46867629       0.18755041       4.19007032        8       0.00208422      -0.00147377      -0.00255264
In      -1.57797088       4.46317563      -0.00000000        9      -0.00000000       0.00000000      -0.00000000
In       4.46867629       6.88231386       0.32484684       10       0.00208422      -0.00147377      -0.00255264
In      -1.31273454      -2.41913822       7.40560011       11      -0.00208422       0.00147377       0.00255264
In       4.46867629       2.97228090       1.93261174       12       0.00208422       0.00294754      -0.00000000
In       1.84320721       5.39141913       2.25745858       13      -0.00208422       0.00147377      -0.00255264
In       4.73391263       0.00000000      -0.00000000       14      -0.00000000      -0.00000000      -0.00000000
In       1.57797088       2.23158782       3.86522347       15       0.00000000      -0.00000000       0.00000000
O        1.04670485       4.47096436       4.16050472       16       0.00039668      -0.00482945       0.00366652
O       -2.10923690       3.59920842       5.64344936       17       0.00039668       0.00559003       0.00234916
O       -0.45831120       2.43182767      -0.06503482       18       0.00084931       0.00526997       0.00290351
O       -1.04670486      -0.85617849       2.07350713       19      -0.00039668       0.00076058       0.00601569
O        4.09644520       5.28180625       2.13854194       20       0.00513810       0.00091577       0.00311217
O        2.21543830       3.02045929       1.77822588       21      -0.00513810      -0.00223734       0.00234916
O        2.21543830       6.72452259       0.36031605       22      -0.00513810       0.00315311       0.00076301
O       -2.44551951       6.31625417       3.80018866       23      -0.00468548      -0.00255739       0.00290351
O        3.61425295       2.03134797       7.79548176       24      -0.00084931      -0.00526997      -0.00290351
O        5.60146126      -1.85307853       3.93025829       25       0.00468548       0.00255739      -0.00290351
O        6.77019471       3.39117985       1.72668153       26      -0.00084931       0.00514950      -0.00311217
O        3.86636400       2.36452066       4.22553953       27      -0.00468548       0.00379321       0.00076301
O        0.71042224       4.70875207       7.43516571       28      -0.00468548      -0.00123582      -0.00366653
O        2.44551951      -0.24557644       0.29528124       29       0.00468548       0.00123582       0.00366653
O       -3.61425296       1.07199578       6.00376542       30       0.00084931      -0.00514950       0.00311217
O        5.26517865       0.86396721       2.08699759       31      -0.00039668      -0.00559003      -0.00234916
O        0.94050345       1.44271634       5.95222107       32       0.00513810       0.00223734      -0.00234916
O        3.61425295      -0.95935218       5.93873060       33      -0.00084931       0.00012047       0.00601569
O        2.10923690      -0.00778872       3.56994223       34      -0.00039668       0.00482945      -0.00366653
O        0.94050345      -2.26134696       7.37013090       35       0.00513810      -0.00315311      -0.00076301
O       -0.71042225       2.09865498       3.50490742       36       0.00468548      -0.00379321      -0.00076301
O       -0.94050345      -0.81863062       5.59190501       37      -0.00513810      -0.00091577      -0.00311217
O       -0.45831120       5.42252781       1.79171635       38       0.00084931      -0.00012047      -0.00601569
O        4.20264661       5.31935412       5.65693982       39       0.00039668      -0.00076058      -0.00601569
