40
Lattice="9.401614526381456 7.368697792438137e-10 2.320762245033789e-14 -3.1338715094885465 8.863927180696082 -1.2763160568062968e-09 -3.133871508446476 -4.4319635896111595 7.6763861166290495" Properties=species:S:1:pos:R:3:spacegroup_kinds:I:1:forces:R:3 spacegroup="P 1" unit_cell=conventional occupancy="_JSON {\"0\": {\"In\": 1}, \"1\": {\"In\": 1}, \"2\": {\"In\": 1}, \"3\": {\"In\": 1}, \"4\": {\"In\": 1}, \"5\": {\"In\": 1}, \"6\": {\"In\": 1}, \"7\": {\"In\": 1}, \"8\": {\"In\": 1}, \"9\": {\"In\": 1}, \"10\": {\"In\": 1}, \"11\": {\"In\": 1}, \"12\": {\"In\": 1}, \"13\": {\"In\": 1}, \"14\": {\"In\": 1}, \"15\": {\"In\": 1}, \"16\": {\"O\": 1}, \"17\": {\"O\": 1}, \"18\": {\"O\": 1}, \"19\": {\"O\": 1}, \"20\": {\"O\": 1}, \"21\": {\"O\": 1}, \"22\": {\"O\": 1}, \"23\": {\"O\": 1}, \"24\": {\"O\": 1}, \"25\": {\"O\": 1}, \"26\": {\"O\": 1}, \"27\": {\"O\": 1}, \"28\": {\"O\": 1}, \"29\": {\"O\": 1}, \"30\": {\"O\": 1}, \"31\": {\"O\": 1}, \"32\": {\"O\": 1}, \"33\": {\"O\": 1}, \"34\": {\"O\": 1}, \"35\": {\"O\": 1}, \"36\": {\"O\": 1}, \"37\": {\"O\": 1}, \"38\": {\"O\": 1}, \"39\": {\"O\": 1}}" n_minim_iter=1 energy=-45147.243277652735 stress="0.09003040216163548 -4.4435999063903585e-13 2.9447941505404534e-13 -4.4435999063903585e-13 0.0900304021623438 -5.20657071200597e-13 2.9447941505404534e-13 -5.20657071200597e-13 0.09003040216163483" free_energy=-45147.243277652735 pbc="T T T"
In      -4.45397376       3.14943505       6.05959765        0       0.05468975      -0.03867150       0.06698100
In       7.58784527       1.28252854       1.61678846        1      -0.05468975       0.03867150      -0.06698100
In       1.32010225      -0.93345325       5.45498152        2      -0.05468975       0.03867150      -0.06698100
In      -1.56693576      -2.21598179       3.83819306        3      -0.00000000       0.00000000      -0.00000000
In      -1.32010225       4.25742595       3.53588499        4       0.05468975      -0.03867150      -0.06698100
In       4.94764076      -2.97489740       5.75728958        5       0.05468975       0.07734299      -0.00000000
In      -1.32010225       1.45706619       5.75728958        6       0.05468975       0.07734299       0.00000000
In      -1.81376926       7.40686100       1.91909653        7      -0.05468975      -0.07734299      -0.00000000
In       4.45397376       0.17453765       4.14050112        8      -0.05468975       0.03867150       0.06698100
In      -1.56693576       4.43196359      -0.00000000        9       0.00000000      -0.00000000      -0.00000000
In       4.45397376       6.82248303       0.30230806       10      -0.05468975       0.03867150       0.06698100
In      -1.32010225      -2.39051944       7.37407805       11       0.05468975      -0.03867150      -0.06698100
In       4.45397376       2.97489741       1.91909653       12      -0.05468975      -0.07734299      -0.00000000
In       1.81376925       5.36541685       2.22140459       13       0.05468975      -0.03867150       0.06698100
In       4.70080726       0.00000000      -0.00000000       14      -0.00000000      -0.00000000       0.00000000
In       1.56693575       2.21598180       3.83819306       15      -0.00000000      -0.00000000      -0.00000000
O        1.00522958       4.43756966       4.13984971       16       0.02496380       0.00519555      -0.05244804
O       -2.12864193       3.58241199       5.60160626       17       0.02496380      -0.04801911       0.02172454
O       -0.46060295       2.40293032      -0.03185768       18      -0.03205317      -0.00770202      -0.04810670
O       -1.00522959      -0.84394553       2.06506986       19      -0.02496380      -0.04282356      -0.03072349
O        4.08707772       5.25751609       2.09692754       20      -0.05359412       0.01504914       0.01738321
O        2.18066529       3.02874732       1.76341320       21       0.05359412      -0.00752973       0.02172454
O        2.18066529       6.66073236       0.33351433       22       0.05359412       0.02257887      -0.00434133
O       -2.41903875       6.28122924       3.80633538       23      -0.00342286       0.03278736      -0.04810670
O        3.59447446       2.02903327       7.70824379       24       0.03205317       0.00770202       0.04810670
O        5.55291026      -1.84926565       3.87005073       25       0.00342286      -0.03278736       0.04810670
O        6.72834597       3.38985740       1.74126552       26       0.03205317      -0.04551264      -0.01738321
O        3.84870427       2.37175031       4.17170739       27      -0.00342286      -0.05805531      -0.00434133
O        0.71483276       4.64291122       7.37472945       28      -0.00342286       0.02526795       0.05244804
O        2.41903875      -0.21094763       0.30165666       29       0.00342286      -0.02526795      -0.05244804
O       -3.59447446       1.04210620       5.93512059       30      -0.03205317       0.04551264       0.01738321
O        5.26251343       0.84955160       2.07477985       31      -0.02496380       0.04801911      -0.02172454
O        0.95320621       1.40321627       5.91297291       32      -0.05359412       0.00752973      -0.02172454
O        3.59447446      -0.98692707       5.90326292       33       0.03205317       0.03781062      -0.03072349
O        2.12864192      -0.00560607       3.53653640       34      -0.02496380      -0.00519555       0.05244804
O        0.95320621      -2.22876876       7.34287178       35      -0.05359412      -0.02257887       0.00434133
O       -0.71483276       2.06021328       3.50467872       36       0.00342286       0.05805531       0.00434133
O       -0.95320621      -0.82555249       5.57945857       37       0.05359412      -0.01504914      -0.01738321
O       -0.46060295       5.41889067       1.77312319       38      -0.03205317      -0.03781062       0.03072349
O        4.13910109       5.27590913       5.61131625       39       0.02496380       0.04282356       0.03072349
40
Lattice="9.401614526381458 7.368697792438138e-10 2.3207622450337904e-14 -3.133871509488547 8.863927180696084 -1.2763160568062972e-09 -3.1338715084464766 -4.43196358961116 7.676386116629051" Properties=species:S:1:pos:R:3:spacegroup_kinds:I:1:forces:R:3 spacegroup="P 1" unit_cell=conventional occupancy="_JSON {\"0\": {\"In\": 1}, \"1\": {\"In\": 1}, \"2\": {\"In\": 1}, \"3\": {\"In\": 1}, \"4\": {\"In\": 1}, \"5\": {\"In\": 1}, \"6\": {\"In\": 1}, \"7\": {\"In\": 1}, \"8\": {\"In\": 1}, \"9\": {\"In\": 1}, \"10\": {\"In\": 1}, \"11\": {\"In\": 1}, \"12\": {\"In\": 1}, \"13\": {\"In\": 1}, \"14\": {\"In\": 1}, \"15\": {\"In\": 1}, \"16\": {\"O\": 1}, \"17\": {\"O\": 1}, \"18\": {\"O\": 1}, \"19\": {\"O\": 1}, \"20\": {\"O\": 1}, \"21\": {\"O\": 1}, \"22\": {\"O\": 1}, \"23\": {\"O\": 1}, \"24\": {\"O\": 1}, \"25\": {\"O\": 1}, \"26\": {\"O\": 1}, \"27\": {\"O\": 1}, \"28\": {\"O\": 1}, \"29\": {\"O\": 1}, \"30\": {\"O\": 1}, \"31\": {\"O\": 1}, \"32\": {\"O\": 1}, \"33\": {\"O\": 1}, \"34\": {\"O\": 1}, \"35\": {\"O\": 1}, \"36\": {\"O\": 1}, \"37\": {\"O\": 1}, \"38\": {\"O\": 1}, \"39\": {\"O\": 1}}" n_minim_iter=2 energy=-45147.25300572318 stress="0.08909225307703474 -7.955622075099668e-15 -2.7066834517689145e-13 -7.955622075099668e-15 0.08909225307749324 -7.34238289571976e-14 -2.7066834517689145e-13 -7.34238289571976e-14 0.08909225307741458" free_energy=-45147.25300572318 pbc="T T T"
In      -4.45006735       3.14667280       6.06438201        0       0.02663693      -0.01883516       0.03262345
In       7.58393886       1.28529079       1.61200410        1      -0.02663693       0.01883516      -0.03262345
In       1.31619584      -0.93069100       5.45019716        2      -0.02663693       0.01883516      -0.03262345
In      -1.56693576      -2.21598179       3.83819306        3      -0.00000000      -0.00000000       0.00000000
In      -1.31619584       4.25466370       3.53110063        4       0.02663693      -0.01883516      -0.03262345
In       4.95154717      -2.96937290       5.75728958        5       0.02663693       0.03767031      -0.00000000
In      -1.31619584       1.46259069       5.75728958        6       0.02663693       0.03767031       0.00000000
In      -1.81767567       7.40133650       1.91909653        7      -0.02663693      -0.03767031       0.00000000
In       4.45006735       0.17729990       4.14528548        8      -0.02663693       0.01883516       0.03262345
In      -1.56693576       4.43196359      -0.00000000        9       0.00000000       0.00000000       0.00000000
In       4.45006735       6.82524528       0.30709242       10      -0.02663693       0.01883516       0.03262345
In      -1.31619584      -2.39328169       7.36929369       11       0.02663693      -0.01883516      -0.03262345
In       4.45006735       2.96937291       1.91909653       12      -0.02663693      -0.03767031       0.00000000
In       1.81767567       5.36265460       2.22618895       13       0.02663693      -0.01883516       0.03262345
In       4.70080726       0.00000000      -0.00000000       14      -0.00000000       0.00000000      -0.00000000
In       1.56693575       2.21598180       3.83819306       15      -0.00000000      -0.00000000      -0.00000000
O        1.00701271       4.43794077       4.13610343       16       0.02353328      -0.00058540      -0.01266004
O       -2.12685880       3.57898205       5.60315801       17       0.02353328      -0.01067122       0.00683699
O       -0.46289247       2.40238018      -0.03529387       18      -0.00276841       0.00792689      -0.02537588
O       -1.00701271      -0.84700436       2.06287532       19      -0.02353328      -0.01125662      -0.00582305
O        4.08324957       5.25859103       2.09816919       20      -0.01790535      -0.00339415       0.01955283
O        2.18449345       3.02820948       1.76496495       21       0.01790535      -0.01863032       0.00683699
O        2.18449344       6.66234513       0.33320424       22       0.01790535       0.01523617       0.01271583
O       -2.41928324       6.28357120       3.80289918       23      -0.00839635      -0.00003221      -0.02537588
O        3.59676397       2.02958342       7.71167998       24       0.00276841      -0.00792689       0.02537588
O        5.55315475      -1.85160760       3.87348693       25       0.00839635       0.00003221       0.02537588
O        6.73063548       3.38660650       1.74002386       26       0.00276841      -0.01801271      -0.01955282
O        3.84845978       2.36760350       4.17139730       27      -0.00839635      -0.02196005       0.01271583
O        0.71458827       4.64471608       7.37847574       28      -0.00839635       0.02199226       0.01266004
O        2.41928324      -0.21275248       0.29791037       29       0.00839635      -0.02199226      -0.01266004
O       -3.59676397       1.04535710       5.93636225       30      -0.00276841       0.01801271       0.01955282
O        5.26073030       0.85298154       2.07322810       31      -0.02353328       0.01067122      -0.00683699
O        0.94937806       1.40375411       5.91142116       32      -0.01790535       0.01863032      -0.00683699
O        3.59676397      -0.98422632       5.90106838       33       0.00276841       0.02593960      -0.00582305
O        2.12685879      -0.00597718       3.54028268       34      -0.02353328       0.00058540       0.01266004
O        0.94937806      -2.23038154       7.34318187       35      -0.01790535      -0.01523617      -0.01271583
O       -0.71458827       2.06436009       3.50498881       36       0.00839635       0.02196005      -0.01271583
O       -0.94937806      -0.82662743       5.57821692       37       0.01790535       0.00339415      -0.01955282
O       -0.46289247       5.41618991       1.77531773       38      -0.00276841      -0.02593960       0.00582305
O        4.14088422       5.27896795       5.61351079       39       0.02353328       0.01125662       0.00582305
40
Lattice="9.401614526381461 7.368697792438142e-10 2.320762245033792e-14 -3.1338715094885488 8.863927180696086 -1.2763160568062979e-09 -3.1338715084464783 -4.431963589611161 7.676386116629055" Properties=species:S:1:pos:R:3:spacegroup_kinds:I:1:forces:R:3 spacegroup="P 1" unit_cell=conventional occupancy="_JSON {\"0\": {\"In\": 1}, \"1\": {\"In\": 1}, \"2\": {\"In\": 1}, \"3\": {\"In\": 1}, \"4\": {\"In\": 1}, \"5\": {\"In\": 1}, \"6\": {\"In\": 1}, \"7\": {\"In\": 1}, \"8\": {\"In\": 1}, \"9\": {\"In\": 1}, \"10\": {\"In\": 1}, \"11\": {\"In\": 1}, \"12\": {\"In\": 1}, \"13\": {\"In\": 1}, \"14\": {\"In\": 1}, \"15\": {\"In\": 1}, \"16\": {\"O\": 1}, \"17\": {\"O\": 1}, \"18\": {\"O\": 1}, \"19\": {\"O\": 1}, \"20\": {\"O\": 1}, \"21\": {\"O\": 1}, \"22\": {\"O\": 1}, \"23\": {\"O\": 1}, \"24\": {\"O\": 1}, \"25\": {\"O\": 1}, \"26\": {\"O\": 1}, \"27\": {\"O\": 1}, \"28\": {\"O\": 1}, \"29\": {\"O\": 1}, \"30\": {\"O\": 1}, \"31\": {\"O\": 1}, \"32\": {\"O\": 1}, \"33\": {\"O\": 1}, \"34\": {\"O\": 1}, \"35\": {\"O\": 1}, \"36\": {\"O\": 1}, \"37\": {\"O\": 1}, \"38\": {\"O\": 1}, \"39\": {\"O\": 1}}" n_minim_iter=3 energy=-45147.25549919187 stress="0.08829375484437446 5.628941908523747e-13 1.4628535568114436e-14 5.628941908523747e-13 0.08829375484539624 1.382766272840155e-13 1.4628535568114436e-14 1.382766272840155e-13 0.08829375484509788" free_energy=-45147.25549919187 pbc="T T T"
In      -4.44689600       3.14443032       6.06826610        0       0.00363840      -0.00257273       0.00445611
In       7.58076751       1.28753328       1.60812001        1      -0.00363840       0.00257273      -0.00445611
In       1.31302449      -0.92844852       5.44631307        2      -0.00363840       0.00257273      -0.00445611
In      -1.56693576      -2.21598179       3.83819306        3       0.00000000       0.00000000      -0.00000000
In      -1.31302449       4.25242122       3.52721654        4       0.00363840      -0.00257273      -0.00445611
In       4.95471853      -2.96488794       5.75728958        5       0.00363840       0.00514547       0.00000000
In      -1.31302449       1.46707565       5.75728958        6       0.00363840       0.00514547       0.00000000
In      -1.82084702       7.39685153       1.91909653        7      -0.00363840      -0.00514547      -0.00000000
In       4.44689600       0.17954238       4.14916957        8      -0.00363840       0.00257273       0.00445611
In      -1.56693576       4.43196359      -0.00000000        9       0.00000000       0.00000000      -0.00000000
In       4.44689600       6.82748776       0.31097652       10      -0.00363840       0.00257273       0.00445611
In      -1.31302449      -2.39552417       7.36540959       11       0.00363840      -0.00257273      -0.00445611
In       4.44689600       2.96488794       1.91909653       12      -0.00363840      -0.00514547      -0.00000000
In       1.82084702       5.36041211       2.23007304       13       0.00363840      -0.00257273       0.00445611
In       4.70080726       0.00000000      -0.00000000       14      -0.00000000       0.00000000       0.00000000
In       1.56693575       2.21598180       3.83819306       15      -0.00000000      -0.00000000       0.00000000
O        1.00874808       4.43816322       4.13338804       16       0.02096540      -0.00487802       0.01756045
O       -2.12512343       3.57651924       5.60432305       17       0.02096540       0.01764681      -0.00455573
O       -0.46442625       2.40222900      -0.03813270       18       0.01902699       0.01901747      -0.00692979
O       -1.00874808      -0.84924472       2.06132499       19      -0.02096540       0.01276878       0.01300472
O        4.08034915       5.25919239       2.09945768       20       0.00964910      -0.01676970       0.01993451
O        2.18739386       3.02739430       1.76612999       21      -0.00964910      -0.02564864      -0.00455573
O        2.18739386       6.66376168       0.33332768       22      -0.00964910       0.00887894       0.02449024
O       -2.41965197       6.28506765       3.80006036       23      -0.01158751      -0.02427798      -0.00692979
O        3.59829775       2.02973460       7.71451881       24      -0.01902699      -0.01901747       0.00692979
O        5.55352347      -1.85310406       3.87632575       25       0.01158751       0.02427798       0.00692979
O        6.73216926       3.38407241       1.73873537       26      -0.01902699       0.00350736      -0.01993451
O        3.84809105       2.36439678       4.17152074       27      -0.01158751       0.00613761       0.02449024
O        0.71421954       4.64642635       7.38119112       28      -0.01158751       0.01814036      -0.01756045
O        2.41965196      -0.21446275       0.29519499       29       0.01158751      -0.01814036       0.01756045
O       -3.59829775       1.04789118       5.93765074       30       0.01902699      -0.00350736       0.01993451
O        5.25899494       0.85544435       2.07206306       31      -0.02096540      -0.01764681       0.00455573
O        0.94647764       1.40456929       5.91025612       32       0.00964910       0.02564864       0.00455573
O        3.59829775      -0.98184341       5.89951804       33      -0.01902699       0.01551011       0.01300472
O        2.12512343      -0.00619963       3.54299807       34      -0.02096540       0.00487802      -0.01756045
O        0.94647764      -2.23179809       7.34305843       35       0.00964910      -0.00887894      -0.02449024
O       -0.71421955       2.06756681       3.50486537       36       0.01158751      -0.00613761      -0.02449024
O       -0.94647765      -0.82722880       5.57692843       37      -0.00964910       0.01676970      -0.01993451
O       -0.46442625       5.41380700       1.77686807       38       0.01902699      -0.01551011      -0.01300472
O        4.14261958       5.28120832       5.61506113       39       0.02096540      -0.01276878      -0.01300472
40
Lattice="9.40161452638147 7.368697792438148e-10 2.320762245033798e-14 -3.1338715094885514 8.863927180696093 -1.276316056806299e-09 -3.133871508446481 -4.431963589611165 7.676386116629064" Properties=species:S:1:pos:R:3:spacegroup_kinds:I:1:forces:R:3 spacegroup="P 1" unit_cell=conventional occupancy="_JSON {\"0\": {\"In\": 1}, \"1\": {\"In\": 1}, \"2\": {\"In\": 1}, \"3\": {\"In\": 1}, \"4\": {\"In\": 1}, \"5\": {\"In\": 1}, \"6\": {\"In\": 1}, \"7\": {\"In\": 1}, \"8\": {\"In\": 1}, \"9\": {\"In\": 1}, \"10\": {\"In\": 1}, \"11\": {\"In\": 1}, \"12\": {\"In\": 1}, \"13\": {\"In\": 1}, \"14\": {\"In\": 1}, \"15\": {\"In\": 1}, \"16\": {\"O\": 1}, \"17\": {\"O\": 1}, \"18\": {\"O\": 1}, \"19\": {\"O\": 1}, \"20\": {\"O\": 1}, \"21\": {\"O\": 1}, \"22\": {\"O\": 1}, \"23\": {\"O\": 1}, \"24\": {\"O\": 1}, \"25\": {\"O\": 1}, \"26\": {\"O\": 1}, \"27\": {\"O\": 1}, \"28\": {\"O\": 1}, \"29\": {\"O\": 1}, \"30\": {\"O\": 1}, \"31\": {\"O\": 1}, \"32\": {\"O\": 1}, \"33\": {\"O\": 1}, \"34\": {\"O\": 1}, \"35\": {\"O\": 1}, \"36\": {\"O\": 1}, \"37\": {\"O\": 1}, \"38\": {\"O\": 1}, \"39\": {\"O\": 1}}" n_minim_iter=4 energy=-45147.25743321269 stress="0.08770314867696812 -2.4175882975358246e-13 8.755601131941772e-15 -2.4175882975358246e-13 0.08770314867700563 -4.758569423918959e-13 8.755601131941772e-15 -4.758569423918959e-13 0.08770314867644417" free_energy=-45147.25743321269 pbc="T T T"
In      -4.44388386       3.14230041       6.07195521        0      -0.01270790       0.00898584      -0.01556393
In       7.57775536       1.28966319       1.60443090        1       0.01270790      -0.00898584       0.01556393
In       1.31001234      -0.92631861       5.44262396        2       0.01270790      -0.00898584       0.01556393
In      -1.56693576      -2.21598179       3.83819306        3      -0.00000000       0.00000000       0.00000000
In      -1.31001235       4.25029131       3.52352743        4      -0.01270790       0.00898584       0.01556393
In       4.95773067      -2.96062812       5.75728958        5      -0.01270790      -0.01797168       0.00000000
In      -1.31001235       1.47133547       5.75728958        6      -0.01270790      -0.01797168       0.00000000
In      -1.82385917       7.39259171       1.91909653        7       0.01270790       0.01797168      -0.00000000
In       4.44388385       0.18167229       4.15285868        8       0.01270790      -0.00898584      -0.01556393
In      -1.56693576       4.43196359      -0.00000000        9      -0.00000000      -0.00000000       0.00000000
In       4.44388385       6.82961767       0.31466563       10       0.01270790      -0.00898584      -0.01556393
In      -1.31001235      -2.39765408       7.36172049       11      -0.01270790       0.00898584       0.01556393
In       4.44388385       2.96062812       1.91909653       12       0.01270790       0.01797168      -0.00000000
In       1.82385916       5.35828220       2.23376215       13      -0.01270790       0.00898584      -0.01556393
In       4.70080726       0.00000000      -0.00000000       14       0.00000000      -0.00000000       0.00000000
In       1.56693575       2.21598180       3.83819306       15      -0.00000000      -0.00000000      -0.00000000
O        1.01417957       4.43735116       4.13492957       16       0.00920942       0.00789079       0.00869548
O       -2.11969194       3.57826027       5.60425556       17       0.00920942       0.00358511      -0.01118137
O       -0.46173991       2.40591115      -0.04156231       18       0.01388939       0.00027587      -0.00544959
O       -1.01417957      -0.84831576       2.06279901       19      -0.00920942       0.01147590      -0.00248588
O        4.08018011       5.25628334       2.10436132       20       0.00031027      -0.01462223       0.00296371
O        2.18756290       3.02169310       1.76606250       21      -0.00031027      -0.00987776      -0.01118137
O        2.18756290       6.66655383       0.33829882       22      -0.00031027      -0.00474447       0.01414507
O       -2.42222809       6.28130757       3.79663075       23       0.00436970      -0.01318700      -0.00544959
O        3.59561142       2.02605245       7.71794842       24      -0.01388939      -0.00027587       0.00544959
O        5.55609959      -1.84934397       3.87975536       25      -0.00436970       0.01318700       0.00544959
O        6.72948293       3.38294336       1.73383173       26      -0.01388939      -0.00458155      -0.00296371
O        3.84551493       2.36330669       4.17649188       27       0.00436970       0.00187402       0.01414507
O        0.71164342       4.65127652       7.37964960       28       0.00436970       0.01131298      -0.00869548
O        2.42222808      -0.21931292       0.29673651       29      -0.00436970      -0.01131298       0.00869548
O       -3.59561142       1.04902024       5.94255438       30       0.01388939       0.00458155       0.00296371
O        5.25356345       0.85370332       2.07213055       31      -0.00920942      -0.00358511       0.01118137
O        0.94630860       1.41027050       5.91032361       32       0.00031027       0.00987776       0.01118137
O        3.59561142      -0.97703220       5.90099207       33      -0.01388939       0.00485742      -0.00248588
O        2.11969194      -0.00538756       3.54145654       34      -0.00920942      -0.00789079      -0.00869548
O        0.94630860      -2.23459024       7.33808729       35       0.00031027       0.00474447      -0.01414507
O       -0.71164343       2.06865690       3.49989424       36      -0.00436970      -0.00187402      -0.01414507
O       -0.94630861      -0.82431975       5.57202479       37      -0.00031027       0.01462223      -0.00296371
O       -0.46173991       5.40899580       1.77539404       38       0.01388939      -0.00485742       0.00248588
O        4.14805108       5.28027935       5.61358710       39       0.00920942      -0.01147590       0.00248588
40
Lattice="9.40161452638147 7.368697792438147e-10 2.3207622450337973e-14 -3.133871509488551 8.863927180696093 -1.2763160568062989e-09 -3.1338715084464805 -4.431963589611165 7.676386116629063" Properties=species:S:1:pos:R:3:spacegroup_kinds:I:1:forces:R:3 spacegroup="P 1" unit_cell=conventional occupancy="_JSON {\"0\": {\"In\": 1}, \"1\": {\"In\": 1}, \"2\": {\"In\": 1}, \"3\": {\"In\": 1}, \"4\": {\"In\": 1}, \"5\": {\"In\": 1}, \"6\": {\"In\": 1}, \"7\": {\"In\": 1}, \"8\": {\"In\": 1}, \"9\": {\"In\": 1}, \"10\": {\"In\": 1}, \"11\": {\"In\": 1}, \"12\": {\"In\": 1}, \"13\": {\"In\": 1}, \"14\": {\"In\": 1}, \"15\": {\"In\": 1}, \"16\": {\"O\": 1}, \"17\": {\"O\": 1}, \"18\": {\"O\": 1}, \"19\": {\"O\": 1}, \"20\": {\"O\": 1}, \"21\": {\"O\": 1}, \"22\": {\"O\": 1}, \"23\": {\"O\": 1}, \"24\": {\"O\": 1}, \"25\": {\"O\": 1}, \"26\": {\"O\": 1}, \"27\": {\"O\": 1}, \"28\": {\"O\": 1}, \"29\": {\"O\": 1}, \"30\": {\"O\": 1}, \"31\": {\"O\": 1}, \"32\": {\"O\": 1}, \"33\": {\"O\": 1}, \"34\": {\"O\": 1}, \"35\": {\"O\": 1}, \"36\": {\"O\": 1}, \"37\": {\"O\": 1}, \"38\": {\"O\": 1}, \"39\": {\"O\": 1}}" n_minim_iter=5 energy=-45147.25781593458 stress="0.08789174303184032 3.208942132737599e-13 -4.740173984038281e-13 3.208942132737599e-13 0.0878917430315529 2.832363207402567e-14 -4.740173984038281e-13 2.832363207402567e-14 0.08789174303197153" free_energy=-45147.25781593458 pbc="T T T"
In      -4.44453782       3.14276283       6.07115427        0      -0.00711690       0.00503241      -0.00871638
In       7.57840933       1.28920076       1.60523184        1       0.00711690      -0.00503241       0.00871638
In       1.31066631      -0.92678103       5.44342490        2       0.00711690      -0.00503241       0.00871638
In      -1.56693576      -2.21598179       3.83819306        3      -0.00000000      -0.00000000       0.00000000
In      -1.31066631       4.25075373       3.52432837        4      -0.00711690       0.00503241       0.00871638
In       4.95707671      -2.96155297       5.75728958        5      -0.00711690      -0.01006481       0.00000000
In      -1.31066631       1.47041062       5.75728958        6      -0.00711690      -0.01006481      -0.00000000
In      -1.82320520       7.39351656       1.91909653        7       0.00711690       0.01006481       0.00000000
In       4.44453782       0.18120986       4.15205774        8       0.00711690      -0.00503241      -0.00871638
In      -1.56693576       4.43196359      -0.00000000        9       0.00000000      -0.00000000       0.00000000
In       4.44453782       6.82915525       0.31386468       10       0.00711690      -0.00503241      -0.00871638
In      -1.31066631      -2.39719166       7.36252143       11      -0.00711690       0.00503241       0.00871638
In       4.44453782       2.96155297       1.91909653       12       0.00711690       0.01006481      -0.00000000
In       1.82320520       5.35874463       2.23296121       13      -0.00711690       0.00503241      -0.00871638
In       4.70080726       0.00000000      -0.00000000       14       0.00000000       0.00000000      -0.00000000
In       1.56693575       2.21598180       3.83819306       15      -0.00000000      -0.00000000       0.00000000
O        1.01459259       4.43728408       4.13604893       16       0.00829206       0.00996731      -0.00295645
O       -2.11927892       3.57926321       5.60375397       17       0.00829206      -0.00754402      -0.00715372
O       -0.46071990       2.40648488      -0.04132049       18       0.00504872      -0.00525063      -0.01112598
O       -1.01459259      -0.84737990       2.06341679       19      -0.00829206       0.00242329      -0.01011017
O        4.08098802       5.25548709       2.10473728       20      -0.00987659      -0.00884688       0.00101581
O        2.18675500       3.02096939       1.76556091       21       0.00987659      -0.00530316      -0.00715372
O        2.18675500       6.66648130       0.33917636       22       0.00987659      -0.00354372       0.00816952
O       -2.42242900       6.28015465       3.79687256       23       0.00663325      -0.00300977      -0.01112598
O        3.59459141       2.02547872       7.71770660       24      -0.00504872       0.00525063       0.01112598
O        5.55630051      -1.84819105       3.87951355       25      -0.00663325       0.00300977       0.01112598
O        6.72846292       3.38343964       1.73345577       26      -0.00504872      -0.01226069      -0.00101581
O        3.84531401       2.36409257       4.17736942       27       0.00663325      -0.00813050       0.00816952
O        0.71144251       4.65164356       7.37853024       28       0.00663325       0.01114026       0.00295645
O        2.42242900      -0.21967996       0.29785588       29      -0.00663325      -0.01114026      -0.00295645
O       -3.59459141       1.04852395       5.94293034       30       0.00504872       0.01226069       0.00101581
O        5.25315043       0.85270039       2.07263214       31      -0.00829206       0.00754402       0.00715372
O        0.94711651       1.41099421       5.91082520       32      -0.00987659       0.00530316       0.00715372
O        3.59459141      -0.97695476       5.90160985       33      -0.00504872       0.00701006      -0.01011017
O        2.11927892      -0.00532048       3.54033718       34      -0.00829206      -0.00996731       0.00295645
O        0.94711651      -2.23451770       7.33720975       35      -0.00987659       0.00354372      -0.00816952
O       -0.71144251       2.06787102       3.49901669       36      -0.00663325       0.00813050      -0.00816952
O       -0.94711651      -0.82352350       5.57164883       37       0.00987659       0.00884688      -0.00101581
O       -0.46071990       5.40891835       1.77477626       38       0.00504872      -0.00701006       0.01011017
O        4.14846410       5.27934349       5.61296932       39       0.00829206      -0.00242329       0.01011017
40