40
Lattice="8.521692056006238 6.679042206078672e-10 1.4761326106490955e-14 -2.8405640192984523 8.034328319758087 -1.1568520539523848e-09 -2.840564018353904 -4.017164159211138 6.957932428026475" Properties=species:S:1:pos:R:3:spacegroup_kinds:I:1:forces:R:3 spacegroup="P 1" unit_cell=conventional occupancy="_JSON {\"0\": {\"In\": 1}, \"1\": {\"In\": 1}, \"2\": {\"In\": 1}, \"3\": {\"In\": 1}, \"4\": {\"In\": 1}, \"5\": {\"In\": 1}, \"6\": {\"In\": 1}, \"7\": {\"In\": 1}, \"8\": {\"In\": 1}, \"9\": {\"In\": 1}, \"10\": {\"In\": 1}, \"11\": {\"In\": 1}, \"12\": {\"In\": 1}, \"13\": {\"In\": 1}, \"14\": {\"In\": 1}, \"15\": {\"In\": 1}, \"16\": {\"O\": 1}, \"17\": {\"O\": 1}, \"18\": {\"O\": 1}, \"19\": {\"O\": 1}, \"20\": {\"O\": 1}, \"21\": {\"O\": 1}, \"22\": {\"O\": 1}, \"23\": {\"O\": 1}, \"24\": {\"O\": 1}, \"25\": {\"O\": 1}, \"26\": {\"O\": 1}, \"27\": {\"O\": 1}, \"28\": {\"O\": 1}, \"29\": {\"O\": 1}, \"30\": {\"O\": 1}, \"31\": {\"O\": 1}, \"32\": {\"O\": 1}, \"33\": {\"O\": 1}, \"34\": {\"O\": 1}, \"35\": {\"O\": 1}, \"36\": {\"O\": 1}, \"37\": {\"O\": 1}, \"38\": {\"O\": 1}, \"39\": {\"O\": 1}}" n_minim_iter=1 energy=-45148.40213212976 stress="-0.11768121715441494 -2.9585373328127415e-13 1.0592395126145592e-13 -2.9585373328127415e-13 -0.11768121715443597 -3.691246497493273e-13 1.0592395126145592e-13 -3.691246497493273e-13 -0.11768121715364754" free_energy=-45148.40213212976 pbc="T T T"
In      -4.04111459       2.85749953       5.48756427        0       0.10626880      -0.07514339       0.13015217
In       6.88167860       1.15966463       1.47036815        1      -0.10626880       0.07514339      -0.13015217
In       1.20055057      -0.84891745       4.94933436        2      -0.10626880       0.07514339      -0.13015217
In      -1.42028201      -2.00858208       3.47896621        3       0.00000000      -0.00000000       0.00000000
In      -1.20055057       3.86179057       3.20985126        4       0.10626880      -0.07514339      -0.13015217
In       4.48057747      -2.70212593       5.21844932        5       0.10626880       0.15028678       0.00000000
In      -1.20055057       1.31503823       5.21844932        6       0.10626880       0.15028678      -0.00000000
In      -1.64001345       6.71929010       1.73948310        7      -0.10626880      -0.15028678       0.00000000
In       4.04111459       0.15537359       3.74808117        8      -0.10626880       0.07514339       0.13015217
In      -1.42028201       4.01716416      -0.00000000        9      -0.00000000       0.00000000      -0.00000000
In       4.04111459       6.18111983       0.26911495       10      -0.10626880       0.07514339       0.13015217
In      -1.20055057      -2.16395567       6.68881747       11       0.10626880      -0.07514339      -0.13015217
In       4.04111459       2.70212594       1.73948310       12      -0.10626880      -0.15028678       0.00000000
In       1.64001345       4.86608161       2.00859806       13       0.10626880      -0.07514339       0.13015217
In       4.26084603       0.00000000      -0.00000000       14       0.00000000       0.00000000       0.00000000
In       1.42028201       2.00858208       3.47896621       15      -0.00000000      -0.00000000       0.00000000
O        0.83894203       4.01612400       3.83335395       16       0.02045466      -0.01344402       0.12585998
O       -2.00162199       3.32030199       5.04215626       17       0.02045466       0.11571995      -0.05128712
O       -0.37834129       2.17246920       0.07232854       18       0.10324489       0.05717841       0.05010978
O       -0.83894204      -0.69790234       1.91757778       19      -0.02045466       0.10227593       0.07457285
O        3.79761806       4.75682540       1.84524924       20       0.10228359      -0.07334503       0.02446307
O        1.88350997       2.78896206       1.56319004       21      -0.10228359      -0.05785815      -0.05128712
O        1.88350997       5.98502751       0.28205920       22      -0.10228359      -0.01548688       0.07575019
O       -2.17433737       5.65829343       3.55129475       23      -0.01949336      -0.11639968       0.05010978
O        3.21890531       1.84469496       6.88560389       24      -0.10324489      -0.05717841      -0.05010978
O        5.01490139      -1.64112926       3.40663767       25       0.01949336       0.11639968      -0.05010978
O        6.05946932       3.15745504       1.63371696       26      -0.10324489       0.07198555      -0.02446307
O        3.50679067       2.25494684       3.76102541       27      -0.01949336       0.10159619       0.07575019
O        0.66622665       4.13825222       6.60354468       28      -0.01949336       0.01480350      -0.12585998
O        2.17433737      -0.12108805       0.35438774       29       0.01949336      -0.01480350       0.12585997
O       -3.21890531       0.85970913       5.32421546       30       0.10324489      -0.07198555       0.02446307
O        4.84218600       0.69686217       1.91577616       31      -0.02045466      -0.11571995       0.05128712
O        0.95705404       1.22820211       5.39474238       32       0.10228359       0.05785815       0.05128712
O        3.21890531      -0.98498583       5.39654400       33      -0.10324489      -0.01480714       0.07457285
O        2.00162198       0.00104017       3.12457847       34      -0.02045466       0.01344402      -0.12585998
O        0.95705404      -1.96786334       6.67587322       35       0.10228359       0.01548688      -0.07575019
O       -0.66622665       1.76221732       3.19690701       36       0.01949336      -0.10159619      -0.07575019
O       -0.95705405      -0.73966124       5.11268318       37      -0.10228359       0.07334503      -0.02446307
O       -0.37834129       5.00214999       1.56138842       38       0.10324489       0.01480714      -0.07457285
O        3.67950605       4.71506650       5.04035464       39       0.02045466      -0.10227593      -0.07457285
40
Lattice="8.52169205600624 6.679042206078673e-10 1.476132610649096e-14 -2.8405640192984527 8.034328319758089 -1.156852053952385e-09 -2.8405640183539043 -4.017164159211139 6.957932428026478" Properties=species:S:1:pos:R:3:spacegroup_kinds:I:1:forces:R:3 spacegroup="P 1" unit_cell=conventional occupancy="_JSON {\"0\": {\"In\": 1}, \"1\": {\"In\": 1}, \"2\": {\"In\": 1}, \"3\": {\"In\": 1}, \"4\": {\"In\": 1}, \"5\": {\"In\": 1}, \"6\": {\"In\": 1}, \"7\": {\"In\": 1}, \"8\": {\"In\": 1}, \"9\": {\"In\": 1}, \"10\": {\"In\": 1}, \"11\": {\"In\": 1}, \"12\": {\"In\": 1}, \"13\": {\"In\": 1}, \"14\": {\"In\": 1}, \"15\": {\"In\": 1}, \"16\": {\"O\": 1}, \"17\": {\"O\": 1}, \"18\": {\"O\": 1}, \"19\": {\"O\": 1}, \"20\": {\"O\": 1}, \"21\": {\"O\": 1}, \"22\": {\"O\": 1}, \"23\": {\"O\": 1}, \"24\": {\"O\": 1}, \"25\": {\"O\": 1}, \"26\": {\"O\": 1}, \"27\": {\"O\": 1}, \"28\": {\"O\": 1}, \"29\": {\"O\": 1}, \"30\": {\"O\": 1}, \"31\": {\"O\": 1}, \"32\": {\"O\": 1}, \"33\": {\"O\": 1}, \"34\": {\"O\": 1}, \"35\": {\"O\": 1}, \"36\": {\"O\": 1}, \"37\": {\"O\": 1}, \"38\": {\"O\": 1}, \"39\": {\"O\": 1}}" n_minim_iter=2 energy=-45148.48536122855 stress="-0.09826993787095506 1.0518145911640638e-14 5.964776526844992e-13 1.0518145911640638e-14 -0.09826993787057689 4.879021851384265e-13 5.964776526844992e-13 4.879021851384265e-13 -0.09826993787019546" free_energy=-45148.48536122855 pbc="T T T"
In      -4.01571995       2.83954281       5.51866623        0      -0.00428886       0.00303268      -0.00525275
In       6.85628396       1.17762136       1.43926619        1       0.00428885      -0.00303268       0.00525275
In       1.17515592      -0.83096072       4.91823240        2       0.00428885      -0.00303268       0.00525275
In      -1.42028201      -2.00858208       3.47896621        3       0.00000000      -0.00000000      -0.00000000
In      -1.17515593       3.84383385       3.17874930        4      -0.00428886       0.00303268       0.00525275
In       4.50597211      -2.66621248       5.21844932        5      -0.00428886      -0.00606536       0.00000000
In      -1.17515593       1.35095168       5.21844932        6      -0.00428886      -0.00606536       0.00000000
In      -1.66540810       6.68337665       1.73948310        7       0.00428886       0.00606536      -0.00000000
In       4.01571994       0.17333032       3.77918313        8       0.00428885      -0.00303268      -0.00525275
In      -1.42028201       4.01716416      -0.00000000        9      -0.00000000      -0.00000000      -0.00000000
In       4.01571994       6.19907656       0.30021691       10       0.00428886      -0.00303268      -0.00525275
In      -1.17515593      -2.18191239       6.65771551       11      -0.00428885       0.00303268       0.00525275
In       4.01571994       2.66621249       1.73948310       12       0.00428885       0.00606536      -0.00000000
In       1.66540809       4.84812489       2.03970002       13      -0.00428886       0.00303268      -0.00525275
In       4.26084603       0.00000000      -0.00000000       14      -0.00000000      -0.00000000       0.00000000
In       1.42028201       2.00858208       3.47896621       15       0.00000000       0.00000000      -0.00000000
O        0.84383000       4.01291133       3.86343022       16       0.04950013       0.05163059      -0.02706319
O       -1.99673401       3.34795514       5.02990037       17       0.04950013      -0.04925271      -0.03118181
O       -0.35366926       2.18613291       0.08430308       18       0.01874194      -0.02750338      -0.06885275
O       -0.84383001      -0.67346185       1.93539817       19      -0.04950013       0.00237789      -0.05824500
O        3.82206038       4.73929842       1.85109509       20      -0.06293594      -0.04213004       0.01060775
O        1.85906766       2.77513592       1.55093416       21       0.06293594      -0.03025160      -0.03118181
O        1.85906766       5.98132667       0.30016093       22       0.06293594      -0.01187844       0.04178956
O       -2.17899562       5.63047785       3.56326929       23       0.03217775      -0.00850228      -0.06885275
O        3.19423327       1.83103126       6.87362935       24      -0.01874194       0.02750338       0.06885275
O        5.01955964      -1.61331368       3.39466313       25      -0.03217775       0.00850228       0.06885275
O        6.03479729       3.17465714       1.62787112       26      -0.01874194      -0.07337992      -0.01060775
O        3.50213241       2.27922489       3.77912714       27       0.03217775      -0.05537709       0.04178956
O        0.66156839       4.14178975       6.57346841       28       0.03217775       0.06387937       0.02706319
O        2.17899562      -0.12462559       0.38446401       29      -0.03217775      -0.06387937      -0.02706319
O       -3.19423328       0.84250702       5.33006130       30       0.01874194       0.07337992       0.01060775
O        4.83729803       0.66920903       1.92803205       31      -0.04950013       0.04925271       0.03118181
O        0.98149636       1.24202825       5.40699826       32      -0.06293594       0.03025160       0.03118181
O        3.19423327      -0.98852423       5.41436438       33      -0.01874194       0.04587654      -0.05824500
O        1.99673401       0.00425283       3.09450220       34      -0.04950013      -0.05163059       0.02706319
O        0.98149636      -1.96416250       6.65777149       35      -0.06293594       0.01187844      -0.04178956
O       -0.66156840       1.73793928       3.17880528       36      -0.03217775       0.05537709      -0.04178956
O       -0.98149636      -0.72213426       5.10683733       37       0.06293594       0.04213004      -0.01060775
O       -0.35366926       5.00568840       1.54356804       38       0.01874194      -0.04587654       0.05824500
O        3.68439402       4.69062602       5.02253425       39       0.04950013      -0.00237789       0.05824500
40
Lattice="8.521692056006241 6.679042206078675e-10 1.4761326106490962e-14 -2.8405640192984536 8.03432831975809 -1.156852053952385e-09 -2.840564018353905 -4.01716415921114 6.957932428026479" Properties=species:S:1:pos:R:3:spacegroup_kinds:I:1:forces:R:3 spacegroup="P 1" unit_cell=conventional occupancy="_JSON {\"0\": {\"In\": 1}, \"1\": {\"In\": 1}, \"2\": {\"In\": 1}, \"3\": {\"In\": 1}, \"4\": {\"In\": 1}, \"5\": {\"In\": 1}, \"6\": {\"In\": 1}, \"7\": {\"In\": 1}, \"8\": {\"In\": 1}, \"9\": {\"In\": 1}, \"10\": {\"In\": 1}, \"11\": {\"In\": 1}, \"12\": {\"In\": 1}, \"13\": {\"In\": 1}, \"14\": {\"In\": 1}, \"15\": {\"In\": 1}, \"16\": {\"O\": 1}, \"17\": {\"O\": 1}, \"18\": {\"O\": 1}, \"19\": {\"O\": 1}, \"20\": {\"O\": 1}, \"21\": {\"O\": 1}, \"22\": {\"O\": 1}, \"23\": {\"O\": 1}, \"24\": {\"O\": 1}, \"25\": {\"O\": 1}, \"26\": {\"O\": 1}, \"27\": {\"O\": 1}, \"28\": {\"O\": 1}, \"29\": {\"O\": 1}, \"30\": {\"O\": 1}, \"31\": {\"O\": 1}, \"32\": {\"O\": 1}, \"33\": {\"O\": 1}, \"34\": {\"O\": 1}, \"35\": {\"O\": 1}, \"36\": {\"O\": 1}, \"37\": {\"O\": 1}, \"38\": {\"O\": 1}, \"39\": {\"O\": 1}}" n_minim_iter=3 energy=-45148.487908561125 stress="-0.1002438640226131 -1.0560794602189034e-13 -3.6109513067339495e-13 -1.0560794602189034e-13 -0.1002438640209001 -4.913954158631801e-13 -3.6109513067339495e-13 -4.913954158631801e-13 -0.10024386402208135" free_energy=-45148.487908561125 pbc="T T T"
In      -4.01799877       2.84115418       5.51587525        0       0.00859120      -0.00607490       0.01052203
In       6.85856279       1.17600999       1.44205717        1      -0.00859120       0.00607490      -0.01052203
In       1.17743475      -0.83257209       4.92102338        2      -0.00859120       0.00607490      -0.01052203
In      -1.42028201      -2.00858208       3.47896621        3      -0.00000000       0.00000000       0.00000000
In      -1.17743475       3.84544522       3.18154028        4       0.00859120      -0.00607490      -0.01052203
In       4.50369329      -2.66943523       5.21844932        5       0.00859120       0.01214979      -0.00000000
In      -1.17743475       1.34772893       5.21844932        6       0.00859120       0.01214979      -0.00000000
In      -1.66312927       6.68659939       1.73948310        7      -0.00859120      -0.01214979      -0.00000000
In       4.01799877       0.17171895       3.77639215        8      -0.00859120       0.00607490       0.01052203
In      -1.42028201       4.01716416      -0.00000000        9       0.00000000      -0.00000000       0.00000000
In       4.01799877       6.19746519       0.29742593       10      -0.00859120       0.00607490       0.01052203
In      -1.17743475      -2.18030102       6.66050649       11       0.00859120      -0.00607490      -0.01052203
In       4.01799877       2.66943523       1.73948310       12      -0.00859120      -0.01214979       0.00000000
In       1.66312927       4.84973626       2.03690904       13       0.00859120      -0.00607490       0.01052203
In       4.26084603       0.00000000      -0.00000000       14      -0.00000000      -0.00000000      -0.00000000
In       1.42028201       2.00858208       3.47896621       15       0.00000000      -0.00000000      -0.00000000
O        0.84403733       4.01385536       3.86044911       16       0.04307156       0.03571690      -0.01495481
O       -1.99652669       3.34490141       5.03057337       17       0.04307156      -0.03080970      -0.02345434
O       -0.35558919       2.18458338       0.08237072       18       0.01898375      -0.01377704      -0.05295577
O       -0.84403733      -0.67557155       1.93309006       19      -0.04307156       0.00490721      -0.03840915
O        3.81911218       4.74029248       1.85071933       20      -0.04340485      -0.03548123       0.01454662
O        1.86201585       2.77595836       1.55160716       21       0.04340485      -0.03033836      -0.02345434
O        1.86201585       5.98149828       0.29911217       22       0.04340485      -0.00514288       0.03800096
O       -2.17817469       5.63280449       3.56133694       23       0.01931703      -0.01330570      -0.05295577
O        3.19615321       1.83258079       6.87556170       24      -0.01898375       0.01377704       0.05295577
O        5.01873871      -1.61564033       3.39659548       25      -0.01931703       0.01330570       0.05295577
O        6.03671723       3.17220891       1.62824688       26      -0.01898375      -0.05274956      -0.01454662
O        3.50295335       2.27638810       3.77807839       27       0.01931703      -0.03920819       0.03800096
O        0.66238933       4.14229990       6.57644952       28       0.01931703       0.05251389       0.01495481
O        2.17817469      -0.12513573       0.38148290       29      -0.01931703      -0.05251389      -0.01495481
O       -3.19615321       0.84495525       5.32968555       30       0.01898375       0.05274956       0.01454662
O        4.83709071       0.67226276       1.92735905       31      -0.04307156       0.03080970       0.02345434
O        0.97854816       1.24120580       5.40632527       32      -0.04340485       0.03033836       0.02345434
O        3.19615321      -0.98762553       5.41205627       33      -0.01898375       0.03897252      -0.03840915
O        1.99652669       0.00330880       3.09748331       34      -0.04307156      -0.03571690       0.01495481
O        0.97854816      -1.96433412       6.65882025       35      -0.04340485       0.00514288      -0.03800096
O       -0.66238933       1.74077606       3.17985404       36      -0.01931703       0.03920819      -0.03800096
O       -0.97854817      -0.72312831       5.10721309       37       0.04340485       0.03548123      -0.01454662
O       -0.35558920       5.00478970       1.54587615       38       0.01898375      -0.03897252       0.03840915
O        3.68460135       4.69273572       5.02484236       39       0.04307156      -0.00490721       0.03840915
40
Lattice="8.521692056006245 6.679042206078679e-10 1.4761326106490968e-14 -2.840564019298455 8.034328319758094 -1.1568520539523856e-09 -2.8405640183539065 -4.017164159211141 6.957932428026481" Properties=species:S:1:pos:R:3:spacegroup_kinds:I:1:forces:R:3 spacegroup="P 1" unit_cell=conventional occupancy="_JSON {\"0\": {\"In\": 1}, \"1\": {\"In\": 1}, \"2\": {\"In\": 1}, \"3\": {\"In\": 1}, \"4\": {\"In\": 1}, \"5\": {\"In\": 1}, \"6\": {\"In\": 1}, \"7\": {\"In\": 1}, \"8\": {\"In\": 1}, \"9\": {\"In\": 1}, \"10\": {\"In\": 1}, \"11\": {\"In\": 1}, \"12\": {\"In\": 1}, \"13\": {\"In\": 1}, \"14\": {\"In\": 1}, \"15\": {\"In\": 1}, \"16\": {\"O\": 1}, \"17\": {\"O\": 1}, \"18\": {\"O\": 1}, \"19\": {\"O\": 1}, \"20\": {\"O\": 1}, \"21\": {\"O\": 1}, \"22\": {\"O\": 1}, \"23\": {\"O\": 1}, \"24\": {\"O\": 1}, \"25\": {\"O\": 1}, \"26\": {\"O\": 1}, \"27\": {\"O\": 1}, \"28\": {\"O\": 1}, \"29\": {\"O\": 1}, \"30\": {\"O\": 1}, \"31\": {\"O\": 1}, \"32\": {\"O\": 1}, \"33\": {\"O\": 1}, \"34\": {\"O\": 1}, \"35\": {\"O\": 1}, \"36\": {\"O\": 1}, \"37\": {\"O\": 1}, \"38\": {\"O\": 1}, \"39\": {\"O\": 1}}" n_minim_iter=4 energy=-45148.490621534635 stress="-0.10190720692406505 5.543886970679306e-13 4.112863178874851e-14 5.543886970679306e-13 -0.10190720692385861 4.424170070891304e-13 4.112863178874851e-14 4.424170070891304e-13 -0.1019072069245491" free_energy=-45148.490621534635 pbc="T T T"
In      -4.01945826       2.84218620       5.51408775        0       0.02213877      -0.01565448       0.02711435
In       6.86002228       1.17497797       1.44384468        1      -0.02213877       0.01565448      -0.02711435
In       1.17889424      -0.83360411       4.92281089        2      -0.02213877       0.01565448      -0.02711435
In      -1.42028201      -2.00858208       3.47896621        3       0.00000000      -0.00000000      -0.00000000
In      -1.17889425       3.84647724       3.18332778        4       0.02213877      -0.01565448      -0.02711435
In       4.50223379      -2.67149927       5.21844932        5       0.02213877       0.03130895      -0.00000000
In      -1.17889424       1.34566489       5.21844932        6       0.02213877       0.03130895      -0.00000000
In      -1.66166978       6.68866343       1.73948310        7      -0.02213877      -0.03130895      -0.00000000
In       4.01945826       0.17068693       3.77460464        8      -0.02213877       0.01565448       0.02711435
In      -1.42028201       4.01716416      -0.00000000        9      -0.00000000      -0.00000000       0.00000000
In       4.01945826       6.19643317       0.29563843       10      -0.02213877       0.01565448       0.02711435
In      -1.17889424      -2.17926900       6.66229400       11       0.02213877      -0.01565448      -0.02711435
In       4.01945826       2.67149927       1.73948310       12      -0.02213877      -0.03130895       0.00000000
In       1.66166977       4.85076828       2.03512153       13       0.02213877      -0.01565448       0.02711435
In       4.26084603       0.00000000      -0.00000000       14      -0.00000000      -0.00000000       0.00000000
In       1.42028201       2.00858208       3.47896621       15       0.00000000       0.00000000      -0.00000000
O        0.84642394       4.01648980       3.85720870       16       0.02504697      -0.00890315      -0.00337330
O       -1.99414008       3.34077791       5.02991209       17       0.02504697       0.00153021       0.00939700
O       -0.35619756       2.18257765       0.07804136       18       0.00139772       0.01825276      -0.01956730
O       -0.84642395      -0.67706062       1.92918837       19      -0.02504697      -0.00737294       0.00602370
O        3.81442897       4.73928198       1.85114700       20      -0.00690629      -0.00392425       0.02559100
O        1.86669906       2.77508274       1.55094588       21       0.00690629      -0.02412458       0.00939700
O        1.86669906       5.98136341       0.30020112       22       0.00690629       0.02020033       0.01619400
O       -2.17648646       5.63404664       3.55700757       23      -0.01674296      -0.00740203      -0.01956730
O        3.19676157       1.83458651       6.87989106       24      -0.00139772      -0.01825276       0.01956730
O        5.01705048      -1.61688247       3.40092485       25       0.01674296       0.00740203       0.01956730
O        6.03732559       3.16745671       1.62781920       26      -0.00139772      -0.00781940      -0.02559100
O        3.50464158       2.27201769       3.77916734       27      -0.01674296      -0.01324476       0.01619400
O        0.66407756       4.14542816       6.57968993       28      -0.01674296       0.02064679       0.00337330
O        2.17648646      -0.12826400       0.37824249       29       0.01674296      -0.02064679      -0.00337330
O       -3.19676158       0.84970745       5.33011322       30       0.00139772       0.00781940       0.02559100
O        4.83470409       0.67638625       1.92802033       31      -0.02504697      -0.00153021      -0.00939700
O        0.97386496       1.24208143       5.40698655       32      -0.00690629       0.02412458      -0.00939700
O        3.19676157      -0.98487906       5.40815458       33      -0.00139772       0.02607215       0.00602370
O        1.99414007       0.00067437       3.10072372       34      -0.02504697       0.00890315       0.00337330
O        0.97386496      -1.96419924       6.65773130       35      -0.00690629      -0.02020033      -0.01619400
O       -0.66407756       1.74514648       3.17876508       36       0.01674296       0.01324476      -0.01619400
O       -0.97386496      -0.72211782       5.10678542       37       0.00690629       0.00392425      -0.02559100
O       -0.35619756       5.00204322       1.54977784       38       0.00139772      -0.02607215      -0.00602370
O        3.68698796       4.69422478       5.02874405       39       0.02504697       0.00737294      -0.00602370
40
Lattice="8.521692056006247 6.679042206078683e-10 1.4761326106490977e-14 -2.8405640192984567 8.034328319758096 -1.1568520539523858e-09 -2.8405640183539083 -4.017164159211142 6.957932428026485" Properties=species:S:1:pos:R:3:spacegroup_kinds:I:1:forces:R:3 spacegroup="P 1" unit_cell=conventional occupancy="_JSON {\"0\": {\"In\": 1}, \"1\": {\"In\": 1}, \"2\": {\"In\": 1}, \"3\": {\"In\": 1}, \"4\": {\"In\": 1}, \"5\": {\"In\": 1}, \"6\": {\"In\": 1}, \"7\": {\"In\": 1}, \"8\": {\"In\": 1}, \"9\": {\"In\": 1}, \"10\": {\"In\": 1}, \"11\": {\"In\": 1}, \"12\": {\"In\": 1}, \"13\": {\"In\": 1}, \"14\": {\"In\": 1}, \"15\": {\"In\": 1}, \"16\": {\"O\": 1}, \"17\": {\"O\": 1}, \"18\": {\"O\": 1}, \"19\": {\"O\": 1}, \"20\": {\"O\": 1}, \"21\": {\"O\": 1}, \"22\": {\"O\": 1}, \"23\": {\"O\": 1}, \"24\": {\"O\": 1}, \"25\": {\"O\": 1}, \"26\": {\"O\": 1}, \"27\": {\"O\": 1}, \"28\": {\"O\": 1}, \"29\": {\"O\": 1}, \"30\": {\"O\": 1}, \"31\": {\"O\": 1}, \"32\": {\"O\": 1}, \"33\": {\"O\": 1}, \"34\": {\"O\": 1}, \"35\": {\"O\": 1}, \"36\": {\"O\": 1}, \"37\": {\"O\": 1}, \"38\": {\"O\": 1}, \"39\": {\"O\": 1}}" n_minim_iter=5 energy=-45148.49322520184 stress="-0.098932134386002 -1.0311949980222033e-12 -1.1869707385679446e-13 -1.0311949980222033e-12 -0.09893213438632562 5.700211900510706e-13 -1.1869707385679446e-13 5.700211900510706e-13 -0.09893213438711404" free_energy=-45148.49322520184 pbc="T T T"
In      -4.01508174       2.83909153       5.51944787        0       0.00077038      -0.00054474       0.00094352
In       6.85564576       1.17807264       1.43848455        1      -0.00077038       0.00054474      -0.00094352
In       1.17451772      -0.83050944       4.91745077        2      -0.00077038       0.00054474      -0.00094352
In      -1.42028201      -2.00858208       3.47896621        3       0.00000000       0.00000000       0.00000000
In      -1.17451772       3.84338257       3.17796766        4       0.00077038      -0.00054474      -0.00094352
In       4.50661032      -2.66530993       5.21844932        5       0.00077038       0.00108948      -0.00000000
In      -1.17451772       1.35185423       5.21844932        6       0.00077038       0.00108948      -0.00000000
In      -1.66604630       6.68247409       1.73948310        7      -0.00077038      -0.00108948       0.00000000
In       4.01508174       0.17378160       3.77996476        8      -0.00077038       0.00054474       0.00094352
In      -1.42028201       4.01716416      -0.00000000        9       0.00000000       0.00000000       0.00000000
In       4.01508174       6.19952784       0.30099855       10      -0.00077038       0.00054474       0.00094352
In      -1.17451772      -2.18236367       6.65693387       11       0.00077038      -0.00054474      -0.00094352
In       4.01508174       2.66530993       1.73948310       12      -0.00077038      -0.00108948      -0.00000000
In       1.66604630       4.84767361       2.04048166       13       0.00077038      -0.00054474       0.00094352
In       4.26084603       0.00000000      -0.00000000       14      -0.00000000      -0.00000000      -0.00000000
In       1.42028201       2.00858208       3.47896621       15       0.00000000       0.00000000      -0.00000000
O        0.85015629       4.01766454       3.86016543       16       0.01431417      -0.02490205      -0.01095674
O       -1.99040773       3.34275114       5.02741636       17       0.01431417       0.00296222       0.02704418
O       -0.35198550       2.18421167       0.07613316       18      -0.01591369       0.02433654      -0.00997723
O       -0.85015629      -0.67391264       1.92964937       19      -0.01431417      -0.02193984       0.01608744
O        3.81504524       4.73503230       1.85351621       20      -0.00197859       0.01617948       0.02606468
O        1.86608279       2.77090610       1.54845015       21       0.00197859      -0.01448293       0.02704418
O        1.86608279       5.98129036       0.30506606       22       0.00197859       0.03066241      -0.00097951
O       -2.17662301       5.62953079       3.55509937       23      -0.02824927       0.00689139      -0.00997723
O        3.19254951       1.83295249       6.88179926       24       0.01591369      -0.02433654       0.00997723
O        5.01718703      -1.61236663       3.40283305       25       0.02824927      -0.00689139       0.00997723
O        6.03311353       3.16662117       1.62545000       26       0.01591369       0.00352773      -0.02606468
O        3.50450502       2.27262306       3.78403227       27      -0.02824927      -0.01208623      -0.00097950
O        0.66394101       4.14933864       6.57673320       28      -0.02824927       0.00519484       0.01095674
O        2.17662301      -0.13217447       0.38119922       29       0.02824927      -0.00519484      -0.01095674
O       -3.19254952       0.85054300       5.33248243       30      -0.01591369      -0.00352773       0.02606468
O        4.83097174       0.67441302       1.93051606       31      -0.01431417      -0.00296222      -0.02704418
O        0.97448122       1.24625806       5.40948227       32      -0.00197859       0.01448293      -0.02704418
O        3.19254951      -0.98240949       5.40861559       33       0.01591369       0.02080880       0.01608744
O        1.99040772      -0.00050038       3.09776699       34      -0.01431417       0.02490205       0.01095674
O        0.97448122      -1.96412619       6.65286636       35      -0.00197859      -0.03066241       0.00097950
O       -0.66394101       1.74454111       3.17390015       36       0.02824927       0.01208623       0.00097950
O       -0.97448122      -0.71786814       5.10441621       37       0.00197859      -0.01617948      -0.02606468
O       -0.35198550       4.99957366       1.54931684       38      -0.01591369      -0.02080880      -0.01608744
O        3.69072031       4.69107680       5.02828305       39       0.01431417       0.02193984      -0.01608744
40