40
Lattice="8.094876731687139 6.344492813929212e-10 2.0875952748750195e-14 -2.6982922444938797 7.631922972915425 -1.0989088703195684e-09 -2.6982922435966485 -3.815961485823261 6.609439175003403" Properties=species:S:1:pos:R:3:spacegroup_kinds:I:1:forces:R:3 spacegroup="P 1" unit_cell=conventional occupancy="_JSON {\"0\": {\"In\": 1}, \"1\": {\"In\": 1}, \"2\": {\"In\": 1}, \"3\": {\"In\": 1}, \"4\": {\"In\": 1}, \"5\": {\"In\": 1}, \"6\": {\"In\": 1}, \"7\": {\"In\": 1}, \"8\": {\"In\": 1}, \"9\": {\"In\": 1}, \"10\": {\"In\": 1}, \"11\": {\"In\": 1}, \"12\": {\"In\": 1}, \"13\": {\"In\": 1}, \"14\": {\"In\": 1}, \"15\": {\"In\": 1}, \"16\": {\"O\": 1}, \"17\": {\"O\": 1}, \"18\": {\"O\": 1}, \"19\": {\"O\": 1}, \"20\": {\"O\": 1}, \"21\": {\"O\": 1}, \"22\": {\"O\": 1}, \"23\": {\"O\": 1}, \"24\": {\"O\": 1}, \"25\": {\"O\": 1}, \"26\": {\"O\": 1}, \"27\": {\"O\": 1}, \"28\": {\"O\": 1}, \"29\": {\"O\": 1}, \"30\": {\"O\": 1}, \"31\": {\"O\": 1}, \"32\": {\"O\": 1}, \"33\": {\"O\": 1}, \"34\": {\"O\": 1}, \"35\": {\"O\": 1}, \"36\": {\"O\": 1}, \"37\": {\"O\": 1}, \"38\": {\"O\": 1}, \"39\": {\"O\": 1}}" n_minim_iter=8 energy=-45145.139567482314 stress="-0.12690694370932923 9.557337747158107e-13 -2.88814443989621e-13 9.557337747158107e-13 -0.12690694370980776 -6.307142160481411e-13 -2.88814443989621e-13 -6.307142160481411e-13 -0.12690694370955047" free_energy=-45145.139567482314 pbc="T T T"
In      -3.63360804       2.56934888       5.46391596        0      -0.00009613       0.00006797      -0.00011773
In       6.33190028       1.24661261       1.14552321        1       0.00009613      -0.00006797       0.00011773
In       0.93531579      -0.66136814       4.45024280        2       0.00009613      -0.00006797       0.00011773
In      -1.34914612      -1.90798074       3.30471959        3       0.00000000       0.00000000       0.00000000
In      -0.93531579       3.52333925       2.79788301        4      -0.00009613       0.00006797       0.00011773
In       4.46126870      -2.27672664       4.95707938        5      -0.00009613      -0.00013594      -0.00000000
In      -0.93531579       1.53923484       4.95707938        6      -0.00009613      -0.00013594      -0.00000000
In      -1.76297646       6.09268813       1.65235979        7       0.00009613       0.00013594      -0.00000000
In       3.63360803       0.29262224       3.81155616        8       0.00009613      -0.00006797      -0.00011773
In      -1.34914612       3.81596149      -0.00000000        9      -0.00000000      -0.00000000      -0.00000000
In       3.63360803       6.01656447       0.50683657       10       0.00009613      -0.00006797      -0.00011773
In      -0.93531579      -2.20060298       6.10260260       11      -0.00009613       0.00006797       0.00011773
In       3.63360803       2.27672665       1.65235979       12       0.00009613       0.00013594      -0.00000000
In       1.76297645       4.47732963       2.15919637       13      -0.00009613       0.00006797      -0.00011773
In       4.04743836       0.00000000      -0.00000000       14      -0.00000000      -0.00000000      -0.00000000
In       1.34914612       1.90798075       3.30471958       15      -0.00000000       0.00000000      -0.00000000
O        0.66465934       3.74822188       4.08076941       16      -0.00006219      -0.00002841      -0.00016634
O       -2.03363291       3.56791978       4.62771868       17      -0.00006219      -0.00012985       0.00010778
O       -0.07616836       2.18378333       0.41567417       18      -0.00016994      -0.00005366      -0.00002419
O       -0.66465934      -0.31578131       2.09904892       19       0.00006219      -0.00015826      -0.00005856
O        4.04174466       4.37173239       1.68337475       20      -0.00010169       0.00014430      -0.00003437
O        1.35483982       2.63600164       1.32299910       21       0.00010169       0.00010192       0.00010778
O        1.35483982       5.55169224       0.36037565       22       0.00010169       0.00004238      -0.00014215
O       -2.08428012       5.06782668       3.72039376       23      -0.00000606       0.00017811      -0.00002419
O        2.77446060       1.63217816       6.19376500       24       0.00016994       0.00005366       0.00002419
O        4.78257236      -1.25186518       2.88904541       25       0.00000606      -0.00017811       0.00002419
O        5.47275285       3.35985680       1.62134483       26       0.00016994      -0.00004778       0.00003437
O        3.31230437       2.59602292       3.66509524       27      -0.00000606      -0.00011000      -0.00014215
O        0.61401212       3.78403487       5.83338935       28      -0.00000606      -0.00006810       0.00016634
O        2.08428012       0.03192662       0.77604982       29       0.00000606       0.00006810      -0.00016634
O       -2.77446061       0.45610469       4.98809434       30      -0.00016994       0.00004778      -0.00003437
O        4.73192515       0.24804171       1.98172049       31       0.00006219       0.00012985      -0.00010778
O        1.34345242       1.17995985       5.28644007       32      -0.00010169      -0.00010192      -0.00010778
O        2.77446060      -1.17607347       5.40376851       33       0.00016994      -0.00000588      -0.00005856
O        2.03363290       0.06773961       2.52866976       34       0.00006219       0.00002841       0.00016634
O        1.34345242      -1.73573075       6.24906352       35      -0.00010169      -0.00004238       0.00014215
O       -0.61401212       1.21993857       2.94434393       36       0.00000606       0.00011000       0.00014215
O       -1.34345242      -0.55577090       4.92606442       37       0.00010169      -0.00014430       0.00003437
O       -0.07616836       4.99203496       1.20567066       38      -0.00016994       0.00000588       0.00005856
O        3.36295158       4.13174280       4.51039025       39      -0.00006219       0.00015826       0.00005856
