40
Lattice="9.533122670877056 7.471780969265074e-10 2.5986746624175002e-14 -3.177707557663469 8.987914248364776 -1.2941716752453393e-09 -3.177707556606825 -4.4939571234352 7.783762066982786" Properties=species:S:1:pos:R:3:spacegroup_kinds:I:1:forces:R:3 spacegroup="P 1" unit_cell=conventional occupancy="_JSON {\"0\": {\"In\": 1}, \"1\": {\"In\": 1}, \"2\": {\"In\": 1}, \"3\": {\"In\": 1}, \"4\": {\"In\": 1}, \"5\": {\"In\": 1}, \"6\": {\"In\": 1}, \"7\": {\"In\": 1}, \"8\": {\"In\": 1}, \"9\": {\"In\": 1}, \"10\": {\"In\": 1}, \"11\": {\"In\": 1}, \"12\": {\"In\": 1}, \"13\": {\"In\": 1}, \"14\": {\"In\": 1}, \"15\": {\"In\": 1}, \"16\": {\"O\": 1}, \"17\": {\"O\": 1}, \"18\": {\"O\": 1}, \"19\": {\"O\": 1}, \"20\": {\"O\": 1}, \"21\": {\"O\": 1}, \"22\": {\"O\": 1}, \"23\": {\"O\": 1}, \"24\": {\"O\": 1}, \"25\": {\"O\": 1}, \"26\": {\"O\": 1}, \"27\": {\"O\": 1}, \"28\": {\"O\": 1}, \"29\": {\"O\": 1}, \"30\": {\"O\": 1}, \"31\": {\"O\": 1}, \"32\": {\"O\": 1}, \"33\": {\"O\": 1}, \"34\": {\"O\": 1}, \"35\": {\"O\": 1}, \"36\": {\"O\": 1}, \"37\": {\"O\": 1}, \"38\": {\"O\": 1}, \"39\": {\"O\": 1}}" n_minim_iter=8 energy=-45146.0079363291 stress="0.09560418883370729 -1.0425478230879343e-14 -1.9756748567241454e-14 -1.0425478230879343e-14 0.09560418883388888 -7.579335418932693e-14 -1.9756748567241454e-14 -7.579335418932693e-14 0.09560418883328646" free_energy=-45146.0079363291 pbc="T T T"
In      -4.49949573       3.18162394       6.16490878        0      -0.00208422       0.00147377      -0.00255264
In       7.67720328       1.31233319       1.61885328        1       0.00208422      -0.00147377       0.00255264
In       1.32178817      -0.93464537       5.51073431        2       0.00208422      -0.00147377       0.00255264
In      -1.58885378      -2.24697856       3.89188103        3       0.00000000       0.00000000      -0.00000000
In      -1.32178817       4.30511322       3.56479379        4      -0.00208422       0.00147377       0.00255264
In       5.03362694      -2.99278003       5.83782155        5      -0.00208422      -0.00294754      -0.00000000
In      -1.32178817       1.50117709       5.83782155        6      -0.00208422      -0.00294754       0.00000000
In      -1.85591939       7.48673716       1.94594051        7       0.00208422       0.00294754      -0.00000000
In       4.49949572       0.18884391       4.21896827        8       0.00208422      -0.00147377      -0.00255264
In      -1.58885378       4.49395713      -0.00000000        9      -0.00000000       0.00000000      -0.00000000
In       4.49949572       6.92977959       0.32708723       10       0.00208422      -0.00147377      -0.00255264
In      -1.32178817      -2.43582246       7.45667483       11      -0.00208422       0.00147377       0.00255264
In       4.49949572       2.99278004       1.94594051       12       0.00208422       0.00294754      -0.00000000
In       1.85591939       5.42860250       2.27302775       13      -0.00208422       0.00147377      -0.00255264
In       4.76656133       0.00000000      -0.00000000       14      -0.00000000      -0.00000000      -0.00000000
In       1.58885378       2.24697856       3.89188103       15       0.00000000      -0.00000000       0.00000000
O        1.05392374       4.50179957       4.18919876       16       0.00039668      -0.00482945       0.00366652
O       -2.12378382       3.62403133       5.68237093       17       0.00039668       0.00559003       0.00234916
O       -0.46147207       2.44859942      -0.06548335       18       0.00084931       0.00526997       0.00290351
O       -1.05392374      -0.86208335       2.08780763       19      -0.00039668       0.00076058       0.00601569
O        4.12469744       5.31823365       2.15329097       20       0.00513810       0.00091577       0.00311217
O        2.23071767       3.04129071       1.79048990       21      -0.00513810      -0.00223734       0.00234916
O        2.23071767       6.77090007       0.36280107       22      -0.00513810       0.00315311       0.00076301
O       -2.46238570       6.35981592       3.82639769       23      -0.00468548      -0.00255739       0.00290351
O        3.63917962       2.04535771       7.84924541       24      -0.00084931      -0.00526997      -0.00290351
O        5.64009325      -1.86585879       3.95736437       25       0.00468548       0.00255739      -0.00290351
O        6.81688718       3.41456804       1.73859006       26      -0.00084931       0.00514950      -0.00311217
O        3.89302942       2.38082821       4.25468210       27      -0.00468548       0.00379321       0.00076301
O        0.71532186       4.74122725       7.48644433       28      -0.00468548      -0.00123582      -0.00366653
O        2.46238569      -0.24727012       0.29731773       29       0.00468548       0.00123582       0.00366653
O       -3.63917963       1.07938909       6.04517200       30       0.00084931      -0.00514950       0.00311217
O        5.30149137       0.86992580       2.10139113       31      -0.00039668      -0.00559003      -0.00234916
O        0.94698989       1.45266642       5.99327216       32       0.00513810       0.00223734      -0.00234916
O        3.63917962      -0.96596861       5.97968866       33      -0.00084931       0.00012047       0.00601569
O        2.12378382      -0.00784244       3.59456330       34      -0.00039668       0.00482945      -0.00366653
O        0.94698989      -2.27694294       7.42096099       35       0.00513810      -0.00315311      -0.00076301
O       -0.71532186       2.11312892       3.52907996       36       0.00468548      -0.00379321      -0.00076301
O       -0.94698989      -0.82427653       5.63047109       37      -0.00513810      -0.00091577      -0.00311217
O       -0.46147207       5.45992574       1.80407340       38       0.00084931      -0.00012047      -0.00601569
O        4.23163129       5.35604048       5.69595443       39       0.00039668      -0.00076058      -0.00601569
