40
Lattice="9.055649087250407 7.097571304515046e-10 -5.781549286738266e-17 -3.018549696419302 8.537747836617458 -1.2293346536116906e-09 -3.0185496954155555 -4.268873917598973 7.39390651843591" Properties=species:S:1:pos:R:3:spacegroup_kinds:I:1:forces:R:3 spacegroup="P 1" unit_cell=conventional occupancy="_JSON {\"0\": {\"In\": 1}, \"1\": {\"In\": 1}, \"2\": {\"In\": 1}, \"3\": {\"In\": 1}, \"4\": {\"In\": 1}, \"5\": {\"In\": 1}, \"6\": {\"In\": 1}, \"7\": {\"In\": 1}, \"8\": {\"In\": 1}, \"9\": {\"In\": 1}, \"10\": {\"In\": 1}, \"11\": {\"In\": 1}, \"12\": {\"In\": 1}, \"13\": {\"In\": 1}, \"14\": {\"In\": 1}, \"15\": {\"In\": 1}, \"16\": {\"O\": 1}, \"17\": {\"O\": 1}, \"18\": {\"O\": 1}, \"19\": {\"O\": 1}, \"20\": {\"O\": 1}, \"21\": {\"O\": 1}, \"22\": {\"O\": 1}, \"23\": {\"O\": 1}, \"24\": {\"O\": 1}, \"25\": {\"O\": 1}, \"26\": {\"O\": 1}, \"27\": {\"O\": 1}, \"28\": {\"O\": 1}, \"29\": {\"O\": 1}, \"30\": {\"O\": 1}, \"31\": {\"O\": 1}, \"32\": {\"O\": 1}, \"33\": {\"O\": 1}, \"34\": {\"O\": 1}, \"35\": {\"O\": 1}, \"36\": {\"O\": 1}, \"37\": {\"O\": 1}, \"38\": {\"O\": 1}, \"39\": {\"O\": 1}}" n_minim_iter=7 energy=-45151.79571689376 stress="0.01658855322841765 3.353562942164268e-13 4.12796465501853e-14 3.353562942164268e-13 0.01658855322875481 -2.1024786965268604e-15 4.12796465501853e-14 -2.1024786965268604e-15 0.016588553228685552" free_energy=-45151.79571689376 pbc="T T T"
In      -4.32201654       3.05612720       5.79749219        0       0.00415293      -0.00293656       0.00508627
In       7.34056623       1.21274672       1.59641432        1      -0.00415293       0.00293656      -0.00508627
In       1.30346684      -0.92169024       5.29336758        2      -0.00415293       0.00293656      -0.00508627
In      -1.50927485      -2.13443696       3.69695326        3       0.00000000      -0.00000000      -0.00000000
In      -1.30346684       4.12334568       3.44489095        4       0.00415293      -0.00293656      -0.00508627
In       4.73363255      -2.91059896       5.54542989        5       0.00415293       0.00587312       0.00000000
In      -1.30346684       1.35827496       5.54542989        6       0.00415293       0.00587312      -0.00000000
In      -1.71508286       7.17947288       1.84847663        7      -0.00415293      -0.00587312      -0.00000000
In       4.32201653       0.14552824       3.94901556        8      -0.00415293       0.00293656       0.00508627
In      -1.50927485       4.26887392      -0.00000000        9       0.00000000       0.00000000       0.00000000
In       4.32201653       6.54883912       0.25206230       10      -0.00415293       0.00293656       0.00508627
In      -1.30346684      -2.27996520       7.14184421       11       0.00415293      -0.00293656      -0.00508627
In       4.32201653       2.91059896       1.84847663       12      -0.00415293      -0.00587312      -0.00000000
In       1.71508286       5.19056416       2.10053893       13       0.00415293      -0.00293656       0.00508627
In       4.52782454       0.00000000      -0.00000000       14       0.00000000      -0.00000000      -0.00000000
In       1.50927485       2.13443696       3.69695326       15       0.00000000       0.00000000       0.00000000
O        0.89721035       4.27040668       4.01527264       16       0.00096646       0.00285622       0.00699833
O       -2.12133935       3.47656173       5.38494279       17       0.00096646       0.00463262      -0.00597272
O       -0.44648388       2.29226008       0.04230691       18       0.00738270       0.00009565       0.00188553
O       -0.89721035      -0.79077943       2.00630891       19      -0.00096646       0.00748884       0.00102560
O        3.98484695       5.08407926       1.96400200       20       0.00404552      -0.00640023      -0.00085993
O        2.05225244       2.97560096       1.68798953       21      -0.00404552      -0.00245539      -0.00597272
O        2.05225244       6.37735222       0.27601246       22      -0.00404552      -0.00394483       0.00511280
O       -2.30999149       6.06017323       3.73926017       23       0.00237072      -0.00699236       0.00188553
O        3.46503357       1.97661385       7.35159960       24      -0.00738270      -0.00009565      -0.00188553
O        5.32854118      -1.79129930       3.65464634       25      -0.00237072       0.00699236      -0.00188553
O        6.48358327       3.31720586       1.73295126       26      -0.00738270       0.00168075       0.00085993
O        3.72710790       2.34264465       3.97296572       27       0.00237072       0.00512910       0.00511280
O        0.70855821       4.40380388       7.07558713       28       0.00237072       0.00186326      -0.00699833
O        2.30999148      -0.13492996       0.31831938       29      -0.00237072      -0.00186326       0.00699833
O       -3.46503358       0.95166806       5.66095526       30       0.00738270      -0.00168075      -0.00085993
O        5.13988904       0.79231219       2.00896372       31      -0.00096646      -0.00463262       0.00597272
O        0.96629725       1.29327296       5.70591698       32       0.00404552       0.00245539       0.00597272
O        3.46503357      -1.02494578       5.70326217       33      -0.00738270      -0.00158509       0.00102560
O        2.12133934      -0.00153275       3.37863387       34      -0.00096646      -0.00285622      -0.00699833
O        0.96629725      -2.10847829       7.11789405       35       0.00404552       0.00394483      -0.00511280
O       -0.70855821       1.92622927       3.42094079       36      -0.00237072      -0.00512910      -0.00511280
O       -0.96629726      -0.81520534       5.42990452       37      -0.00404552       0.00640023       0.00085993
O       -0.44648388       5.29381970       1.69064434       38       0.00738270       0.00158509      -0.00102560
O        3.91576005       5.05965335       5.38759760       39       0.00096646      -0.00748884      -0.00102560
