40
Lattice="8.681012791937116 6.803920824279197e-10 5.0229710536608245e-15 -2.8936709312871858 8.184537350101069 -1.1784755719943767e-09 -2.89367093032497 -4.092268674370141 7.088017264195746" Properties=species:S:1:pos:R:3:spacegroup_kinds:I:1:forces:R:3 spacegroup="P 1" unit_cell=conventional occupancy="_JSON {\"0\": {\"In\": 1}, \"1\": {\"In\": 1}, \"2\": {\"In\": 1}, \"3\": {\"In\": 1}, \"4\": {\"In\": 1}, \"5\": {\"In\": 1}, \"6\": {\"In\": 1}, \"7\": {\"In\": 1}, \"8\": {\"In\": 1}, \"9\": {\"In\": 1}, \"10\": {\"In\": 1}, \"11\": {\"In\": 1}, \"12\": {\"In\": 1}, \"13\": {\"In\": 1}, \"14\": {\"In\": 1}, \"15\": {\"In\": 1}, \"16\": {\"O\": 1}, \"17\": {\"O\": 1}, \"18\": {\"O\": 1}, \"19\": {\"O\": 1}, \"20\": {\"O\": 1}, \"21\": {\"O\": 1}, \"22\": {\"O\": 1}, \"23\": {\"O\": 1}, \"24\": {\"O\": 1}, \"25\": {\"O\": 1}, \"26\": {\"O\": 1}, \"27\": {\"O\": 1}, \"28\": {\"O\": 1}, \"29\": {\"O\": 1}, \"30\": {\"O\": 1}, \"31\": {\"O\": 1}, \"32\": {\"O\": 1}, \"33\": {\"O\": 1}, \"34\": {\"O\": 1}, \"35\": {\"O\": 1}, \"36\": {\"O\": 1}, \"37\": {\"O\": 1}, \"38\": {\"O\": 1}, \"39\": {\"O\": 1}}" n_minim_iter=3 energy=-45151.40720765134 stress="-0.03818896687224608 -6.310489517071179e-13 -1.9323837884177592e-13 -6.310489517071179e-13 -0.03818896687154189 8.019861177536411e-14 -1.9323837884177592e-13 8.019861177536411e-14 -0.03818896687108504" free_energy=-45151.40720765134 pbc="T T T"
In      -4.14010775       2.92749827       5.56145016        0       0.00416059      -0.00294198       0.00509566
In       7.03377868       1.16477041       1.52656710        1      -0.00416059       0.00294198      -0.00509566
In       1.24643682      -0.88136392       5.07057573        2      -0.00416059       0.00294198      -0.00509566
In      -1.44683547      -2.04613434       3.54400863        3       0.00000000       0.00000000       0.00000000
In      -1.24643682       3.95056543       3.29857141        4       0.00416059      -0.00294198      -0.00509566
In       4.54090504      -2.78579502       5.31601295        5       0.00416059       0.00588396       0.00000000
In      -1.24643682       1.30647366       5.31601295        6       0.00416059       0.00588396       0.00000000
In      -1.64723412       6.87806370       1.77200431        7      -0.00416059      -0.00588396       0.00000000
In       4.14010775       0.14170325       3.78944585        8      -0.00416059       0.00294198       0.00509566
In      -1.44683547       4.09226868      -0.00000000        9       0.00000000       0.00000000       0.00000000
In       4.14010775       6.28010626       0.24543721       10      -0.00416059       0.00294198       0.00509566
In      -1.24643682      -2.18783758       6.84258005       11       0.00416059      -0.00294198      -0.00509566
In       4.14010775       2.78579502       1.77200431       12      -0.00416059      -0.00588396       0.00000000
In       1.64723411       4.97363260       2.01744153       13       0.00416059      -0.00294198       0.00509566
In       4.34050639       0.00000000      -0.00000000       14      -0.00000000       0.00000000      -0.00000000
In       1.44683546       2.04613434       3.54400863       15       0.00000000      -0.00000000      -0.00000000
O        0.84417240       4.08981957       3.87778800       16       0.00011608       0.00935075      -0.00017434
O       -2.04949853       3.35948748       5.15124425       17       0.00011608      -0.00482636      -0.00801082
O       -0.41179098       2.20145337       0.06900090       18       0.00430433      -0.00778790      -0.00288128
O       -0.84417240      -0.73523031       1.94101499       19      -0.00011608       0.00452439      -0.00818516
O        3.85052134       4.86733668       1.87201408       20      -0.00458903      -0.00618790      -0.00530388
O        1.93682052       2.85859092       1.60723562       21       0.00458903       0.00149934      -0.00801082
O        1.93682052       6.10101443       0.26477846       22       0.00458903      -0.00768724       0.00270694
O       -2.21281380       5.79282549       3.61300954       23       0.00877728      -0.00146219      -0.00288128
O        3.30546191       1.89081531       7.01901635       24      -0.00430433       0.00778790       0.00288128
O        5.10648473      -1.70055681       3.47500772       25      -0.00877728       0.00146219       0.00288128
O        6.19913284       3.20661756       1.67199454       26      -0.00430433      -0.00638921       0.00530388
O        3.57452806       2.27867964       3.80878709       27       0.00877728      -0.00176416       0.00270694
O        0.68085713       4.20530090       6.75423789       28       0.00877728       0.00322636       0.00017434
O        2.21281380      -0.11303222       0.33377937       29      -0.00877728      -0.00322636      -0.00017434
O       -3.30546191       0.88565112       5.41602272       30       0.00430433       0.00638921      -0.00530388
O        4.94316946       0.73278120       1.93677301       31      -0.00011608       0.00482636       0.00801082
O        0.95685041       1.23367776       5.48078164       32      -0.00458903      -0.00149934       0.00801082
O        3.30546191      -1.00516419       5.48502362       33      -0.00430433      -0.00139869      -0.00818516
O        2.04949853       0.00244911       3.21022926       34      -0.00011608      -0.00935075       0.00017434
O        0.95685041      -2.00874575       6.82323880       35      -0.00458903       0.00768724      -0.00270694
O       -0.68085713       1.81358904       3.27923016       36      -0.00877728       0.00176416      -0.00270694
O       -0.95685041      -0.77506800       5.21600318       37       0.00458903       0.00618790       0.00530388
O       -0.41179098       5.09743287       1.60299364       38       0.00430433       0.00139869       0.00818516
O        3.73784333       4.82749899       5.14700227       39       0.00011608      -0.00452439       0.00818516
