40
Lattice="8.917224485080675 2.8526718210992304e-19 4.546809599653401e-19 -2.9724081610346156 8.407239862971156 -3.2893498054054934e-19 -2.9724081610346165 -4.203619930087767 7.280883297849251" Properties=species:S:1:pos:R:3:spacegroup_kinds:I:1:forces:R:3 spacegroup="P 1" unit_cell=conventional occupancy="_JSON {\"0\": {\"In\": 1}, \"1\": {\"In\": 1}, \"2\": {\"In\": 1}, \"3\": {\"In\": 1}, \"4\": {\"In\": 1}, \"5\": {\"In\": 1}, \"6\": {\"In\": 1}, \"7\": {\"In\": 1}, \"8\": {\"In\": 1}, \"9\": {\"In\": 1}, \"10\": {\"In\": 1}, \"11\": {\"In\": 1}, \"12\": {\"In\": 1}, \"13\": {\"In\": 1}, \"14\": {\"In\": 1}, \"15\": {\"In\": 1}, \"16\": {\"O\": 1}, \"17\": {\"O\": 1}, \"18\": {\"O\": 1}, \"19\": {\"O\": 1}, \"20\": {\"O\": 1}, \"21\": {\"O\": 1}, \"22\": {\"O\": 1}, \"23\": {\"O\": 1}, \"24\": {\"O\": 1}, \"25\": {\"O\": 1}, \"26\": {\"O\": 1}, \"27\": {\"O\": 1}, \"28\": {\"O\": 1}, \"29\": {\"O\": 1}, \"30\": {\"O\": 1}, \"31\": {\"O\": 1}, \"32\": {\"O\": 1}, \"33\": {\"O\": 1}, \"34\": {\"O\": 1}, \"35\": {\"O\": 1}, \"36\": {\"O\": 1}, \"37\": {\"O\": 1}, \"38\": {\"O\": 1}, \"39\": {\"O\": 1}}" energy=-45151.91867920167 stress="0.0017775532617737145 0.0 0.0 0.0 0.0017775532617737145 0.0 0.0 0.0 0.0017775532617737145" bulk_struct_test=bulk_In2O3_Ia3 vacancies=inequivalent pbc="T T T"
In      -4.25834312       3.01109811       5.70594797        0       0.00517332      -0.00363683       0.00629098
In       7.23075128       1.19252182       1.57493533        1      -0.00517332       0.00363683      -0.00629098
In       1.28593047      -0.90928411       5.21538105        2      -0.00514812       0.00361240      -0.00630435
In      -1.48620408      -2.10180997       3.64044165        3       0.00000000       0.00000000       0.00000000
In      -1.28592360       4.06200126       3.39515958        4       0.00509953      -0.00360649      -0.00631026
In       4.65888479      -2.86948945       5.46066558        5       0.00514863       0.00730091      -0.00002391
In      -1.28592684       1.33413453       5.46066298        6       0.00510673       0.00729191       0.00000437
In      -1.68647663       7.07310939       1.82021771        7      -0.00514863      -0.00730091       0.00002391
In       4.25833175       0.14161869       3.88572371        8      -0.00509953       0.00360649       0.00631026
In      -1.48620408       4.20361993      -0.00000000        9       0.00000000       0.00000000       0.00000000
In       4.25834000       6.44704327       0.24528211       10      -0.00516072       0.00364351       0.00631026
In      -1.28593184      -2.24342334       7.03560119       11       0.00516072      -0.00364351      -0.00631026
In       4.25833499       2.86948542       1.82022032       12      -0.00510673      -0.00729191      -0.00000437
In       1.68647769       5.11290404       2.06550224       13       0.00514812      -0.00361240       0.00630435
In       4.45861224       0.00000000       0.00000000       14       0.00000000       0.00000000       0.00000000
In       1.48620408       2.10180997       3.64044165       15       0.00000000       0.00000000       0.00000000
O        0.87469961       4.20375892       3.96157491       16       0.00201883      -0.00045663       0.00211936
O       -2.09770957       3.43075038       5.29997417       17       0.00201009       0.00206202      -0.00066540
O       -0.43696532       2.25642892       0.05307885       18       0.00217901       0.00194170      -0.00045406
O       -0.87469651      -0.77272368       1.98066105       19      -0.00201086       0.00159588       0.00146013
O        3.93377945       5.00698791       1.92758311       20       0.00128015      -0.00185814       0.00191316
O        2.01103445       2.93596465       1.65953190       21      -0.00128221      -0.00258756      -0.00066283
O        2.01103637       6.27464128       0.26805381       22      -0.00126961       0.00071785       0.00256930
O       -2.27303429       5.96526323       3.69351958       23      -0.00109966      -0.00269992      -0.00045766
O        3.40937348       1.94719102       7.22780445       24      -0.00217901      -0.00194170       0.00045406
O        5.24544246      -1.76164329       3.58736371       25       0.00109966       0.00269992       0.00045766
O        6.38178231       3.27598939       1.71285542       26      -0.00217515       0.00058056      -0.00189902
O        3.67177654       2.31786082       3.90849601       27      -0.00110172       0.00096931       0.00257239
O        0.69937132       4.32773515       6.95975129       28      -0.00110043       0.00174321      -0.00211396
O        2.27303684      -0.12411522       0.32113201       29       0.00110043      -0.00174321       0.00211396
O       -3.40937414       0.92763055       5.56802789       30       0.00217515      -0.00058056       0.00189902
O        5.07011774       0.77286955       1.98090913       31      -0.00201009      -0.00206202       0.00066540
O        0.96137372       1.26765528       5.62135140       32       0.00128221       0.00258756       0.00066283
O        3.40937341      -1.01956106       5.62110609       33      -0.00217978       0.00136063       0.00145447
O        2.09770855      -0.00013899       3.31930839       34      -0.00201883       0.00045663      -0.00211936
O        0.96137179      -2.07102135       7.01282948       35       0.00126961      -0.00071785      -0.00256930
O       -0.69936837       1.88575912       3.37238729       36       0.00110172      -0.00096931      -0.00257239
O       -0.96137128      -0.80336798       5.35330020       37      -0.00128015       0.00185814      -0.00191316
O       -0.43696526       5.22318100       1.65977720       38       0.00217978      -0.00136063      -0.00145447
O        3.84710467       4.97634361       5.30022225       39       0.00201086      -0.00159588      -0.00146013
