40
Lattice="8.194121764281492 6.422347098578021e-10 2.5757174171303565e-14 -2.7313739220326694 7.725492086974889 -1.112378633649767e-09 -2.7313739211244363 -3.8627460428452203 6.6904724047974895" Properties=species:S:1:pos:R:3:spacegroup_kinds:I:1:forces:R:3 spacegroup="P 1" unit_cell=conventional occupancy="_JSON {\"0\": {\"In\": 1}, \"1\": {\"In\": 1}, \"2\": {\"In\": 1}, \"3\": {\"In\": 1}, \"4\": {\"In\": 1}, \"5\": {\"In\": 1}, \"6\": {\"In\": 1}, \"7\": {\"In\": 1}, \"8\": {\"In\": 1}, \"9\": {\"In\": 1}, \"10\": {\"In\": 1}, \"11\": {\"In\": 1}, \"12\": {\"In\": 1}, \"13\": {\"In\": 1}, \"14\": {\"In\": 1}, \"15\": {\"In\": 1}, \"16\": {\"O\": 1}, \"17\": {\"O\": 1}, \"18\": {\"O\": 1}, \"19\": {\"O\": 1}, \"20\": {\"O\": 1}, \"21\": {\"O\": 1}, \"22\": {\"O\": 1}, \"23\": {\"O\": 1}, \"24\": {\"O\": 1}, \"25\": {\"O\": 1}, \"26\": {\"O\": 1}, \"27\": {\"O\": 1}, \"28\": {\"O\": 1}, \"29\": {\"O\": 1}, \"30\": {\"O\": 1}, \"31\": {\"O\": 1}, \"32\": {\"O\": 1}, \"33\": {\"O\": 1}, \"34\": {\"O\": 1}, \"35\": {\"O\": 1}, \"36\": {\"O\": 1}, \"37\": {\"O\": 1}, \"38\": {\"O\": 1}, \"39\": {\"O\": 1}}" n_minim_iter=8 energy=-45146.12503011029 stress="-0.09253812767389012 2.2277955691515177e-13 9.862249712198596e-13 2.2277955691515177e-13 -0.09253812767369145 6.844437160323042e-13 9.862249712198596e-13 6.844437160323042e-13 -0.09253812767230465" free_energy=-45146.12503011029 pbc="T T T"
In      -3.66765195       2.59342156       5.54377069        0       0.00000950      -0.00000672       0.00001163
In       6.39902586       1.26932448       1.14670170        1      -0.00000950       0.00000672      -0.00001163
In       0.93627802      -0.66204854       4.49193791        2      -0.00000950       0.00000672      -0.00001163
In      -1.36568696      -1.93137302       3.34523620        3       0.00000000      -0.00000000       0.00000000
In      -0.93627803       3.55910807       2.81931981        4       0.00000950      -0.00000672      -0.00001163
In       4.52646982      -2.28978359       5.01785430        5       0.00000950       0.00001343      -0.00000000
In      -0.93627802       1.57296246       5.01785430        6       0.00000950       0.00001343       0.00000000
In      -1.79509590       6.15252963       1.67261810        7      -0.00000950      -0.00001343       0.00000000
In       3.66765194       0.30363797       3.87115259        8      -0.00000950       0.00000672       0.00001163
In      -1.36568696       3.86274604      -0.00000000        9       0.00000000       0.00000000       0.00000000
In       3.66765194       6.09775704       0.52591639       10      -0.00000950       0.00000672       0.00001163
In      -0.93627802      -2.23501099       6.16455601       11       0.00000950      -0.00000672      -0.00001163
In       3.66765194       2.28978359       1.67261810       12      -0.00000950      -0.00001343       0.00000000
In       1.79509590       4.52479458       2.19853449       13       0.00000950      -0.00000672       0.00001163
In       4.09706088       0.00000000      -0.00000000       14       0.00000000       0.00000000       0.00000000
In       1.36568696       1.93137302       3.34523620       15       0.00000000      -0.00000000       0.00000000
O        0.67289568       3.79277152       4.13545840       16      -0.00112995       0.00210357      -0.00001874
O       -2.05847824       3.61639930       4.68334292       17      -0.00112995      -0.00106801      -0.00181238
O       -0.07393199       2.21311320       0.42343335       18       0.00059968      -0.00229105       0.00030599
O       -0.67289569      -0.31632127       2.12832892       19       0.00112995       0.00103556      -0.00183111
O        4.09573337       4.42353668       1.70489557       20      -0.00063028      -0.00085890      -0.00213710
O        1.36701447       2.66665848       1.33810672       21       0.00063028       0.00142133      -0.00181238
O        1.36701447       5.61962424       0.36678885       22       0.00063028      -0.00228023      -0.00032472
O       -2.11118713       5.12611842       3.76866955       23       0.00235992       0.00019829       0.00030599
O        2.80530591       1.64963285       6.26703905       24      -0.00059968       0.00229105      -0.00030599
O        4.84256105      -1.26337237       2.92180285       25      -0.00235992      -0.00019829      -0.00030599
O        5.53667983       3.40463366       1.64034063       26      -0.00059968      -0.00088053       0.00213710
O        3.35156071       2.63207739       3.71202505       27       0.00235992       0.00016584      -0.00032472
O        0.62018679       3.83004233       5.90025020       28       0.00235992      -0.00036414       0.00001874
O        2.11118713       0.03270372       0.79022220       29      -0.00235992       0.00036414      -0.00001874
O       -2.80530592       0.45811239       5.05013177       30       0.00059968       0.00088053      -0.00213710
O        4.78985216       0.24634674       2.00712948       31       0.00112995       0.00106801       0.00181238
O        1.36435945       1.19608757       5.35236568       32      -0.00063028      -0.00142133       0.00181238
O        2.80530591      -1.19152046       5.47356512       33      -0.00059968      -0.00141052      -0.00183111
O        2.05847823       0.06997453       2.55501399       34       0.00112995      -0.00210357       0.00001874
O        1.36435945      -1.75687819       6.32368355       35      -0.00063028       0.00228023       0.00032472
O       -0.62018679       1.23066866       2.97844734       36      -0.00235992      -0.00016584       0.00032472
O       -1.36435945      -0.56079063       4.98557683       37       0.00063028       0.00085890       0.00213710
O       -0.07393199       5.05426651       1.21690728       38       0.00059968       0.00141052       0.00183111
O        3.40426961       4.17906732       4.56214348       39      -0.00112995      -0.00103556       0.00183111
