40
Lattice="8.28129981552856 6.49065912128368e-10 2.087219286295366e-14 -2.7604332724548026 7.807684341915852 -1.1242131670031441e-09 -2.760433271536899 -3.903842170308868 6.76165298557858" Properties=species:S:1:pos:R:3:spacegroup_kinds:I:1:forces:R:3 spacegroup="P 1" unit_cell=conventional occupancy="_JSON {\"0\": {\"In\": 1}, \"1\": {\"In\": 1}, \"2\": {\"In\": 1}, \"3\": {\"In\": 1}, \"4\": {\"In\": 1}, \"5\": {\"In\": 1}, \"6\": {\"In\": 1}, \"7\": {\"In\": 1}, \"8\": {\"In\": 1}, \"9\": {\"In\": 1}, \"10\": {\"In\": 1}, \"11\": {\"In\": 1}, \"12\": {\"In\": 1}, \"13\": {\"In\": 1}, \"14\": {\"In\": 1}, \"15\": {\"In\": 1}, \"16\": {\"O\": 1}, \"17\": {\"O\": 1}, \"18\": {\"O\": 1}, \"19\": {\"O\": 1}, \"20\": {\"O\": 1}, \"21\": {\"O\": 1}, \"22\": {\"O\": 1}, \"23\": {\"O\": 1}, \"24\": {\"O\": 1}, \"25\": {\"O\": 1}, \"26\": {\"O\": 1}, \"27\": {\"O\": 1}, \"28\": {\"O\": 1}, \"29\": {\"O\": 1}, \"30\": {\"O\": 1}, \"31\": {\"O\": 1}, \"32\": {\"O\": 1}, \"33\": {\"O\": 1}, \"34\": {\"O\": 1}, \"35\": {\"O\": 1}, \"36\": {\"O\": 1}, \"37\": {\"O\": 1}, \"38\": {\"O\": 1}, \"39\": {\"O\": 1}}" n_minim_iter=13 energy=-45147.08698147058 stress="-0.04936372865624953 7.881614934512259e-13 5.518033476195147e-14 7.881614934512259e-13 -0.04936372865504531 -2.6833772150909793e-13 5.518033476195147e-14 -2.6833772150909793e-13 -0.04936372865528322" free_energy=-45147.08698147058 pbc="T T T"
In      -3.75046364       2.65197827       5.54911837        0      -0.00123919       0.00087624      -0.00151770
In       6.51089691       1.25186390       1.21253461        1       0.00123919      -0.00087624       0.00151770
In       0.99003036      -0.70005718       4.59336110        2       0.00123919      -0.00087624       0.00151770
In      -1.38021664      -1.95192108       3.38082649        3       0.00000000      -0.00000000       0.00000000
In      -0.99003037       3.62793881       2.90294786        4      -0.00123919       0.00087624       0.00151770
In       4.53083618      -2.37607491       5.07123974        5      -0.00123919      -0.00175249       0.00000000
In      -0.99003037       1.52776726       5.07123974        6      -0.00123919      -0.00175249       0.00000000
In      -1.77040291       6.27991708       1.69041324        7       0.00123919       0.00175249       0.00000000
In       3.75046364       0.27590336       3.85870512        8       0.00123919      -0.00087624      -0.00151770
In      -1.38021664       3.90384217      -0.00000000        9      -0.00000000       0.00000000      -0.00000000
In       3.75046363       6.13166662       0.47787863       10       0.00123919      -0.00087624      -0.00151770
In      -0.99003037      -2.22782444       6.28377435       11      -0.00123919       0.00087624       0.00151770
In       3.75046364       2.37607491       1.69041324       12       0.00123919       0.00175249       0.00000000
In       1.77040291       4.60389936       2.16829188       13      -0.00123919       0.00087624      -0.00151770
In       4.14064991       0.00000000      -0.00000000       14      -0.00000000       0.00000000      -0.00000000
In       1.38021663       1.95192109       3.38082649       15      -0.00000000       0.00000000      -0.00000000
O        0.68204175       3.81963465       4.16183534       16       0.00341708       0.00068096       0.00526600
O       -2.07839152       3.64635889       4.75366117       17       0.00341708       0.00422001      -0.00322273
O       -0.09480193       2.24374924       0.42139937       18       0.00575970       0.00256352      -0.00035361
O       -0.68204175      -0.34169080       2.15384352       19      -0.00341708       0.00490097       0.00204327
O        4.13061730       4.48882801       1.73244415       20       0.00283963      -0.00510513       0.00239688
O        1.39024924       2.69599444       1.37283467       21      -0.00283963      -0.00462832      -0.00322273
O        1.39024924       5.69667574       0.35960948       22      -0.00283963      -0.00047680       0.00561961
O       -2.14702771       5.19722696       3.80222586       23      -0.00049701      -0.00628481      -0.00035361
O        2.85523520       1.66009294       6.34025361       24      -0.00575971      -0.00256352       0.00035361
O        4.90746098      -1.29338479       2.95942712       25       0.00049701       0.00628481       0.00035361
O        5.61566847       3.43873826       1.64838233       26      -0.00575971       0.00097552      -0.00239688
O        3.37383883       2.64613179       3.74043597       27      -0.00049701       0.00283617       0.00561961
O        0.61340556       3.86816776       5.98064414       28      -0.00049701       0.00344864      -0.00526600
O        2.14702771       0.03567441       0.78100884       29       0.00049701      -0.00344864       0.00526600
O       -2.85523520       0.46510391       5.11327065       30       0.00575971      -0.00097552       0.00239688
O        4.83882479       0.25748328       2.00799181       31      -0.00341708      -0.00422001       0.00322273
O        1.37018403       1.20784773       5.38881831       32       0.00283963       0.00462832       0.00322273
O        2.85523520      -1.19498902       5.53467001       33      -0.00575971       0.00158800       0.00204327
O        2.07839152       0.08420753       2.59981764       34      -0.00341708      -0.00068096      -0.00526600
O        1.37018403      -1.79283357       6.40204350       35       0.00283963       0.00047680      -0.00561961
O       -0.61340556       1.25771038       3.02121701       36       0.00049701      -0.00283617      -0.00561961
O       -1.37018404      -0.58498584       5.02920883       37      -0.00283963       0.00510513      -0.00239688
O       -0.09480193       5.09883120       1.22698297       38       0.00575971      -0.00158800      -0.00204327
O        3.44247502       4.24553298       4.60780946       39       0.00341708      -0.00490097      -0.00204327
