40
Lattice="8.691920725111979 6.812470587647113e-10 1.154631945610163e-14 -2.8973069090129453 8.194821448123012 -1.17996412640764e-09 -2.8973069080495253 -4.0974107233802535 7.0969235543387486" Properties=species:S:1:pos:R:3:spacegroup_kinds:I:1:forces:R:3 spacegroup="P 1" unit_cell=conventional occupancy="_JSON {\"0\": {\"In\": 1}, \"1\": {\"In\": 1}, \"2\": {\"In\": 1}, \"3\": {\"In\": 1}, \"4\": {\"In\": 1}, \"5\": {\"In\": 1}, \"6\": {\"In\": 1}, \"7\": {\"In\": 1}, \"8\": {\"In\": 1}, \"9\": {\"In\": 1}, \"10\": {\"In\": 1}, \"11\": {\"In\": 1}, \"12\": {\"In\": 1}, \"13\": {\"In\": 1}, \"14\": {\"In\": 1}, \"15\": {\"In\": 1}, \"16\": {\"O\": 1}, \"17\": {\"O\": 1}, \"18\": {\"O\": 1}, \"19\": {\"O\": 1}, \"20\": {\"O\": 1}, \"21\": {\"O\": 1}, \"22\": {\"O\": 1}, \"23\": {\"O\": 1}, \"24\": {\"O\": 1}, \"25\": {\"O\": 1}, \"26\": {\"O\": 1}, \"27\": {\"O\": 1}, \"28\": {\"O\": 1}, \"29\": {\"O\": 1}, \"30\": {\"O\": 1}, \"31\": {\"O\": 1}, \"32\": {\"O\": 1}, \"33\": {\"O\": 1}, \"34\": {\"O\": 1}, \"35\": {\"O\": 1}, \"36\": {\"O\": 1}, \"37\": {\"O\": 1}, \"38\": {\"O\": 1}, \"39\": {\"O\": 1}}" n_minim_iter=3 energy=-45150.960794107916 stress="-0.049014534771175136 -3.860248583938686e-13 3.5378450363504915e-13 -3.860248583938686e-13 -0.04901453477159086 -1.4743706376990942e-13 3.5378450363504915e-13 -1.4743706376990942e-13 -0.04901453477230213" free_energy=-45150.960794107916 pbc="T T T"
In      -4.14475723       2.93078594       5.56911517        0       0.00361061      -0.00255309       0.00442208
In       7.04206413       1.16662479       1.52780838        1      -0.00361061       0.00255309      -0.00442208
In       1.24745032      -0.88208058       5.07627015        2      -0.00361061       0.00255309      -0.00442208
In      -1.44865346      -2.04870536       3.54846177        3       0.00000000      -0.00000000      -0.00000000
In      -1.24745032       3.95513862       3.30203926        4       0.00361061      -0.00255309      -0.00442208
In       4.54716350      -2.78851384       5.32269266        5       0.00361061       0.00510618      -0.00000000
In      -1.24745032       1.30889689       5.32269266        6       0.00361061       0.00510618       0.00000000
In      -1.64985659       6.88592456       1.77423089        7      -0.00361061      -0.00510618      -0.00000000
In       4.14475722       0.14227210       3.79488428        8      -0.00361061       0.00255309       0.00442208
In      -1.44865346       4.09741073      -0.00000000        9      -0.00000000       0.00000000      -0.00000000
In       4.14475722       6.28838819       0.24642251       10      -0.00361061       0.00255309       0.00442208
In      -1.24745032      -2.19097746       6.85050104       11       0.00361061      -0.00255309      -0.00442208
In       4.14475722       2.78851384       1.77423089       12      -0.00361061      -0.00510618       0.00000000
In       1.64985659       4.97949130       2.02065340       13       0.00361061      -0.00255309       0.00442208
In       4.34596036       0.00000000      -0.00000000       14      -0.00000000      -0.00000000       0.00000000
In       1.44865345       2.04870536       3.54846177       15       0.00000000       0.00000000       0.00000000
O        0.84095172       4.09396563       3.88808894       16       0.00285604       0.00384909      -0.00050493
O       -2.05635519       3.36890635       5.15586262       17       0.00285604      -0.00236183      -0.00308095
O       -0.40977135       2.20459574       0.07558419       18       0.00235423      -0.00200699      -0.00369555
O       -0.84095172      -0.73194947       1.94702801       19      -0.00285604       0.00148727      -0.00358588
O        3.86168709       4.87299875       1.87144382       20      -0.00317877      -0.00362090       0.00010967
O        1.93292672       2.86448685       1.60740084       21       0.00317877      -0.00190543      -0.00308095
O        1.93292672       6.10592263       0.26404297       22       0.00317877      -0.00171547       0.00319063
O       -2.21510325       5.79758697       3.62404596       23       0.00267695      -0.00155059      -0.00369555
O        3.30707825       1.89281498       7.02133936       24      -0.00235423       0.00200699       0.00369555
O        5.11241015      -1.70017624       3.47287758       25      -0.00267695       0.00155059       0.00369555
O        6.20438516       3.21646107       1.67701795       26      -0.00235423      -0.00420393      -0.00010967
O        3.57951057       2.28842775       3.81250475       27       0.00267695      -0.00242515       0.00319063
O        0.68220366       4.20621746       6.75729638       28       0.00267695       0.00397574       0.00050493
O        2.21510325      -0.10880673       0.33962717       29      -0.00267695      -0.00397574      -0.00050493
O       -3.30707825       0.88094966       5.41990560       30       0.00235423       0.00420393       0.00010967
O        4.95366210       0.72850438       1.94106093       31      -0.00285604       0.00236183       0.00308095
O        0.96438018       1.23292388       5.48952270       32      -0.00317877       0.00190543       0.00308095
O        3.30707825      -1.01186532       5.49548979       33      -0.00235423       0.00219695      -0.00358588
O        2.05635519       0.00344510       3.20883461       34      -0.00285604      -0.00384909       0.00050493
O        0.96438018      -2.00851190       6.83288058       35      -0.00317877       0.00171547      -0.00319063
O       -0.68220366       1.80898297       3.28441880       36      -0.00267695       0.00242515      -0.00319063
O       -0.96438019      -0.77558803       5.22547973       37       0.00317877       0.00362090      -0.00010967
O       -0.40977135       5.10927605       1.60143376       38       0.00235423      -0.00219695       0.00358588
O        3.73825862       4.82936020       5.14989554       39       0.00285604      -0.00148727       0.00358588
