40
Lattice="9.346186849404537 7.325207107555798e-10 1.5987211554602254e-14 -3.115395617158808 8.811669465689805 -1.2687828565560721e-09 -3.115395616122879 -4.4058347321123685 7.631129607884866" Properties=species:S:1:pos:R:3:spacegroup_kinds:I:1:forces:R:3 spacegroup="P 1" unit_cell=conventional occupancy="_JSON {\"0\": {\"In\": 1}, \"1\": {\"In\": 1}, \"2\": {\"In\": 1}, \"3\": {\"In\": 1}, \"4\": {\"In\": 1}, \"5\": {\"In\": 1}, \"6\": {\"In\": 1}, \"7\": {\"In\": 1}, \"8\": {\"In\": 1}, \"9\": {\"In\": 1}, \"10\": {\"In\": 1}, \"11\": {\"In\": 1}, \"12\": {\"In\": 1}, \"13\": {\"In\": 1}, \"14\": {\"In\": 1}, \"15\": {\"In\": 1}, \"16\": {\"O\": 1}, \"17\": {\"O\": 1}, \"18\": {\"O\": 1}, \"19\": {\"O\": 1}, \"20\": {\"O\": 1}, \"21\": {\"O\": 1}, \"22\": {\"O\": 1}, \"23\": {\"O\": 1}, \"24\": {\"O\": 1}, \"25\": {\"O\": 1}, \"26\": {\"O\": 1}, \"27\": {\"O\": 1}, \"28\": {\"O\": 1}, \"29\": {\"O\": 1}, \"30\": {\"O\": 1}, \"31\": {\"O\": 1}, \"32\": {\"O\": 1}, \"33\": {\"O\": 1}, \"34\": {\"O\": 1}, \"35\": {\"O\": 1}, \"36\": {\"O\": 1}, \"37\": {\"O\": 1}, \"38\": {\"O\": 1}, \"39\": {\"O\": 1}}" n_minim_iter=1 energy=-45148.91363328044 stress="0.0709629282238703 -2.154480207012955e-13 -2.817430520646907e-13 -2.154480207012955e-13 0.07096292822471952 -8.996850020335116e-14 -2.817430520646907e-13 -8.996850020335116e-14 0.07096292822502276" free_energy=-45148.91363328044 pbc="T T T"
In      -4.43083176       3.13307118       6.02005594        0       0.04416962      -0.03123264       0.05409652
In       7.54622737       1.27276355       1.61107366        1      -0.04416962       0.03123264      -0.05409652
In       1.31543614      -0.93015381       5.42663847        2      -0.04416962       0.03123264      -0.05409652
In      -1.55769781      -2.20291736       3.81556480        3       0.00000000       0.00000000       0.00000000
In      -1.31543614       4.23452987       3.51885606        4       0.04416962      -0.03123264      -0.05409652
In       4.91535509      -2.96176631       5.72334720        5       0.04416962       0.06246528      -0.00000000
In      -1.31543614       1.44406842       5.72334720        6       0.04416962       0.06246528      -0.00000000
In      -1.79995948       7.36760105       1.90778240        7      -0.04416962      -0.06246528      -0.00000000
In       4.43083175       0.17130487       4.11227354        8      -0.04416962       0.03123264       0.05409652
In      -1.55769781       4.40583473      -0.00000000        9       0.00000000      -0.00000000       0.00000000
In       4.43083175       6.78005697       0.29670873       10      -0.04416962       0.03123264       0.05409652
In      -1.31543614      -2.37422223       7.33442087       11       0.04416962      -0.03123264      -0.05409652
In       4.43083175       2.96176632       1.90778240       12      -0.04416962      -0.06246528       0.00000000
In       1.79995947       5.33598855       2.20449113       13       0.04416962      -0.03123264       0.05409652
In       4.67309342       0.00000000      -0.00000000       14       0.00000000       0.00000000       0.00000000
In       1.55769781       2.20291737       3.81556480       15       0.00000000       0.00000000       0.00000000
O        0.97335082       4.41039610       4.12317553       16       0.01918808      -0.00113900      -0.06407139
O       -2.14204479       3.56849407       5.56559158       17       0.01918808      -0.05491795       0.03302210
O       -0.46070158       2.37960488      -0.00632155       18      -0.04645498      -0.00850130      -0.04737390
O       -0.97335083      -0.83277929       2.05763750       19      -0.01918808      -0.05605696      -0.03104929
O        4.07842340       5.23496429       2.06395904       20      -0.05817317       0.02870562       0.01632461
O        2.15236783       3.03295854       1.75002677       21       0.05817317       0.00021529       0.03302210
O        2.15236783       6.60784048       0.31393227       22       0.05817317       0.02849034      -0.01669749
O       -2.39708019       6.24990408       3.80924326       23      -0.00746989       0.04663194      -0.04737390
O        3.57609719       2.02622986       7.63745115       24       0.04645498       0.00850130       0.04737390
O        5.51247580      -1.84406935       3.82188634       25       0.00746989      -0.04663194       0.04737390
O        6.69149281       3.38724519       1.75160575       26       0.04645498      -0.04527765      -0.01632461
O        3.83371104       2.37686676       4.12949707       27      -0.00746989      -0.06434297      -0.01669749
O        0.71831543       4.59073336       7.32351888       28      -0.00746989       0.01771103       0.06407139
O        2.39708018      -0.18489862       0.30761072       29       0.00746989      -0.01771103      -0.06407139
O       -3.57609719       1.01858955       5.87952385       30      -0.04645498       0.04527765       0.01632461
O        5.25744041       0.83734067       2.06553802       31      -0.01918808       0.05491795      -0.03302210
O        0.96302779       1.37287619       5.88110283       32      -0.05817317      -0.00021529      -0.03302210
O        3.57609719      -1.00764031       5.87320231       33       0.04645498       0.03677635      -0.03104929
O        2.14204479      -0.00456137       3.50795407       34      -0.01918808       0.00113900       0.06407139
O        0.96302779      -2.20200574       7.31719734       35      -0.05817317      -0.02849034       0.01669749
O       -0.71831543       2.02896798       3.50163253       36       0.00746989       0.06434297       0.01669749
O       -0.96302779      -0.82912955       5.56717056       37       0.05817317      -0.02870562      -0.01632461
O       -0.46070158       5.41347504       1.75792730       38      -0.04645498      -0.03677635       0.03104929
O        4.08874644       5.23861403       5.57349210       39       0.01918808       0.05605696       0.03104929
40
Lattice="9.346186849404537 7.325207107555797e-10 1.5987211554602264e-14 -3.1153956171588075 8.811669465689803 -1.2687828565560724e-09 -3.1153956161228784 -4.405834732112368 7.631129607884866" Properties=species:S:1:pos:R:3:spacegroup_kinds:I:1:forces:R:3 spacegroup="P 1" unit_cell=conventional occupancy="_JSON {\"0\": {\"In\": 1}, \"1\": {\"In\": 1}, \"2\": {\"In\": 1}, \"3\": {\"In\": 1}, \"4\": {\"In\": 1}, \"5\": {\"In\": 1}, \"6\": {\"In\": 1}, \"7\": {\"In\": 1}, \"8\": {\"In\": 1}, \"9\": {\"In\": 1}, \"10\": {\"In\": 1}, \"11\": {\"In\": 1}, \"12\": {\"In\": 1}, \"13\": {\"In\": 1}, \"14\": {\"In\": 1}, \"15\": {\"In\": 1}, \"16\": {\"O\": 1}, \"17\": {\"O\": 1}, \"18\": {\"O\": 1}, \"19\": {\"O\": 1}, \"20\": {\"O\": 1}, \"21\": {\"O\": 1}, \"22\": {\"O\": 1}, \"23\": {\"O\": 1}, \"24\": {\"O\": 1}, \"25\": {\"O\": 1}, \"26\": {\"O\": 1}, \"27\": {\"O\": 1}, \"28\": {\"O\": 1}, \"29\": {\"O\": 1}, \"30\": {\"O\": 1}, \"31\": {\"O\": 1}, \"32\": {\"O\": 1}, \"33\": {\"O\": 1}, \"34\": {\"O\": 1}, \"35\": {\"O\": 1}, \"36\": {\"O\": 1}, \"37\": {\"O\": 1}, \"38\": {\"O\": 1}, \"39\": {\"O\": 1}}" n_minim_iter=2 energy=-45148.92248847931 stress="0.07007737829176817 -1.441245605689214e-13 3.592732816007396e-13 -1.441245605689214e-13 0.07007737829114521 -5.525274169838198e-14 3.592732816007396e-13 -5.525274169838198e-14 0.07007737829203842" free_energy=-45148.92248847931 pbc="T T T"
In      -4.42767679       3.13084028       6.02391998        0       0.02027705      -0.01433804       0.02483422
In       7.54307240       1.27499446       1.60720963        1      -0.02027705       0.01433804      -0.02483422
In       1.31228117      -0.92792291       5.42277443        2      -0.02027705       0.01433804      -0.02483422
In      -1.55769781      -2.20291736       3.81556480        3      -0.00000000       0.00000000      -0.00000000
In      -1.31228117       4.23229896       3.51499203        4       0.02027705      -0.01433804      -0.02483422
In       4.91851006      -2.95730450       5.72334720        5       0.02027705       0.02867608       0.00000000
In      -1.31228117       1.44853023       5.72334720        6       0.02027705       0.02867608      -0.00000000
In      -1.80311445       7.36313924       1.90778240        7      -0.02027705      -0.02867608      -0.00000000
In       4.42767678       0.17353577       4.11613757        8      -0.02027705       0.01433804       0.02483422
In      -1.55769781       4.40583473      -0.00000000        9      -0.00000000      -0.00000000      -0.00000000
In       4.42767678       6.78228787       0.30057277       10      -0.02027705       0.01433804       0.02483422
In      -1.31228117      -2.37645314       7.33055683       11       0.02027705      -0.01433804      -0.02483422
In       4.42767678       2.95730451       1.90778240       12      -0.02027705      -0.02867608       0.00000000
In       1.80311445       5.33375765       2.20835517       13       0.02027705      -0.01433804       0.02483422
In       4.67309342       0.00000000      -0.00000000       14      -0.00000000      -0.00000000      -0.00000000
In       1.55769781       2.20291737       3.81556480       15       0.00000000       0.00000000       0.00000000
O        0.97472140       4.41031475       4.11859900       16       0.01909480       0.00049622      -0.01874048
O       -2.14067422       3.56457136       5.56795030       17       0.01909480      -0.01647784       0.00894051
O       -0.46401979       2.37899764      -0.00970540       18      -0.00870269       0.00317795      -0.02510432
O       -0.97472140      -0.83678336       2.05541970       19      -0.01909480      -0.01598163      -0.00979998
O        4.07426818       5.23701469       2.06512509       20      -0.02190039       0.00148764       0.01530435
O        2.15652305       3.03297392       1.75238550       21       0.02190039      -0.01251013       0.00894051
O        2.15652305       6.60987550       0.31273959       22       0.02190039       0.01399777       0.00636384
O       -2.39761375       6.25323494       3.80585941       23      -0.00589710       0.00714566      -0.02510432
O        3.57941540       2.02683709       7.64083500       24       0.00870269      -0.00317795       0.02510432
O        5.51300937      -1.84740020       3.82527019       25       0.00589710      -0.00714566       0.02510432
O        6.69481102       3.38401107       1.75043971       26       0.00870269      -0.02015201      -0.01530435
O        3.83317748       2.37227083       4.12830439       27      -0.00589710      -0.02531381       0.00636384
O        0.71778186       4.59199843       7.32809541       28      -0.00589710       0.01816815       0.01874048
O        2.39761375      -0.18616370       0.30303420       29       0.00589710      -0.01816815      -0.01874048
O       -3.57941541       1.02182366       5.88068989       30      -0.00870269       0.02015201       0.01530435
O        5.25606983       0.84126338       2.06317930       31      -0.01909480       0.01647784      -0.00894051
O        0.95887256       1.37286082       5.87874411       32      -0.02190039       0.01251013      -0.00894051
O        3.57941540      -1.00501343       5.87098450       33       0.00870269       0.02332996      -0.00979998
O        2.14067421      -0.00448001       3.51253060       34      -0.01909480      -0.00049622       0.01874048
O        0.95887256      -2.20404076       7.31839001       35      -0.02190039      -0.01399777      -0.00636384
O       -0.71778187       2.03356390       3.50282521       36       0.00589710       0.02531381      -0.00636384
O       -0.95887256      -0.83117995       5.56600451       37       0.02190039      -0.00148764      -0.01530435
O       -0.46401979       5.41084816       1.76014510       38      -0.00870269      -0.02332996       0.00979998
O        4.09011702       5.24261810       5.57570991       39       0.01909480       0.01598163       0.00979998
40
Lattice="9.346186849404539 7.325207107555799e-10 1.5987211554602267e-14 -3.1153956171588084 8.811669465689805 -1.2687828565560726e-09 -3.1153956161228793 -4.4058347321123685 7.631129607884867" Properties=species:S:1:pos:R:3:spacegroup_kinds:I:1:forces:R:3 spacegroup="P 1" unit_cell=conventional occupancy="_JSON {\"0\": {\"In\": 1}, \"1\": {\"In\": 1}, \"2\": {\"In\": 1}, \"3\": {\"In\": 1}, \"4\": {\"In\": 1}, \"5\": {\"In\": 1}, \"6\": {\"In\": 1}, \"7\": {\"In\": 1}, \"8\": {\"In\": 1}, \"9\": {\"In\": 1}, \"10\": {\"In\": 1}, \"11\": {\"In\": 1}, \"12\": {\"In\": 1}, \"13\": {\"In\": 1}, \"14\": {\"In\": 1}, \"15\": {\"In\": 1}, \"16\": {\"O\": 1}, \"17\": {\"O\": 1}, \"18\": {\"O\": 1}, \"19\": {\"O\": 1}, \"20\": {\"O\": 1}, \"21\": {\"O\": 1}, \"22\": {\"O\": 1}, \"23\": {\"O\": 1}, \"24\": {\"O\": 1}, \"25\": {\"O\": 1}, \"26\": {\"O\": 1}, \"27\": {\"O\": 1}, \"28\": {\"O\": 1}, \"29\": {\"O\": 1}, \"30\": {\"O\": 1}, \"31\": {\"O\": 1}, \"32\": {\"O\": 1}, \"33\": {\"O\": 1}, \"34\": {\"O\": 1}, \"35\": {\"O\": 1}, \"36\": {\"O\": 1}, \"37\": {\"O\": 1}, \"38\": {\"O\": 1}, \"39\": {\"O\": 1}}" n_minim_iter=3 energy=-45148.92424041532 stress="0.06945722101645323 -5.815612956485991e-14 -5.512996567932515e-13 -5.815612956485991e-14 0.06945722101604122 2.608212234647812e-13 -5.512996567932515e-13 2.608212234647812e-13 0.06945722101653083" free_energy=-45148.92424041532 pbc="T T T"
In      -4.42552032       3.12931543       6.02656109        0       0.00393126      -0.00277982       0.00481479
In       7.54091593       1.27651931       1.60456851        1      -0.00393126       0.00277982      -0.00481479
In       1.31012470      -0.92639806       5.42013331        2      -0.00393126       0.00277982      -0.00481479
In      -1.55769781      -2.20291736       3.81556480        3       0.00000000       0.00000000      -0.00000000
In      -1.31012470       4.23077411       3.51235091        4       0.00393126      -0.00277982      -0.00481479
In       4.92066653      -2.95425480       5.72334720        5       0.00393126       0.00555963      -0.00000000
In      -1.31012470       1.45157993       5.72334720        6       0.00393126       0.00555963      -0.00000000
In      -1.80527092       7.36008954       1.90778240        7      -0.00393126      -0.00555964      -0.00000000
In       4.42552032       0.17506062       4.11877869        8      -0.00393126       0.00277982       0.00481479
In      -1.55769781       4.40583473      -0.00000000        9      -0.00000000       0.00000000       0.00000000
In       4.42552032       6.78381272       0.30321389       10      -0.00393126       0.00277982       0.00481479
In      -1.31012470      -2.37797799       7.32791571       11       0.00393126      -0.00277982      -0.00481479
In       4.42552032       2.95425481       1.90778240       12      -0.00393126      -0.00555964      -0.00000000
In       1.80527091       5.33223280       2.21099629       13       0.00393126      -0.00277982       0.00481479
In       4.67309342       0.00000000      -0.00000000       14      -0.00000000      -0.00000000       0.00000000
In       1.55769781       2.20291737       3.81556480       15       0.00000000      -0.00000000       0.00000000
O        0.97590036       4.41028313       4.11572215       16       0.01791767       0.00079806       0.01053614
O       -2.13949525       3.56209574       5.56941611       17       0.01791767       0.00872553      -0.00595921
O       -0.46599064       2.37874929      -0.01209731       18       0.01495149       0.01082294      -0.00959203
O       -0.97590037      -0.83929060       2.05400865       19      -0.01791767       0.00952359       0.00457693
O        4.07154115       5.23814095       2.06610596       20       0.00225395      -0.01506156       0.01416896
O        2.15925008       3.03268759       1.75385130       21      -0.00225395      -0.01980145      -0.00595921
O        2.15925008       6.61128809       0.31225466       22      -0.00225395       0.00473990       0.02012817
O       -2.39803655       6.25517586       3.80346749       23      -0.00522014      -0.01770405      -0.00959203
O        3.58138626       2.02708545       7.64322692       24      -0.01495149      -0.01082294       0.00959203
O        5.51343216      -1.84934113       3.82766211       25       0.00522014       0.01770405       0.00959203
O        6.69678187       3.38181543       1.74945884       26      -0.01495149      -0.00289547      -0.01416896
O        3.83275468       2.36922891       4.12781946       27      -0.00522014       0.00054508       0.02012817
O        0.71735907       4.59309943       7.33097226       28      -0.00522014       0.01715896      -0.01053614
O        2.39803655      -0.18726470       0.30015734       29       0.00522014      -0.01715896       0.01053614
O       -3.58138626       1.02401931       5.88167077       30       0.01495149       0.00289547       0.01416896
O        5.25489087       0.84373899       2.06171350       31      -0.01791767      -0.00872553       0.00595921
O        0.95614554       1.37314715       5.87727830       32       0.00225395       0.01980145       0.00595921
O        3.58138626      -1.00306614       5.86957345       33      -0.01495149       0.01371841       0.00457693
O        2.13949525      -0.00444839       3.51540745       34      -0.01791767      -0.00079806      -0.01053614
O        0.95614554      -2.20545336       7.31887495       35       0.00225395      -0.00473990      -0.02012817
O       -0.71735907       2.03660583       3.50331014       36       0.00522014      -0.00054508      -0.02012817
O       -0.95614554      -0.83230621       5.56502364       37      -0.00225395       0.01506156      -0.01416896
O       -0.46599064       5.40890088       1.76155615       38       0.01495149      -0.01371841      -0.00457693
O        4.09129598       5.24512533       5.57712095       39       0.01791767      -0.00952359      -0.00457693
40
Lattice="9.346186849404562 7.325207107555816e-10 1.5987211554602308e-14 -3.115395617158817 8.811669465689823 -1.2687828565560752e-09 -3.1153956161228877 -4.405834732112377 7.631129607884885" Properties=species:S:1:pos:R:3:spacegroup_kinds:I:1:forces:R:3 spacegroup="P 1" unit_cell=conventional occupancy="_JSON {\"0\": {\"In\": 1}, \"1\": {\"In\": 1}, \"2\": {\"In\": 1}, \"3\": {\"In\": 1}, \"4\": {\"In\": 1}, \"5\": {\"In\": 1}, \"6\": {\"In\": 1}, \"7\": {\"In\": 1}, \"8\": {\"In\": 1}, \"9\": {\"In\": 1}, \"10\": {\"In\": 1}, \"11\": {\"In\": 1}, \"12\": {\"In\": 1}, \"13\": {\"In\": 1}, \"14\": {\"In\": 1}, \"15\": {\"In\": 1}, \"16\": {\"O\": 1}, \"17\": {\"O\": 1}, \"18\": {\"O\": 1}, \"19\": {\"O\": 1}, \"20\": {\"O\": 1}, \"21\": {\"O\": 1}, \"22\": {\"O\": 1}, \"23\": {\"O\": 1}, \"24\": {\"O\": 1}, \"25\": {\"O\": 1}, \"26\": {\"O\": 1}, \"27\": {\"O\": 1}, \"28\": {\"O\": 1}, \"29\": {\"O\": 1}, \"30\": {\"O\": 1}, \"31\": {\"O\": 1}, \"32\": {\"O\": 1}, \"33\": {\"O\": 1}, \"34\": {\"O\": 1}, \"35\": {\"O\": 1}, \"36\": {\"O\": 1}, \"37\": {\"O\": 1}, \"38\": {\"O\": 1}, \"39\": {\"O\": 1}}" n_minim_iter=4 energy=-45148.925610531434 stress="0.06895297573594422 1.0479233541934675e-13 7.790896264001314e-13 1.0479233541934675e-13 0.06895297573533475 1.3432482604641115e-13 7.790896264001314e-13 1.3432482604641115e-13 0.06895297573599883" free_energy=-45148.925610531434 pbc="T T T"
In      -4.42289982       3.12746246       6.02977053        0      -0.01083952       0.00766470      -0.01327564
In       7.53829544       1.27837228       1.60135907        1       0.01083952      -0.00766470       0.01327564
In       1.30750420      -0.92454509       5.41692387        2       0.01083952      -0.00766470       0.01327564
In      -1.55769781      -2.20291736       3.81556480        3       0.00000000      -0.00000000      -0.00000000
In      -1.30750421       4.22892114       3.50914147        4      -0.01083952       0.00766470       0.01327564
In       4.92328703      -2.95054886       5.72334720        5      -0.01083952      -0.01532939      -0.00000000
In      -1.30750421       1.45528587       5.72334720        6      -0.01083952      -0.01532939       0.00000000
In      -1.80789141       7.35638360       1.90778240        7       0.01083952       0.01532939       0.00000000
In       4.42289982       0.17691360       4.12198813        8       0.01083952      -0.00766469      -0.01327564
In      -1.55769781       4.40583473      -0.00000000        9      -0.00000000       0.00000000      -0.00000000
In       4.42289982       6.78566569       0.30642333       10       0.01083952      -0.00766470      -0.01327564
In      -1.30750421      -2.37983096       7.32470627       11      -0.01083952       0.00766469       0.01327564
In       4.42289982       2.95054887       1.90778240       12       0.01083952       0.01532939       0.00000000
In       1.80789141       5.33037983       2.21420573       13      -0.01083952       0.00766470      -0.01327564
In       4.67309342       0.00000000      -0.00000000       14      -0.00000000      -0.00000000       0.00000000
In       1.55769781       2.20291737       3.81556480       15       0.00000000      -0.00000000      -0.00000000
O        0.98120811       4.41045354       4.11610316       16       0.00698661       0.00103071       0.01123900
O       -2.13418751       3.56234050       5.56907802       17       0.00698661       0.00921791      -0.00651212
O       -0.46382997       2.38121936      -0.01628976       18       0.01199136       0.00567901      -0.00038258
O       -0.98120811      -0.83887543       2.05405157       19      -0.00698661       0.01024862       0.00472688
O        4.07000266       5.23530527       2.07034133       20       0.00636186      -0.01046950       0.00510946
O        2.16078857       3.02760181       1.75351322       21      -0.00636186      -0.00965967      -0.00651212
O        2.16078857       6.61353819       0.31682811       22      -0.00636186      -0.00080983       0.01162158
O       -2.39964513       6.25231541       3.79927504       23      -0.00135711      -0.01319856      -0.00038258
O        3.57922558       2.02461538       7.64741936       24      -0.01199136      -0.00567901       0.00038258
O        5.51504075      -1.84648067       3.83185456       25       0.00135711       0.01319856       0.00038258
O        6.69462120       3.37941970       1.74522347       26      -0.01199136       0.00250818      -0.00510946
O        3.83114610       2.36702837       4.13239291       27      -0.00135711       0.00626796       0.01162158
O        0.71575048       4.59816043       7.33059125       28      -0.00135711       0.00693061      -0.01123900
O        2.39964513      -0.19232569       0.30053835       29       0.00135711      -0.00693061       0.01123900
O       -3.57922559       1.02641503       5.88590614       30       0.01199136      -0.00250818       0.00510946
O        5.24958312       0.84349424       2.06205158       31      -0.00698661      -0.00921791       0.00651212
O        0.95460705       1.37823293       5.87761638       32       0.00636186       0.00965967       0.00651212
O        3.57922559      -0.99820034       5.86961638       33      -0.01199136       0.00317083       0.00472688
O        2.13418750      -0.00461880       3.51502645       34      -0.00698661      -0.00103071      -0.01123900
O        0.95460705      -2.20770345       7.31430149       35       0.00636186       0.00080983      -0.01162158
O       -0.71575049       2.03880636       3.49873669       36       0.00135711      -0.00626796      -0.01162158
O       -0.95460705      -0.82947053       5.56078827       37      -0.00636186       0.01046950      -0.00510946
O       -0.46382997       5.40403508       1.76151322       38       0.01199136      -0.00317083      -0.00472688
O        4.09660373       5.24471017       5.57707803       39       0.00698661      -0.01024862      -0.00472688
40
Lattice="9.346186849404571 7.325207107555825e-10 1.5987211554602346e-14 -3.11539561715882 8.811669465689832 -1.2687828565560763e-09 -3.115395616122891 -4.405834732112382 7.631129607884893" Properties=species:S:1:pos:R:3:spacegroup_kinds:I:1:forces:R:3 spacegroup="P 1" unit_cell=conventional occupancy="_JSON {\"0\": {\"In\": 1}, \"1\": {\"In\": 1}, \"2\": {\"In\": 1}, \"3\": {\"In\": 1}, \"4\": {\"In\": 1}, \"5\": {\"In\": 1}, \"6\": {\"In\": 1}, \"7\": {\"In\": 1}, \"8\": {\"In\": 1}, \"9\": {\"In\": 1}, \"10\": {\"In\": 1}, \"11\": {\"In\": 1}, \"12\": {\"In\": 1}, \"13\": {\"In\": 1}, \"14\": {\"In\": 1}, \"15\": {\"In\": 1}, \"16\": {\"O\": 1}, \"17\": {\"O\": 1}, \"18\": {\"O\": 1}, \"19\": {\"O\": 1}, \"20\": {\"O\": 1}, \"21\": {\"O\": 1}, \"22\": {\"O\": 1}, \"23\": {\"O\": 1}, \"24\": {\"O\": 1}, \"25\": {\"O\": 1}, \"26\": {\"O\": 1}, \"27\": {\"O\": 1}, \"28\": {\"O\": 1}, \"29\": {\"O\": 1}, \"30\": {\"O\": 1}, \"31\": {\"O\": 1}, \"32\": {\"O\": 1}, \"33\": {\"O\": 1}, \"34\": {\"O\": 1}, \"35\": {\"O\": 1}, \"36\": {\"O\": 1}, \"37\": {\"O\": 1}, \"38\": {\"O\": 1}, \"39\": {\"O\": 1}}" n_minim_iter=5 energy=-45148.925999333675 stress="0.06911653131328456 -7.07885144179748e-13 -6.774710069093637e-13 -7.07885144179748e-13 0.06911653131335586 9.167932661565957e-14 -6.774710069093637e-13 9.167932661565957e-14 0.06911653131341956" free_energy=-45148.925999333675 pbc="T T T"
In      -4.42328618       3.12773565       6.02929735        0      -0.00667732       0.00472158      -0.00817801
In       7.53868179       1.27809908       1.60183226        1       0.00667732      -0.00472158       0.00817801
In       1.30789056      -0.92481828       5.41739706        2       0.00667732      -0.00472158       0.00817801
In      -1.55769781      -2.20291736       3.81556480        3       0.00000000       0.00000000      -0.00000000
In      -1.30789056       4.22919434       3.50961466        4      -0.00667732       0.00472158       0.00817801
In       4.92290067      -2.95109525       5.72334720        5      -0.00667732      -0.00944315       0.00000000
In      -1.30789056       1.45473948       5.72334720        6      -0.00667732      -0.00944315       0.00000000
In      -1.80750506       7.35692999       1.90778240        7       0.00667732       0.00944315       0.00000000
In       4.42328618       0.17664040       4.12151494        8       0.00667732      -0.00472158      -0.00817801
In      -1.55769781       4.40583473      -0.00000000        9      -0.00000000      -0.00000000       0.00000000
In       4.42328618       6.78539250       0.30595014       10       0.00667732      -0.00472158      -0.00817801
In      -1.30789056      -2.37955776       7.32517946       11      -0.00667732       0.00472158       0.00817801
In       4.42328618       2.95109526       1.90778240       12       0.00667732       0.00944315      -0.00000000
In       1.80750505       5.33065302       2.21373254       13      -0.00667732       0.00472158      -0.00817801
In       4.67309342       0.00000000      -0.00000000       14      -0.00000000       0.00000000      -0.00000000
In       1.55769781       2.20291737       3.81556480       15       0.00000000       0.00000000      -0.00000000
O        0.98197659       4.41051665       4.11737207       16       0.00504102       0.00113223      -0.00109964
O       -2.13341903       3.56340785       5.56838891       17       0.00504102      -0.00151843      -0.00043072
O       -0.46250800       2.38189533      -0.01630098       18       0.00131622       0.00111540      -0.00499264
O       -0.98197659      -0.83774496       2.05463137       19      -0.00504102      -0.00038621      -0.00153036
O        4.07075281       5.23416832       2.07093235       20      -0.00311193      -0.00249630       0.00346228
O        2.16003842       3.02652150       1.75282411       21       0.00311193      -0.00424658      -0.00043072
O        2.16003842       6.61348156       0.31810824       22       0.00311193       0.00175028       0.00389300
O       -2.39984179       6.25084371       3.79926382       23      -0.00061287      -0.00161275      -0.00499264
O        3.57790361       2.02393941       7.64743059       24      -0.00131622      -0.00111540       0.00499264
O        5.51523740      -1.84500898       3.83186578       25       0.00061287       0.00161275       0.00499264
O        6.69329923       3.37974797       1.74463245       26      -0.00131622      -0.00376606      -0.00346228
O        3.83094945       2.36775450       4.13367305       27      -0.00061287      -0.00351738       0.00389300
O        0.71555383       4.59890599       7.32932234       28      -0.00061287       0.00513013       0.00109964
O        2.39984178      -0.19307126       0.30180726       29       0.00061287      -0.00513013      -0.00109964
O       -3.57790362       1.02608677       5.88649716       30       0.00131622       0.00376606       0.00346228
O        5.24881464       0.84242689       2.06274069       31      -0.00504102       0.00151843       0.00043072
O        0.95535720       1.37931324       5.87830550       32      -0.00311193       0.00424658       0.00043072
O        3.57790361      -0.99785263       5.87019617       33      -0.00131622       0.00488145      -0.00153036
O        2.13341902      -0.00468192       3.51375754       34      -0.00504102      -0.00113223       0.00109964
O        0.95535720      -2.20764682       7.31302136       35      -0.00311193      -0.00175028      -0.00389300
O       -0.71555383       2.03808024       3.49745655       36       0.00061287       0.00351738      -0.00389300
O       -0.95535720      -0.82833359       5.56019725       37       0.00311193       0.00249630      -0.00346228
O       -0.46250800       5.40368737       1.76093343       38       0.00131622      -0.00488145       0.00153036
O        4.09737220       5.24357970       5.57649823       39       0.00504102       0.00038621       0.00153036
40