40
Lattice="9.277964075242524 7.271743207581966e-10 1.6431300764452405e-14 -3.0926546924330953 8.74734841736983 -1.2595231524414926e-09 -3.0926546914047277 -4.373674207957728 7.575425946035547" Properties=species:S:1:pos:R:3:spacegroup_kinds:I:1:forces:R:3 spacegroup="P 1" unit_cell=conventional occupancy="_JSON {\"0\": {\"In\": 1}, \"1\": {\"In\": 1}, \"2\": {\"In\": 1}, \"3\": {\"In\": 1}, \"4\": {\"In\": 1}, \"5\": {\"In\": 1}, \"6\": {\"In\": 1}, \"7\": {\"In\": 1}, \"8\": {\"In\": 1}, \"9\": {\"In\": 1}, \"10\": {\"In\": 1}, \"11\": {\"In\": 1}, \"12\": {\"In\": 1}, \"13\": {\"In\": 1}, \"14\": {\"In\": 1}, \"15\": {\"In\": 1}, \"16\": {\"O\": 1}, \"17\": {\"O\": 1}, \"18\": {\"O\": 1}, \"19\": {\"O\": 1}, \"20\": {\"O\": 1}, \"21\": {\"O\": 1}, \"22\": {\"O\": 1}, \"23\": {\"O\": 1}, \"24\": {\"O\": 1}, \"25\": {\"O\": 1}, \"26\": {\"O\": 1}, \"27\": {\"O\": 1}, \"28\": {\"O\": 1}, \"29\": {\"O\": 1}, \"30\": {\"O\": 1}, \"31\": {\"O\": 1}, \"32\": {\"O\": 1}, \"33\": {\"O\": 1}, \"34\": {\"O\": 1}, \"35\": {\"O\": 1}, \"36\": {\"O\": 1}, \"37\": {\"O\": 1}, \"38\": {\"O\": 1}, \"39\": {\"O\": 1}}" n_minim_iter=6 energy=-45149.79871475023 stress="0.05846899231528899 4.1978233849195777e-13 2.682003213057649e-13 4.1978233849195777e-13 0.058468992314336936 -3.204711779807362e-13 2.682003213057649e-13 -3.204711779807362e-13 0.05846899231403352" free_energy=-45149.79871475023 pbc="T T T"
In      -4.39848877       3.11020124       5.97611236        0      -0.00241584       0.00170826      -0.00295879
In       7.49114346       1.26347298       1.59931358        1       0.00241584      -0.00170826       0.00295879
In       1.30583407      -0.92336413       5.38702656        2       0.00241584      -0.00170826       0.00295879
In      -1.54632735      -2.18683710       3.78771297        3      -0.00000000      -0.00000000      -0.00000000
In      -1.30583408       4.20361979       3.49317007        4      -0.00241584       0.00170826       0.00295879
In       4.87947531      -2.94014681       5.68156946        5      -0.00241584      -0.00341651      -0.00000000
In      -1.30583408       1.43352740       5.68156946        6      -0.00241584      -0.00341651       0.00000000
In      -1.78682062       7.31382102       1.89385648        7       0.00241584       0.00341651       0.00000000
In       4.39848876       0.17005443       4.08225587        8       0.00241584      -0.00170826      -0.00295879
In      -1.54632735       4.37367421      -0.00000000        9      -0.00000000      -0.00000000      -0.00000000
In       4.39848876       6.73056574       0.29454290       10       0.00241584      -0.00170826      -0.00295879
In      -1.30583408      -2.35689153       7.28088304       11      -0.00241584       0.00170826       0.00295879
In       4.39848876       2.94014681       1.89385648       12       0.00241584       0.00341651       0.00000000
In       1.78682062       5.29703834       2.18839938       13      -0.00241584       0.00170826      -0.00295879
In       4.63898204       0.00000000      -0.00000000       14       0.00000000       0.00000000       0.00000000
In       1.54632734       2.18683711       3.78771297       15      -0.00000000       0.00000000       0.00000000
O        0.96624582       4.37820228       4.09307828       16       0.00040951      -0.00166993      -0.00045575
O       -2.12640887       3.54244574       5.52496537       17       0.00040951       0.00044027       0.00167408
O       -0.45733867       2.36223488      -0.00627540       18      -0.00102283       0.00145309      -0.00008017
O       -0.96624582      -0.82670040       2.04261771       19      -0.00040951      -0.00122966       0.00121833
O        4.04865283       5.19675151       2.04889311       20       0.00027859       0.00118337       0.00129850
O        2.13665655       3.01081937       1.73725240       21      -0.00027859      -0.00053285       0.00167408
O        2.13665655       6.55960635       0.31164071       22      -0.00027859       0.00171622      -0.00037558
O       -2.37958263       6.20428272       3.78143757       23      -0.00171093       0.00047997      -0.00008017
O        3.54999336       2.01143933       7.58170134       24       0.00102283      -0.00145309       0.00008017
O        5.47223732      -1.83060851       3.79398837       25       0.00171093      -0.00047997       0.00008017
O        6.64264805       3.36251989       1.73881985       26       0.00102283       0.00065711      -0.00129850
O        3.80572675       2.35951675       4.09935368       27      -0.00171093      -0.00030942      -0.00037558
O        0.71307206       4.55722316       7.27006063       28      -0.00171093      -0.00017055       0.00045575
O        2.37958263      -0.18354895       0.30536531       29       0.00171093       0.00017055      -0.00045575
O       -3.54999336       1.01115432       5.83660609       30      -0.00102283      -0.00065711       0.00129850
O        5.21906356       0.83122847       2.05046057       31      -0.00040951      -0.00044027      -0.00167408
O        0.95599814       1.36285484       5.83817354       32       0.00027859       0.00053285      -0.00167408
O        3.54999336      -1.00028501       5.83033069       33       0.00102283       0.00079598       0.00121833
O        2.12640887      -0.00452807       3.48234766       34      -0.00040951       0.00166993       0.00045575
O        0.95599814      -2.18593213       7.26378523       35       0.00027859      -0.00171622       0.00037558
O       -0.71307207       2.01415746       3.47607226       36       0.00171093       0.00030942       0.00037558
O       -0.95599814      -0.82307729       5.52653283       37      -0.00027859      -0.00118337      -0.00129850
O       -0.45733867       5.37395922       1.74509525       38      -0.00102283      -0.00079598      -0.00121833
O        4.05890051       5.20037461       5.53280823       39       0.00040951       0.00122966      -0.00121833
