40
Lattice="9.479721845689141 7.429856729856965e-10 1.4654943925052066e-14 -3.159907282596876 8.93756746755107 -1.286912798548201e-09 -3.1599072815461455 -4.468783733032533 7.740160475794507" Properties=species:S:1:pos:R:3:spacegroup_kinds:I:1:forces:R:3 spacegroup="P 1" unit_cell=conventional occupancy="_JSON {\"0\": {\"In\": 1}, \"1\": {\"In\": 1}, \"2\": {\"In\": 1}, \"3\": {\"In\": 1}, \"4\": {\"In\": 1}, \"5\": {\"In\": 1}, \"6\": {\"In\": 1}, \"7\": {\"In\": 1}, \"8\": {\"In\": 1}, \"9\": {\"In\": 1}, \"10\": {\"In\": 1}, \"11\": {\"In\": 1}, \"12\": {\"In\": 1}, \"13\": {\"In\": 1}, \"14\": {\"In\": 1}, \"15\": {\"In\": 1}, \"16\": {\"O\": 1}, \"17\": {\"O\": 1}, \"18\": {\"O\": 1}, \"19\": {\"O\": 1}, \"20\": {\"O\": 1}, \"21\": {\"O\": 1}, \"22\": {\"O\": 1}, \"23\": {\"O\": 1}, \"24\": {\"O\": 1}, \"25\": {\"O\": 1}, \"26\": {\"O\": 1}, \"27\": {\"O\": 1}, \"28\": {\"O\": 1}, \"29\": {\"O\": 1}, \"30\": {\"O\": 1}, \"31\": {\"O\": 1}, \"32\": {\"O\": 1}, \"33\": {\"O\": 1}, \"34\": {\"O\": 1}, \"35\": {\"O\": 1}, \"36\": {\"O\": 1}, \"37\": {\"O\": 1}, \"38\": {\"O\": 1}, \"39\": {\"O\": 1}}" n_minim_iter=1 energy=-45146.75737390352 stress="0.09019789078183074 3.653159227266603e-14 3.4153337975970235e-13 3.653159227266603e-14 0.09019789078214728 4.044598710718308e-13 3.4153337975970235e-13 4.044598710718308e-13 0.09019789078142579" free_energy=-45146.75737390352 pbc="T T T"
In      -4.47900384       3.16713399       6.12460374        0       0.04722901      -0.03339596       0.05784349
In       7.63891111       1.30164975       1.61555673        1      -0.04722901       0.03339596      -0.05784349
In       1.31909655      -0.93274211       5.48563697        2      -0.04722901       0.03339596      -0.05784349
In      -1.57995364      -2.23439186       3.87008024        3       0.00000000      -0.00000000      -0.00000000
In      -1.31909655       4.28432992       3.55059685        4       0.04722901      -0.03339596      -0.05784349
In       5.00071801      -2.98268016       5.80512035        5       0.04722901       0.06679191      -0.00000000
In      -1.31909655       1.48610357       5.80512035        6       0.04722901       0.06679191       0.00000000
In      -1.84081073       7.45146390       1.93504012        7      -0.04722901      -0.06679191       0.00000000
In       4.47900383       0.18445382       4.18956362        8      -0.04722901       0.03339596       0.05784349
In      -1.57995364       4.46878374      -0.00000000        9      -0.00000000      -0.00000000      -0.00000000
In       4.47900383       6.88762942       0.31948338       10      -0.04722901       0.03339596       0.05784349
In      -1.31909655      -2.41884568       7.42067709       11       0.04722901      -0.03339596      -0.05784349
In       4.47900383       2.98268017       1.93504012       12      -0.04722901      -0.06679191      -0.00000000
In       1.84081073       5.40152585       2.25452350       13       0.04722901      -0.03339596       0.05784349
In       4.73986092       0.00000000      -0.00000000       14      -0.00000000      -0.00000000      -0.00000000
In       1.57995364       2.23439187       3.87008023       15      -0.00000000      -0.00000000      -0.00000000
O        1.00833964       4.47450996       4.17075576       16       0.02065595       0.00161667      -0.05322676
O       -2.15156764       3.60911733       5.64982353       17       0.02065595      -0.04690406       0.02521330
O       -0.46898931       2.41935478      -0.02960776       18      -0.03581204      -0.00697516      -0.04394558
O       -1.00833965      -0.85394018       2.08041882       19      -0.02065595      -0.04528739      -0.02801346
O        4.11989766       5.30562987       2.11002658       20      -0.05110689       0.01991539       0.01593212
O        2.19991690       3.05987018       1.77974330       21       0.05110689      -0.00383993       0.02521330
O        2.19991690       6.71454342       0.33028328       22       0.05110689       0.02375532      -0.00928118
O       -2.43731933       6.33889137       3.84047248       23      -0.00536110       0.03608897      -0.04394558
O        3.62889659       2.04942896       7.76976823       24       0.03581204       0.00697516       0.04394558
O        5.59722661      -1.87010763       3.89968799       25       0.00536110      -0.03608897       0.04394558
O        6.78880387       3.41842819       1.76005365       26       0.03581204      -0.04154557      -0.01593212
O        3.88249523       2.39089292       4.20036352       27      -0.00536110      -0.05610247      -0.00928118
O        0.72258795       4.67656693       7.43948495       28      -0.00536110       0.02001350       0.05322676
O        2.43731933      -0.20778319       0.30067552       29       0.00536110      -0.02001350      -0.05322676
O       -3.62889659       1.05035555       5.98010682       30      -0.03581204       0.04154557       0.01593212
O        5.31147492       0.85966641       2.09033694       31      -0.02065595       0.04690406      -0.02521330
O        0.95999038       1.40891356       5.96041717       32      -0.05110689       0.00383993      -0.02521330
O        3.62889659      -0.99907340       5.95049906       33       0.03581204       0.03457041      -0.02801346
O        2.15156763      -0.00572623       3.56940471       34      -0.02065595      -0.00161667       0.05322676
O        0.95999038      -2.24575968       7.40987719       35      -0.05110689      -0.02375532       0.00928118
O       -0.72258795       2.07789082       3.53979695       36       0.00536110       0.05610247       0.00928118
O       -0.95999038      -0.83684613       5.63013389       37       0.05110689      -0.01991539      -0.01593212
O       -0.46898931       5.46785714       1.78966141       38      -0.03581204      -0.03457041       0.02801346
O        4.16824693       5.32272391       5.65974165       39       0.02065595       0.04528739       0.02801346
40
Lattice="9.47972184568914 7.42985672985696e-10 1.4654943925052054e-14 -3.159907282596874 8.937567467551062 -1.2869127985482007e-09 -3.1599072815461433 -4.468783733032529 7.740160475794504" Properties=species:S:1:pos:R:3:spacegroup_kinds:I:1:forces:R:3 spacegroup="P 1" unit_cell=conventional occupancy="_JSON {\"0\": {\"In\": 1}, \"1\": {\"In\": 1}, \"2\": {\"In\": 1}, \"3\": {\"In\": 1}, \"4\": {\"In\": 1}, \"5\": {\"In\": 1}, \"6\": {\"In\": 1}, \"7\": {\"In\": 1}, \"8\": {\"In\": 1}, \"9\": {\"In\": 1}, \"10\": {\"In\": 1}, \"11\": {\"In\": 1}, \"12\": {\"In\": 1}, \"13\": {\"In\": 1}, \"14\": {\"In\": 1}, \"15\": {\"In\": 1}, \"16\": {\"O\": 1}, \"17\": {\"O\": 1}, \"18\": {\"O\": 1}, \"19\": {\"O\": 1}, \"20\": {\"O\": 1}, \"21\": {\"O\": 1}, \"22\": {\"O\": 1}, \"23\": {\"O\": 1}, \"24\": {\"O\": 1}, \"25\": {\"O\": 1}, \"26\": {\"O\": 1}, \"27\": {\"O\": 1}, \"28\": {\"O\": 1}, \"29\": {\"O\": 1}, \"30\": {\"O\": 1}, \"31\": {\"O\": 1}, \"32\": {\"O\": 1}, \"33\": {\"O\": 1}, \"34\": {\"O\": 1}, \"35\": {\"O\": 1}, \"36\": {\"O\": 1}, \"37\": {\"O\": 1}, \"38\": {\"O\": 1}, \"39\": {\"O\": 1}}" n_minim_iter=2 energy=-45146.76828424292 stress="0.08861870976285807 -1.6552525980718793e-13 -1.208855149457953e-13 -1.6552525980718793e-13 0.08861870976322588 1.2242868547800507e-13 -1.208855149457953e-13 1.2242868547800507e-13 0.08861870976343159" free_energy=-45146.76828424292 pbc="T T T"
In      -4.47247808       3.16251958       6.13259612        0       0.00475980      -0.00336568       0.00582954
In       7.63238536       1.30626416       1.60756435        1      -0.00475980       0.00336568      -0.00582954
In       1.31257080      -0.92812771       5.47764459        2      -0.00475980       0.00336568      -0.00582954
In      -1.57995364      -2.23439186       3.87008024        3       0.00000000      -0.00000000      -0.00000000
In      -1.31257080       4.27971551       3.54260447        4       0.00475980      -0.00336568      -0.00582954
In       5.00724377      -2.97345135       5.80512035        5       0.00475980       0.00673137      -0.00000000
In      -1.31257080       1.49533238       5.80512035        6       0.00475980       0.00673137      -0.00000000
In      -1.84733649       7.44223509       1.93504012        7      -0.00475980      -0.00673137      -0.00000000
In       4.47247808       0.18906822       4.19755600        8      -0.00475980       0.00336568       0.00582954
In      -1.57995364       4.46878374      -0.00000000        9       0.00000000      -0.00000000      -0.00000000
In       4.47247808       6.89224382       0.32747576       10      -0.00475980       0.00336568       0.00582954
In      -1.31257080      -2.42346009       7.41268471       11       0.00475980      -0.00336568      -0.00582954
In       4.47247808       2.97345136       1.93504012       12      -0.00475980      -0.00673137       0.00000000
In       1.84733648       5.39691145       2.26251588       13       0.00475980      -0.00336568       0.00582954
In       4.73986092       0.00000000      -0.00000000       14      -0.00000000      -0.00000000       0.00000000
In       1.57995364       2.23439187       3.87008023       15      -0.00000000       0.00000000      -0.00000000
O        1.01119373       4.47473334       4.16340128       16       0.01834513      -0.00970147       0.01541870
O       -2.14871355       3.60263648       5.65330732       17       0.01834513       0.01820372       0.00069237
O       -0.47393755       2.41839101      -0.03567984       18       0.01413104       0.02118353      -0.00446881
O       -1.01119373      -0.86019765       2.07654813       19      -0.01834513       0.00850225       0.01611107
O        4.11283609       5.30838163       2.11222796       20       0.01104759      -0.01108232       0.02057988
O        2.20697847       3.05933961       1.78322708       21      -0.01104759      -0.02336386       0.00069237
O        2.20697847       6.71782576       0.32900087       22      -0.01104759       0.01228154       0.01988751
O       -2.43806009       6.34387787       3.83440040       23      -0.01526168      -0.02038405      -0.00446881
O        3.63384483       2.05039273       7.77584030       24      -0.01413104      -0.02118353       0.00446881
O        5.59796737      -1.87509413       3.90576007       25       0.01526168       0.02038405       0.00446881
O        6.79375211       3.41268773       1.75785227       26      -0.01413104       0.00672166      -0.02057988
O        3.88175447       2.38314109       4.19908111       27      -0.01526168       0.00632192       0.01988751
O        0.72184719       4.67933224       7.44683943       28      -0.01526168       0.01406213      -0.01541870
O        2.43806009      -0.21054850       0.29332104       29       0.01526168      -0.01406213       0.01541870
O       -3.63384483       1.05609601       5.98230820       30       0.01413104      -0.00672166       0.02057988
O        5.30862083       0.86614726       2.08685315       31      -0.01834513      -0.01820372      -0.00069237
O        0.95292881       1.40944413       5.95693339       32       0.01104759       0.02336386      -0.00069237
O        3.63384483      -0.99429672       5.94662837       33      -0.01413104       0.01446187       0.01611107
O        2.14871355      -0.00594961       3.57675919       34      -0.01834513       0.00970147      -0.01541870
O        0.95292881      -2.24904202       7.41115959       35       0.01104759      -0.01228154      -0.01988751
O       -0.72184720       2.08564265       3.54107936       36       0.01526168      -0.00632192      -0.01988751
O       -0.95292881      -0.83959789       5.62793251       37      -0.01104759       0.01108232      -0.02057988
O       -0.47393755       5.46308046       1.79353210       38       0.01413104      -0.01446187      -0.01611107
O        4.17110101       5.32898139       5.66361234       39       0.01834513      -0.00850225      -0.01611107
40
Lattice="9.479721845689138 7.429856729856957e-10 1.465494392505204e-14 -3.1599072825968726 8.937567467551057 -1.2869127985482003e-09 -3.159907281546142 -4.468783733032526 7.7401604757945" Properties=species:S:1:pos:R:3:spacegroup_kinds:I:1:forces:R:3 spacegroup="P 1" unit_cell=conventional occupancy="_JSON {\"0\": {\"In\": 1}, \"1\": {\"In\": 1}, \"2\": {\"In\": 1}, \"3\": {\"In\": 1}, \"4\": {\"In\": 1}, \"5\": {\"In\": 1}, \"6\": {\"In\": 1}, \"7\": {\"In\": 1}, \"8\": {\"In\": 1}, \"9\": {\"In\": 1}, \"10\": {\"In\": 1}, \"11\": {\"In\": 1}, \"12\": {\"In\": 1}, \"13\": {\"In\": 1}, \"14\": {\"In\": 1}, \"15\": {\"In\": 1}, \"16\": {\"O\": 1}, \"17\": {\"O\": 1}, \"18\": {\"O\": 1}, \"19\": {\"O\": 1}, \"20\": {\"O\": 1}, \"21\": {\"O\": 1}, \"22\": {\"O\": 1}, \"23\": {\"O\": 1}, \"24\": {\"O\": 1}, \"25\": {\"O\": 1}, \"26\": {\"O\": 1}, \"27\": {\"O\": 1}, \"28\": {\"O\": 1}, \"29\": {\"O\": 1}, \"30\": {\"O\": 1}, \"31\": {\"O\": 1}, \"32\": {\"O\": 1}, \"33\": {\"O\": 1}, \"34\": {\"O\": 1}, \"35\": {\"O\": 1}, \"36\": {\"O\": 1}, \"37\": {\"O\": 1}, \"38\": {\"O\": 1}, \"39\": {\"O\": 1}}" n_minim_iter=3 energy=-45146.76947853961 stress="0.08871657838198029 -5.088048376914053e-14 -1.8807617823046076e-13 -5.088048376914053e-14 0.08871657838253016 2.843067706527882e-14 -1.8807617823046076e-13 2.843067706527882e-14 0.08871657838200321" free_energy=-45146.76947853961 pbc="T T T"
In      -4.47216578       3.16229875       6.13297861        0       0.00689717      -0.00487704       0.00844728
In       7.63207306       1.30648499       1.60718186        1      -0.00689717       0.00487704      -0.00844728
In       1.31225849      -0.92790688       5.47726210        2      -0.00689717       0.00487704      -0.00844728
In      -1.57995364      -2.23439186       3.87008024        3      -0.00000000      -0.00000000       0.00000000
In      -1.31225850       4.27949468       3.54222198        4       0.00689717      -0.00487704      -0.00844728
In       5.00755607      -2.97300969       5.80512035        5       0.00689717       0.00975408       0.00000000
In      -1.31225850       1.49577404       5.80512035        6       0.00689717       0.00975407      -0.00000000
In      -1.84764879       7.44179343       1.93504012        7      -0.00689717      -0.00975408      -0.00000000
In       4.47216577       0.18928906       4.19793849        8      -0.00689717       0.00487704       0.00844728
In      -1.57995364       4.46878374      -0.00000000        9      -0.00000000       0.00000000       0.00000000
In       4.47216577       6.89246466       0.32785826       10      -0.00689717       0.00487704       0.00844728
In      -1.31225850      -2.42368092       7.41230221       11       0.00689717      -0.00487704      -0.00844728
In       4.47216577       2.97300970       1.93504012       12      -0.00689717      -0.00975407      -0.00000000
In       1.84764879       5.39669062       2.26289837       13       0.00689717      -0.00487704       0.00844728
In       4.73986092       0.00000000      -0.00000000       14      -0.00000000      -0.00000000       0.00000000
In       1.57995364       2.23439187       3.87008023       15      -0.00000000      -0.00000000      -0.00000000
O        1.01361554       4.47335795       4.16596960       16       0.01198817       0.01096803      -0.00669868
O       -2.14629174       3.60554840       5.65321428       17       0.01198817      -0.01128524      -0.00614925
O       -0.47168162       2.42142023      -0.03597604       18       0.00369699      -0.00542249      -0.01630384
O       -1.01361554      -0.85866112       2.07902341       19      -0.01198817      -0.00031721      -0.01284793
O        4.11477421       5.30667408       2.11499944       20      -0.01463589      -0.00909581       0.00345590
O        2.20504035       3.05608566       1.78313404       21       0.01463589      -0.00754081      -0.00614925
O        2.20504035       6.71937216       0.33186539       22       0.01463589      -0.00155501       0.00960516
O       -2.44016409       6.34074122       3.83410420       23       0.00634470      -0.00167806      -0.01630384
O        3.63158890       2.04736351       7.77613651       24      -0.00369699       0.00542249       0.01630384
O        5.60007137      -1.87195748       3.90605627       25      -0.00634470       0.00167806       0.01630384
O        6.79149618       3.41394582       1.75508079       26      -0.00369699      -0.01683078      -0.00345590
O        3.87965047       2.38445290       4.20194563       27       0.00634470      -0.01328051       0.00960516
O        0.71974319       4.68115709       7.44427111       28       0.00634470       0.01495857       0.00669868
O        2.44016409      -0.21237335       0.29588936       29      -0.00634470      -0.01495857      -0.00669868
O       -3.63158890       1.05483792       5.98507968       30       0.00369699       0.01683078       0.00345590
O        5.30619902       0.86323534       2.08694619       31      -0.01198817       0.01128524       0.00614925
O        0.95486692       1.41269808       5.95702642       32      -0.01463589       0.00754081       0.00614925
O        3.63158890      -0.99252559       5.94910365       33      -0.00369699       0.01140829      -0.01284793
O        2.14629174      -0.00457422       3.57419087       34      -0.01198817      -0.01096803       0.00669868
O        0.95486692      -2.25058842       7.40829508       35      -0.01463589       0.00155501      -0.00960516
O       -0.71974320       2.08433084       3.53821484       36      -0.00634470       0.01328051      -0.00960516
O       -0.95486693      -0.83789034       5.62516103       37       0.01463589       0.00909581      -0.00345590
O       -0.47168162       5.46130933       1.79105682       38       0.00369699      -0.01140829       0.01284793
O        4.17352282       5.32744486       5.66113706       39       0.01198817       0.00031721       0.01284793
40
Lattice="9.47972184568914 7.429856729856959e-10 1.4654943925052044e-14 -3.1599072825968735 8.93756746755106 -1.2869127985482005e-09 -3.159907281546143 -4.468783733032528 7.740160475794502" Properties=species:S:1:pos:R:3:spacegroup_kinds:I:1:forces:R:3 spacegroup="P 1" unit_cell=conventional occupancy="_JSON {\"0\": {\"In\": 1}, \"1\": {\"In\": 1}, \"2\": {\"In\": 1}, \"3\": {\"In\": 1}, \"4\": {\"In\": 1}, \"5\": {\"In\": 1}, \"6\": {\"In\": 1}, \"7\": {\"In\": 1}, \"8\": {\"In\": 1}, \"9\": {\"In\": 1}, \"10\": {\"In\": 1}, \"11\": {\"In\": 1}, \"12\": {\"In\": 1}, \"13\": {\"In\": 1}, \"14\": {\"In\": 1}, \"15\": {\"In\": 1}, \"16\": {\"O\": 1}, \"17\": {\"O\": 1}, \"18\": {\"O\": 1}, \"19\": {\"O\": 1}, \"20\": {\"O\": 1}, \"21\": {\"O\": 1}, \"22\": {\"O\": 1}, \"23\": {\"O\": 1}, \"24\": {\"O\": 1}, \"25\": {\"O\": 1}, \"26\": {\"O\": 1}, \"27\": {\"O\": 1}, \"28\": {\"O\": 1}, \"29\": {\"O\": 1}, \"30\": {\"O\": 1}, \"31\": {\"O\": 1}, \"32\": {\"O\": 1}, \"33\": {\"O\": 1}, \"34\": {\"O\": 1}, \"35\": {\"O\": 1}, \"36\": {\"O\": 1}, \"37\": {\"O\": 1}, \"38\": {\"O\": 1}, \"39\": {\"O\": 1}}" n_minim_iter=4 energy=-45146.7699484514 stress="0.08845844241230238 -1.6481955164081656e-13 3.298668903364137e-13 -1.6481955164081656e-13 0.08845844241286627 1.4541376213389383e-13 3.298668903364137e-13 1.4541376213389383e-13 0.08845844241213943" free_energy=-45146.7699484514 pbc="T T T"
In      -4.47098102       3.16146100       6.13442964        0       0.00009298      -0.00006574       0.00011387
In       7.63088830       1.30732274       1.60573083        1      -0.00009298       0.00006574      -0.00011387
In       1.31107373      -0.92706913       5.47581107        2      -0.00009298       0.00006574      -0.00011387
In      -1.57995364      -2.23439186       3.87008024        3      -0.00000000       0.00000000      -0.00000000
In      -1.31107374       4.27865693       3.54077095        4       0.00009298      -0.00006574      -0.00011387
In       5.00874083      -2.97133419       5.80512035        5       0.00009298       0.00013149      -0.00000000
In      -1.31107374       1.49744955       5.80512035        6       0.00009298       0.00013149      -0.00000000
In      -1.84883355       7.44011793       1.93504012        7      -0.00009298      -0.00013149       0.00000000
In       4.47098101       0.19012681       4.19938952        8      -0.00009298       0.00006574       0.00011387
In      -1.57995364       4.46878374      -0.00000000        9       0.00000000      -0.00000000       0.00000000
In       4.47098101       6.89330241       0.32930928       10      -0.00009298       0.00006574       0.00011387
In      -1.31107374      -2.42451867       7.41085119       11       0.00009298      -0.00006574      -0.00011387
In       4.47098101       2.97133419       1.93504012       12      -0.00009298      -0.00013149      -0.00000000
In       1.84883355       5.39585286       2.26434940       13       0.00009298      -0.00006574       0.00011387
In       4.73986092       0.00000000      -0.00000000       14      -0.00000000      -0.00000000      -0.00000000
In       1.57995364       2.23439187       3.87008023       15      -0.00000000      -0.00000000      -0.00000000
O        1.01495871       4.47312910       4.16554026       16       0.00936710       0.01338605      -0.00165882
O       -2.14494857       3.60529101       5.65362714       17       0.00936710      -0.00812961      -0.01076325
O       -0.47169233       2.42212017      -0.03722133       18       0.00807819      -0.00721821      -0.01234184
O       -1.01495871      -0.85914736       2.07900693       19      -0.00936710       0.00525645      -0.01242207
O        4.11408381       5.30644135       2.11622826       20      -0.01078703      -0.01238201      -0.00008023
O        2.20573075       3.05490511       1.78354691       21       0.01078703      -0.00612152      -0.01076325
O        2.20573075       6.72031998       0.33268135       22       0.01078703      -0.00626049       0.01068302
O       -2.44082758       6.34051801       3.83285890       23       0.00949812      -0.00521012      -0.01234184
O        3.63159961       2.04666357       7.77738180       24      -0.00807819       0.00721821       0.01234184
O        5.60073486      -1.87173427       3.90730157       25      -0.00949812       0.00521012       0.01234184
O        6.79150689       3.41321734       1.75385197       26      -0.00807819      -0.01429745       0.00008023
O        3.87898699       2.38348605       4.20276159       27       0.00949812      -0.00808328       0.01068302
O        0.71907971       4.68234715       7.44470045       28       0.00949812       0.01329341       0.00165882
O        2.44082757      -0.21356342       0.29546002       29      -0.00949812      -0.01329341      -0.00165882
O       -3.63159961       1.05556640       5.98630850       30       0.00807819       0.01429745      -0.00008023
O        5.30485585       0.86349273       2.08653333       31      -0.00936710       0.00812961       0.01076325
O        0.95417653       1.41387863       5.95661356       32      -0.01078703       0.00612152       0.01076325
O        3.63159961      -0.99109716       5.94908717       33      -0.00807819       0.00707924      -0.01242207
O        2.14494857      -0.00434536       3.57462021       34      -0.00936710      -0.01338605       0.00165882
O        0.95417653      -2.25153624       7.40747912       35      -0.01078703       0.00626049      -0.01068302
O       -0.71907971       2.08529769       3.53739888       36      -0.00949812       0.00808328      -0.01068302
O       -0.95417653      -0.83765761       5.62393221       37       0.01078703       0.01238201       0.00008023
O       -0.47169233       5.45988090       1.79107330       38       0.00807819      -0.00707924       0.01242207
O        4.17486599       5.32793110       5.66115354       39       0.00936710      -0.00525645       0.01242207
40
Lattice="9.479721845689141 7.429856729856959e-10 1.465494392505204e-14 -3.1599072825968735 8.93756746755106 -1.2869127985482012e-09 -3.159907281546143 -4.468783733032528 7.740160475794504" Properties=species:S:1:pos:R:3:spacegroup_kinds:I:1:forces:R:3 spacegroup="P 1" unit_cell=conventional occupancy="_JSON {\"0\": {\"In\": 1}, \"1\": {\"In\": 1}, \"2\": {\"In\": 1}, \"3\": {\"In\": 1}, \"4\": {\"In\": 1}, \"5\": {\"In\": 1}, \"6\": {\"In\": 1}, \"7\": {\"In\": 1}, \"8\": {\"In\": 1}, \"9\": {\"In\": 1}, \"10\": {\"In\": 1}, \"11\": {\"In\": 1}, \"12\": {\"In\": 1}, \"13\": {\"In\": 1}, \"14\": {\"In\": 1}, \"15\": {\"In\": 1}, \"16\": {\"O\": 1}, \"17\": {\"O\": 1}, \"18\": {\"O\": 1}, \"19\": {\"O\": 1}, \"20\": {\"O\": 1}, \"21\": {\"O\": 1}, \"22\": {\"O\": 1}, \"23\": {\"O\": 1}, \"24\": {\"O\": 1}, \"25\": {\"O\": 1}, \"26\": {\"O\": 1}, \"27\": {\"O\": 1}, \"28\": {\"O\": 1}, \"29\": {\"O\": 1}, \"30\": {\"O\": 1}, \"31\": {\"O\": 1}, \"32\": {\"O\": 1}, \"33\": {\"O\": 1}, \"34\": {\"O\": 1}, \"35\": {\"O\": 1}, \"36\": {\"O\": 1}, \"37\": {\"O\": 1}, \"38\": {\"O\": 1}, \"39\": {\"O\": 1}}" n_minim_iter=5 energy=-45146.7701258751 stress="0.08830139141400788 -7.283054717533844e-13 1.58067794357108e-13 -7.283054717533844e-13 0.08830139141443939 -1.6033550717671802e-15 1.58067794357108e-13 -1.6033550717671802e-15 0.08830139141465759" free_energy=-45146.7701258751 pbc="T T T"
In      -4.47029615       3.16097672       6.13526843        0      -0.00390064       0.00275817      -0.00477728
In       7.63020343       1.30780702       1.60489204        1       0.00390064      -0.00275817       0.00477728
In       1.31038886      -0.92658485       5.47497228        2       0.00390064      -0.00275817       0.00477728
In      -1.57995364      -2.23439186       3.87008024        3      -0.00000000      -0.00000000       0.00000000
In      -1.31038887       4.27817265       3.53993216        4      -0.00390064       0.00275817       0.00477728
In       5.00942570      -2.97036564       5.80512035        5      -0.00390064      -0.00551633       0.00000000
In      -1.31038887       1.49841810       5.80512035        6      -0.00390064      -0.00551633      -0.00000000
In      -1.84951842       7.43914937       1.93504012        7       0.00390064       0.00551633       0.00000000
In       4.47029614       0.19061108       4.20022831        8       0.00390064      -0.00275817      -0.00477728
In      -1.57995364       4.46878374      -0.00000000        9      -0.00000000       0.00000000      -0.00000000
In       4.47029614       6.89378668       0.33014807       10       0.00390064      -0.00275817      -0.00477728
In      -1.31038887      -2.42500295       7.41001240       11      -0.00390064       0.00275817       0.00477728
In       4.47029614       2.97036564       1.93504012       12       0.00390064       0.00551633      -0.00000000
In       1.84951842       5.39536859       2.26518819       13      -0.00390064       0.00275817      -0.00477728
In       4.73986092       0.00000000      -0.00000000       14       0.00000000      -0.00000000       0.00000000
In       1.57995364       2.23439187       3.87008023       15      -0.00000000      -0.00000000       0.00000000
O        1.01599501       4.47317004       4.16538383       16       0.00747144       0.01289425       0.00062067
O       -2.14391227       3.60513506       5.65366990       17       0.00747144      -0.00590961      -0.01147709
O       -0.47145533       2.42252942      -0.03815751       18       0.00907567      -0.00704397      -0.00951232
O       -1.01599502      -0.85926236       2.07889326       19      -0.00747144       0.00698464      -0.01085642
O        4.11359135       5.30601586       2.11705076       20      -0.00806211      -0.01247659      -0.00134409
O        2.20622321       3.05398005       1.78358967       21       0.00806211      -0.00507427      -0.01147709
O        2.20622321       6.72081954       0.33346109       22       0.00806211      -0.00740231       0.01013299
O       -2.44113441       6.34015814       3.83192273       23       0.00966634      -0.00620863      -0.00951232
O        3.63136260       2.04625432       7.77831798       24      -0.00907567       0.00704397       0.00951232
O        5.60104169      -1.87137440       3.90823774       25      -0.00966634       0.00620863       0.00951232
O        6.79126989       3.41261121       1.75302947       26      -0.00907567      -0.01175990       0.00134409
O        3.87868015       2.38285523       4.20354133       27       0.00966634      -0.00513360       0.01013299
O        0.71877287       4.68333784       7.44485688       28       0.00966634       0.01134223      -0.00062067
O        2.44113441      -0.21455410       0.29530359       29      -0.00966634      -0.01134223       0.00062067
O       -3.63136261       1.05617253       5.98713100       30       0.00907567       0.01175990      -0.00134409
O        5.30381955       0.86364868       2.08649057       31      -0.00747144       0.00590961       0.01147709
O        0.95368407       1.41480369       5.95657080       32      -0.00806211       0.00507427       0.01147709
O        3.63136260      -0.99008179       5.94897350       33      -0.00907567       0.00471593      -0.01085642
O        2.14391227      -0.00438630       3.57477664       34      -0.00747144      -0.01289425      -0.00062067
O        0.95368407      -2.25203580       7.40669938       35      -0.00806211       0.00740231      -0.01013299
O       -0.71877287       2.08592850       3.53661914       36      -0.00966634       0.00513360      -0.01013299
O       -0.95368407      -0.83723212       5.62310971       37       0.00806211       0.01247659       0.00134409
O       -0.47145533       5.45886553       1.79118697       38       0.00907567      -0.00471593       0.01085642
O        4.17590229       5.32804610       5.66126721       39       0.00747144      -0.00698464       0.01085642
40