40
Lattice="9.208722956884776 7.217497710598764e-10 1.865174681370263e-14 -3.0695743196420624 8.682067264934695 -1.250124004315012e-09 -3.0695743186213704 -4.341033631745589 7.518890809632132" Properties=species:S:1:pos:R:3:spacegroup_kinds:I:1:forces:R:3 spacegroup="P 1" unit_cell=conventional occupancy="_JSON {\"0\": {\"In\": 1}, \"1\": {\"In\": 1}, \"2\": {\"In\": 1}, \"3\": {\"In\": 1}, \"4\": {\"In\": 1}, \"5\": {\"In\": 1}, \"6\": {\"In\": 1}, \"7\": {\"In\": 1}, \"8\": {\"In\": 1}, \"9\": {\"In\": 1}, \"10\": {\"In\": 1}, \"11\": {\"In\": 1}, \"12\": {\"In\": 1}, \"13\": {\"In\": 1}, \"14\": {\"In\": 1}, \"15\": {\"In\": 1}, \"16\": {\"O\": 1}, \"17\": {\"O\": 1}, \"18\": {\"O\": 1}, \"19\": {\"O\": 1}, \"20\": {\"O\": 1}, \"21\": {\"O\": 1}, \"22\": {\"O\": 1}, \"23\": {\"O\": 1}, \"24\": {\"O\": 1}, \"25\": {\"O\": 1}, \"26\": {\"O\": 1}, \"27\": {\"O\": 1}, \"28\": {\"O\": 1}, \"29\": {\"O\": 1}, \"30\": {\"O\": 1}, \"31\": {\"O\": 1}, \"32\": {\"O\": 1}, \"33\": {\"O\": 1}, \"34\": {\"O\": 1}, \"35\": {\"O\": 1}, \"36\": {\"O\": 1}, \"37\": {\"O\": 1}, \"38\": {\"O\": 1}, \"39\": {\"O\": 1}}" n_minim_iter=1 energy=-45150.510919225 stress="0.04943464724627684 -2.4179456196190904e-14 1.0945450782591873e-13 -2.4179456196190904e-14 0.04943464724623435 1.0498843176737785e-14 1.0945450782591873e-13 1.0498843176737785e-14 0.04943464724595279" free_energy=-45150.510919225 pbc="T T T"
In      -4.37918652       3.09655249       5.91494998        0       0.05308548      -0.03753710       0.06501617
In       7.44876084       1.24448115       1.60394083        1      -0.05308548       0.03753710      -0.06501617
In       1.30961220      -0.92603567       5.36338623        2      -0.05308548       0.03753710      -0.06501617
In      -1.53478716      -2.17051681       3.75944540        3      -0.00000000      -0.00000000      -0.00000000
In      -1.30961220       4.18181090       3.48366353        4       0.05308548      -0.03753710      -0.06501617
In       4.82953643      -2.93732974       5.63916810        5       0.05308548       0.07507420      -0.00000000
In      -1.30961220       1.40370389       5.63916810        6       0.05308548       0.07507420      -0.00000000
In      -1.75996212       7.27836338       1.87972270        7      -0.05308548      -0.07507420      -0.00000000
In       4.37918652       0.15922274       4.03522728        8      -0.05308548       0.03753710       0.06501617
In      -1.53478716       4.34103363      -0.00000000        9       0.00000000      -0.00000000      -0.00000000
In       4.37918652       6.67077319       0.27578187       10      -0.05308548       0.03753710       0.06501617
In      -1.30961220      -2.32973955       7.24310893       11       0.05308548      -0.03753710      -0.06501617
In       4.37918652       2.93732975       1.87972270       12      -0.05308548      -0.07507420       0.00000000
In       1.75996211       5.26706930       2.15550457       13       0.05308548      -0.03753710       0.06501617
In       4.60436148       0.00000000      -0.00000000       14       0.00000000       0.00000000      -0.00000000
In       1.53478716       2.17051682       3.75944540       15      -0.00000000      -0.00000000      -0.00000000
O        0.93755935       4.34493164       4.07402650       16       0.01486074      -0.01137124      -0.06142546
O       -2.13201497       3.52626145       5.47850179       17       0.01486074      -0.04751039       0.04056052
O       -0.45197973       2.33829714       0.01722552       18      -0.05056055      -0.00125055      -0.03956388
O       -0.93755935      -0.81087418       2.03363748       19      -0.01486074      -0.05888163      -0.02086495
O        4.03526283       5.16185298       2.01641196       20      -0.04974680       0.03603941       0.01869893
O        2.10388580       3.00517933       1.71905638       21       0.04974680       0.00182596       0.04056052
O        2.10388580       6.49770729       0.29735557       22       0.04974680       0.03421346      -0.02186158
O       -2.35522759       6.15824865       3.77667093       23      -0.01567449       0.04808580      -0.03956388
O        3.52155405       2.00273650       7.50166528       24       0.05056055       0.00125055       0.03956388
O        5.42480191      -1.81721501       3.74221988       25       0.01567449      -0.04808580       0.03956388
O        6.59112836       3.35458313       1.74303344       26       0.05056055      -0.03488860      -0.01869893
O        3.78392104       2.36208546       4.05680098       27      -0.01567449      -0.05830622      -0.02186158
O        0.71434673       4.50276679       7.20430971       28      -0.01567449       0.01022043       0.06142546
O        2.35522759      -0.16173316       0.31458110       29       0.01567449      -0.01022043      -0.06142546
O       -3.52155405       0.98645051       5.77585736       30      -0.05056055       0.03488860       0.01869893
O        5.20158929       0.81477219       2.04038902       31      -0.01486074       0.04751039      -0.04056052
O        0.96568851       1.33585431       5.79983442       32      -0.04974680      -0.00182596      -0.04056052
O        3.52155405      -1.01628599       5.79308289       33       0.05056055       0.03363805      -0.02086495
O        2.13201497      -0.00389800       3.44486430       34      -0.01486074       0.01137124       0.06142546
O        0.96568851      -2.15667365       7.22153523       35      -0.04974680      -0.03421346       0.02186158
O       -0.71434673       1.97894817       3.46208983       36       0.01567449       0.05830622       0.02186158
O       -0.96568852      -0.82081934       5.50247885       37       0.04974680      -0.03603941      -0.01869893
O       -0.45197973       5.35731963       1.72580792       38      -0.05056055      -0.03363805       0.02086495
O        4.00713366       5.15190782       5.48525332       39       0.01486074       0.05888163       0.02086495
40
Lattice="9.20872295688478 7.217497710598765e-10 1.8651746813702643e-14 -3.0695743196420633 8.682067264934696 -1.2501240043150127e-09 -3.0695743186213713 -4.3410336317455895 7.518890809632135" Properties=species:S:1:pos:R:3:spacegroup_kinds:I:1:forces:R:3 spacegroup="P 1" unit_cell=conventional occupancy="_JSON {\"0\": {\"In\": 1}, \"1\": {\"In\": 1}, \"2\": {\"In\": 1}, \"3\": {\"In\": 1}, \"4\": {\"In\": 1}, \"5\": {\"In\": 1}, \"6\": {\"In\": 1}, \"7\": {\"In\": 1}, \"8\": {\"In\": 1}, \"9\": {\"In\": 1}, \"10\": {\"In\": 1}, \"11\": {\"In\": 1}, \"12\": {\"In\": 1}, \"13\": {\"In\": 1}, \"14\": {\"In\": 1}, \"15\": {\"In\": 1}, \"16\": {\"O\": 1}, \"17\": {\"O\": 1}, \"18\": {\"O\": 1}, \"19\": {\"O\": 1}, \"20\": {\"O\": 1}, \"21\": {\"O\": 1}, \"22\": {\"O\": 1}, \"23\": {\"O\": 1}, \"24\": {\"O\": 1}, \"25\": {\"O\": 1}, \"26\": {\"O\": 1}, \"27\": {\"O\": 1}, \"28\": {\"O\": 1}, \"29\": {\"O\": 1}, \"30\": {\"O\": 1}, \"31\": {\"O\": 1}, \"32\": {\"O\": 1}, \"33\": {\"O\": 1}, \"34\": {\"O\": 1}, \"35\": {\"O\": 1}, \"36\": {\"O\": 1}, \"37\": {\"O\": 1}, \"38\": {\"O\": 1}, \"39\": {\"O\": 1}}" n_minim_iter=2 energy=-45150.52015387744 stress="0.0484364132623695 -1.4553032591255884e-13 1.8171787900934798e-13 -1.4553032591255884e-13 0.048436413263636006 2.7849461861764434e-13 1.8171787900934798e-13 2.7849461861764434e-13 0.04843641326228323" free_energy=-45150.52015387744 pbc="T T T"
In      -4.37539470       3.09387127       5.91959399        0       0.01918107      -0.01356307       0.02349192
In       7.44496902       1.24716237       1.59929681        1      -0.01918107       0.01356307      -0.02349192
In       1.30582038      -0.92335444       5.35874222        2      -0.01918107       0.01356307      -0.02349192
In      -1.53478716      -2.17051681       3.75944540        3      -0.00000000      -0.00000000      -0.00000000
In      -1.30582038       4.17912967       3.47901952        4       0.01918107      -0.01356307      -0.02349192
In       4.83332825      -2.93196730       5.63916810        5       0.01918107       0.02712613      -0.00000000
In      -1.30582038       1.40906633       5.63916810        6       0.01918107       0.02712613       0.00000000
In      -1.76375394       7.27300094       1.87972270        7      -0.01918107      -0.02712613      -0.00000000
In       4.37539470       0.16190396       4.03987129        8      -0.01918107       0.01356307       0.02349192
In      -1.53478716       4.34103363      -0.00000000        9       0.00000000      -0.00000000      -0.00000000
In       4.37539470       6.67345441       0.28042588       10      -0.01918107       0.01356307       0.02349192
In      -1.30582038      -2.33242077       7.23846492       11       0.01918107      -0.01356307      -0.02349192
In       4.37539470       2.93196730       1.87972270       12      -0.01918107      -0.02712613       0.00000000
In       1.76375393       5.26438808       2.16014859       13       0.01918107      -0.01356307       0.02349192
In       4.60436148       0.00000000      -0.00000000       14      -0.00000000       0.00000000      -0.00000000
In       1.53478716       2.17051682       3.75944540       15       0.00000000      -0.00000000       0.00000000
O        0.93862083       4.34411940       4.06963897       16       0.01845809       0.00587347      -0.01122496
O       -2.13095349       3.52286785       5.48139897       17       0.01845809      -0.01265784       0.00052590
O       -0.45559120       2.33820781       0.01439953       18      -0.00024366       0.00056630      -0.02237897
O       -0.93862083      -0.81508001       2.03214713       19      -0.01845809      -0.00678436      -0.01069906
O        4.03170949       5.16442722       2.01774759       20      -0.01808662      -0.00613615       0.01167992
O        2.10743915       3.00530975       1.72195356       21       0.01808662      -0.01318318       0.00052590
O        2.10743915       6.50015111       0.29579403       22       0.01808662       0.00704703       0.01115402
O       -2.35634720       6.16168335       3.77384494       23      -0.00061513       0.00004096      -0.02237897
O        3.52516551       2.00282582       7.50449127       24       0.00024366      -0.00056630       0.02237897
O        5.42592152      -1.82064971       3.74504587       25       0.00061513      -0.00004096       0.02237897
O        6.59473983       3.35209109       1.74169781       26       0.00024366      -0.01909761      -0.01167992
O        3.78280144       2.35792073       4.05523943       27      -0.00061513      -0.01940124       0.01115402
O        0.71322712       4.50349682       7.20869724       28      -0.00061513       0.01936028       0.01122496
O        2.35634720      -0.16246319       0.31019356       29       0.00061513      -0.01936028      -0.01122496
O       -3.52516552       0.98894255       5.77719300       30      -0.00024366       0.01909761       0.01167992
O        5.20052781       0.81816579       2.03749184       31      -0.01845809       0.01265784      -0.00052590
O        0.96213517       1.33572388       5.79693724       32      -0.01808662       0.01318318      -0.00052590
O        3.52516551      -1.01388327       5.79159253       33       0.00024366       0.01966391      -0.01069906
O        2.13095349      -0.00308577       3.44925183       34      -0.01845809      -0.00587347       0.01122496
O        0.96213517      -2.15911747       7.22309677       35      -0.01808662      -0.00704703      -0.01115402
O       -0.71322712       1.98311290       3.46365137       36       0.00061513       0.01940124      -0.01115402
O       -0.96213517      -0.82339359       5.50114321       37       0.01808662       0.00613615      -0.01167992
O       -0.45559120       5.35491691       1.72729827       38      -0.00024366      -0.01966391       0.01069906
O        4.00819515       5.15611365       5.48674367       39       0.01845809       0.00678436       0.01069906
40
Lattice="9.208722956884781 7.217497710598766e-10 1.8651746813702636e-14 -3.0695743196420637 8.682067264934698 -1.2501240043150132e-09 -3.0695743186213718 -4.34103363174559 7.518890809632137" Properties=species:S:1:pos:R:3:spacegroup_kinds:I:1:forces:R:3 spacegroup="P 1" unit_cell=conventional occupancy="_JSON {\"0\": {\"In\": 1}, \"1\": {\"In\": 1}, \"2\": {\"In\": 1}, \"3\": {\"In\": 1}, \"4\": {\"In\": 1}, \"5\": {\"In\": 1}, \"6\": {\"In\": 1}, \"7\": {\"In\": 1}, \"8\": {\"In\": 1}, \"9\": {\"In\": 1}, \"10\": {\"In\": 1}, \"11\": {\"In\": 1}, \"12\": {\"In\": 1}, \"13\": {\"In\": 1}, \"14\": {\"In\": 1}, \"15\": {\"In\": 1}, \"16\": {\"O\": 1}, \"17\": {\"O\": 1}, \"18\": {\"O\": 1}, \"19\": {\"O\": 1}, \"20\": {\"O\": 1}, \"21\": {\"O\": 1}, \"22\": {\"O\": 1}, \"23\": {\"O\": 1}, \"24\": {\"O\": 1}, \"25\": {\"O\": 1}, \"26\": {\"O\": 1}, \"27\": {\"O\": 1}, \"28\": {\"O\": 1}, \"29\": {\"O\": 1}, \"30\": {\"O\": 1}, \"31\": {\"O\": 1}, \"32\": {\"O\": 1}, \"33\": {\"O\": 1}, \"34\": {\"O\": 1}, \"35\": {\"O\": 1}, \"36\": {\"O\": 1}, \"37\": {\"O\": 1}, \"38\": {\"O\": 1}, \"39\": {\"O\": 1}}" n_minim_iter=3 energy=-45150.521228410566 stress="0.047986440858092394 -3.3681124430290286e-13 -3.890007283407314e-13 -3.3681124430290286e-13 0.04798644085929506 8.08496988269517e-14 -3.890007283407314e-13 8.08496988269517e-14 0.04798644085884161" free_energy=-45150.521228410566 pbc="T T T"
In      -4.37370460       3.09267618       5.92166393        0       0.00460279      -0.00325467       0.00563725
In       7.44327892       1.24835745       1.59722687        1      -0.00460279       0.00325467      -0.00563725
In       1.30413028      -0.92215936       5.35667228        2      -0.00460279       0.00325467      -0.00563725
In      -1.53478716      -2.17051681       3.75944540        3       0.00000000      -0.00000000       0.00000000
In      -1.30413028       4.17793459       3.47694957        4       0.00460279      -0.00325467      -0.00563725
In       4.83501835      -2.92957714       5.63916810        5       0.00460279       0.00650933      -0.00000000
In      -1.30413028       1.41145649       5.63916810        6       0.00460279       0.00650933       0.00000000
In      -1.76544404       7.27061077       1.87972270        7      -0.00460279      -0.00650933      -0.00000000
In       4.37370460       0.16309904       4.04194123        8      -0.00460279       0.00325467       0.00563725
In      -1.53478716       4.34103363      -0.00000000        9      -0.00000000       0.00000000       0.00000000
In       4.37370460       6.67464949       0.28249582       10      -0.00460279       0.00325467       0.00563725
In      -1.30413028      -2.33361586       7.23639498       11       0.00460279      -0.00325467      -0.00563725
In       4.37370460       2.92957714       1.87972270       12      -0.00460279      -0.00650933       0.00000000
In       1.76544403       5.26319300       2.16221853       13       0.00460279      -0.00325467       0.00563725
In       4.60436148       0.00000000      -0.00000000       14       0.00000000       0.00000000       0.00000000
In       1.53478716       2.17051682       3.75944540       15       0.00000000      -0.00000000      -0.00000000
O        0.93935743       4.34395832       4.06790416       16       0.01908186       0.01005791       0.00886350
O       -2.13021689       3.52144601       5.48240587       17       0.01908186       0.00264706      -0.01314216
O       -0.45683806       2.33818849       0.01297720       18       0.01833899       0.00317236      -0.01405199
O       -0.93935743      -0.81666294       2.03141923       19      -0.01908186       0.01270498      -0.00427866
O        4.03012343       5.16518897       2.01844203       20      -0.00386494      -0.02081790       0.00977334
O        2.10902520       3.00508923       1.72296047       21       0.00386494      -0.01887291      -0.01314216
O        2.10902520       6.50113338       0.29548156       22       0.00386494      -0.00194499       0.02291550
O       -2.35674461       6.16286534       3.77242260       23       0.00312207      -0.01834761      -0.01405199
O        3.52641238       2.00284514       7.50591360       24      -0.01833899      -0.00317236       0.01405199
O        5.42631892      -1.82183171       3.74646820       25      -0.00312207       0.01834761       0.01405199
O        6.59598670       3.35084965       1.74100337       26      -0.01833899      -0.01058320      -0.00977334
O        3.78240403       2.35609796       4.05492696       27       0.00312207      -0.00299557       0.02291550
O        0.71282971       4.50413760       7.21043204       28       0.00312207       0.02134319      -0.00886350
O        2.35674460      -0.16310396       0.30845876       29      -0.00312207      -0.02134319       0.00886350
O       -3.52641238       0.99018398       5.77788743       30       0.01833899       0.01058320       0.00977334
O        5.19979121       0.81958763       2.03648493       31      -0.01908186      -0.00264706       0.01314216
O        0.96054911       1.33594441       5.79593033       32      -0.00386494       0.01887291       0.01314216
O        3.52641238      -1.01266115       5.79086464       33      -0.01833899       0.01375556      -0.00427866
O        2.13021689      -0.00292468       3.45098664       34      -0.01908186      -0.01005791      -0.00886350
O        0.96054911      -2.16009974       7.22340925       35      -0.00386494       0.00194499      -0.02291550
O       -0.71282971       1.98493568       3.46396384       36      -0.00312207       0.00299557      -0.02291550
O       -0.96054911      -0.82415533       5.50044877       37       0.00386494       0.02081790      -0.00977334
O       -0.45683806       5.35369479       1.72802617       38       0.01833899      -0.01375556       0.00427866
O        4.00893175       5.15769658       5.48747157       39       0.01908186      -0.01270498       0.00427866
40
Lattice="9.208722956884786 7.217497710598769e-10 1.8651746813702646e-14 -3.069574319642065 8.682067264934702 -1.2501240043150138e-09 -3.069574318621373 -4.341033631745592 7.51889080963214" Properties=species:S:1:pos:R:3:spacegroup_kinds:I:1:forces:R:3 spacegroup="P 1" unit_cell=conventional occupancy="_JSON {\"0\": {\"In\": 1}, \"1\": {\"In\": 1}, \"2\": {\"In\": 1}, \"3\": {\"In\": 1}, \"4\": {\"In\": 1}, \"5\": {\"In\": 1}, \"6\": {\"In\": 1}, \"7\": {\"In\": 1}, \"8\": {\"In\": 1}, \"9\": {\"In\": 1}, \"10\": {\"In\": 1}, \"11\": {\"In\": 1}, \"12\": {\"In\": 1}, \"13\": {\"In\": 1}, \"14\": {\"In\": 1}, \"15\": {\"In\": 1}, \"16\": {\"O\": 1}, \"17\": {\"O\": 1}, \"18\": {\"O\": 1}, \"19\": {\"O\": 1}, \"20\": {\"O\": 1}, \"21\": {\"O\": 1}, \"22\": {\"O\": 1}, \"23\": {\"O\": 1}, \"24\": {\"O\": 1}, \"25\": {\"O\": 1}, \"26\": {\"O\": 1}, \"27\": {\"O\": 1}, \"28\": {\"O\": 1}, \"29\": {\"O\": 1}, \"30\": {\"O\": 1}, \"31\": {\"O\": 1}, \"32\": {\"O\": 1}, \"33\": {\"O\": 1}, \"34\": {\"O\": 1}, \"35\": {\"O\": 1}, \"36\": {\"O\": 1}, \"37\": {\"O\": 1}, \"38\": {\"O\": 1}, \"39\": {\"O\": 1}}" n_minim_iter=4 energy=-45150.52194029134 stress="0.04767100391243358 6.998000622810037e-14 -2.3577546160528344e-13 6.998000622810037e-14 0.0476710039123616 -1.355495268737835e-13 -2.3577546160528344e-13 -1.355495268737835e-13 0.04767100391188211" free_energy=-45150.52194029134 pbc="T T T"
In      -4.37208789       3.09153299       5.92364400        0      -0.00685324       0.00484598      -0.00839348
In       7.44166220       1.24950064       1.59524681        1       0.00685324      -0.00484598       0.00839348
In       1.30251356      -0.92101617       5.35469221        2       0.00685324      -0.00484598       0.00839348
In      -1.53478716      -2.17051681       3.75944540        3       0.00000000      -0.00000000       0.00000000
In      -1.30251357       4.17679140       3.47496951        4      -0.00685324       0.00484598       0.00839348
In       4.83663507      -2.92729075       5.63916810        5      -0.00685324      -0.00969195       0.00000000
In      -1.30251357       1.41374288       5.63916810        6      -0.00685324      -0.00969195      -0.00000000
In      -1.76706076       7.26832439       1.87972270        7       0.00685325       0.00969195       0.00000000
In       4.37208788       0.16424224       4.04392130        8       0.00685324      -0.00484598      -0.00839348
In      -1.53478716       4.34103363      -0.00000000        9      -0.00000000      -0.00000000       0.00000000
In       4.37208788       6.67579268       0.28447589       10       0.00685324      -0.00484598      -0.00839348
In      -1.30251357      -2.33475905       7.23441491       11      -0.00685324       0.00484598       0.00839348
In       4.37208788       2.92729076       1.87972270       12       0.00685324       0.00969195       0.00000000
In       1.76706075       5.26204981       2.16419859       13      -0.00685324       0.00484598      -0.00839348
In       4.60436148       0.00000000      -0.00000000       14      -0.00000000       0.00000000       0.00000000
In       1.53478716       2.17051682       3.75944540       15      -0.00000000       0.00000000      -0.00000000
O        0.94138236       4.34460885       4.06729332       16       0.01681623       0.00244010       0.01748590
O       -2.12819196       3.52059174       5.48214792       17       0.01681623       0.01392319      -0.01085614
O       -0.45635517       2.33842461       0.01083064       18       0.02103287       0.01094157      -0.00569184
O       -0.94138236      -0.81686668       2.03055044       19      -0.01681623       0.01636329       0.00662976
O        4.02864304       5.16415339       2.01971980       20       0.00752150      -0.01964947       0.01232160
O        2.11050559       3.00346486       1.72270251       21      -0.00752150      -0.02049555      -0.01085614
O        2.11050559       6.50172217       0.29701728       22      -0.00752150       0.00084608       0.02317774
O       -2.35680626       6.16233136       3.77027604       23      -0.00330486      -0.02347717      -0.00569184
O        3.52592949       2.00260902       7.50806017       24      -0.02103287      -0.01094157       0.00569184
O        5.42638058      -1.82129773       3.74861476       25       0.00330486       0.02347717       0.00569184
O        6.59550381       3.34910873       1.73972560       26      -0.02103287       0.00054151      -0.01232160
O        3.78234238       2.35450597       4.05646268       27      -0.00330486       0.00680931       0.02317774
O        0.71276806       4.50626357       7.21104289       28      -0.00330486       0.01666786      -0.01748590
O        2.35680626      -0.16522993       0.30784792       29       0.00330486      -0.01666786       0.01748590
O       -3.52592949       0.99192490       5.77916520       30       0.02103287      -0.00054151       0.01232160
O        5.19776627       0.82044190       2.03674288       31      -0.01681623      -0.01392319       0.01085614
O        0.95906872       1.33756878       5.79618829       32       0.00752150       0.02049555       0.01085614
O        3.52592949      -1.01068412       5.78999584       33      -0.02103287       0.01040006       0.00662976
O        2.12819196      -0.00357521       3.45159748       34      -0.01681623      -0.00244010      -0.01748590
O        0.95906872      -2.16068853       7.22187353       35       0.00752150      -0.00084608      -0.02317774
O       -0.71276806       1.98652767       3.46242812       36       0.00330486      -0.00680931      -0.02317774
O       -0.95906872      -0.82311975       5.49917101       37      -0.00752150       0.01964947      -0.01232160
O       -0.45635517       5.35171775       1.72889496       38       0.02103287      -0.01040006      -0.00662976
O        4.01095668       5.15790032       5.48834037       39       0.01681623      -0.01636329      -0.00662976
40
Lattice="9.20872295688479 7.21749771059877e-10 1.8651746813702643e-14 -3.069574319642066 8.682067264934705 -1.250124004315014e-09 -3.069574318621374 -4.341033631745594 7.518890809632142" Properties=species:S:1:pos:R:3:spacegroup_kinds:I:1:forces:R:3 spacegroup="P 1" unit_cell=conventional occupancy="_JSON {\"0\": {\"In\": 1}, \"1\": {\"In\": 1}, \"2\": {\"In\": 1}, \"3\": {\"In\": 1}, \"4\": {\"In\": 1}, \"5\": {\"In\": 1}, \"6\": {\"In\": 1}, \"7\": {\"In\": 1}, \"8\": {\"In\": 1}, \"9\": {\"In\": 1}, \"10\": {\"In\": 1}, \"11\": {\"In\": 1}, \"12\": {\"In\": 1}, \"13\": {\"In\": 1}, \"14\": {\"In\": 1}, \"15\": {\"In\": 1}, \"16\": {\"O\": 1}, \"17\": {\"O\": 1}, \"18\": {\"O\": 1}, \"19\": {\"O\": 1}, \"20\": {\"O\": 1}, \"21\": {\"O\": 1}, \"22\": {\"O\": 1}, \"23\": {\"O\": 1}, \"24\": {\"O\": 1}, \"25\": {\"O\": 1}, \"26\": {\"O\": 1}, \"27\": {\"O\": 1}, \"28\": {\"O\": 1}, \"29\": {\"O\": 1}, \"30\": {\"O\": 1}, \"31\": {\"O\": 1}, \"32\": {\"O\": 1}, \"33\": {\"O\": 1}, \"34\": {\"O\": 1}, \"35\": {\"O\": 1}, \"36\": {\"O\": 1}, \"37\": {\"O\": 1}, \"38\": {\"O\": 1}, \"39\": {\"O\": 1}}" n_minim_iter=5 energy=-45150.523002501606 stress="0.047722826291818655 -2.4646767098966656e-13 2.429412771321784e-13 -2.4646767098966656e-13 0.04772282629179352 -4.01828092191775e-13 2.429412771321784e-13 -4.01828092191775e-13 0.047722826292061815" free_energy=-45150.523002501606 pbc="T T T"
In      -4.37120760       3.09091053       5.92472213        0      -0.00801191       0.00566528      -0.00981255
In       7.44078191       1.25012310       1.59416868        1       0.00801191      -0.00566528       0.00981255
In       1.30163327      -0.92039371       5.35361408        2       0.00801191      -0.00566528       0.00981255
In      -1.53478716      -2.17051681       3.75944540        3      -0.00000000      -0.00000000      -0.00000000
In      -1.30163328       4.17616894       3.47389138        4      -0.00801191       0.00566528       0.00981255
In       4.83751536      -2.92604584       5.63916810        5      -0.00801191      -0.01133056      -0.00000000
In      -1.30163328       1.41498780       5.63916810        6      -0.00801191      -0.01133056       0.00000000
In      -1.76794105       7.26707947       1.87972270        7       0.00801191       0.01133056      -0.00000000
In       4.37120759       0.16486469       4.04499943        8       0.00801191      -0.00566528      -0.00981255
In      -1.53478716       4.34103363      -0.00000000        9       0.00000000       0.00000000       0.00000000
In       4.37120759       6.67641514       0.28555402       10       0.00801191      -0.00566528      -0.00981255
In      -1.30163328      -2.33538151       7.23333678       11      -0.00801191       0.00566528       0.00981255
In       4.37120759       2.92604584       1.87972270       12       0.00801191       0.01133056       0.00000000
In       1.76794104       5.26142735       2.16527672       13      -0.00801191       0.00566528      -0.00981255
In       4.60436148       0.00000000      -0.00000000       14      -0.00000000      -0.00000000       0.00000000
In       1.53478716       2.17051682       3.75944540       15      -0.00000000       0.00000000       0.00000000
O        0.94524986       4.34621862       4.06892836       16       0.00970210      -0.01911837       0.00237806
O       -2.12432446       3.52120283       5.47993629       17       0.00970210       0.01161864       0.01536797
O       -0.45297215       2.33937828       0.00802566       18      -0.00383678       0.02119207      -0.00121370
O       -0.94524986      -0.81464581       2.02997385       19      -0.00970210      -0.00749973       0.01774602
O        4.02793002       5.16031306       2.02194819       20       0.00772013       0.00679899       0.01895973
O        2.11121862       2.99961485       1.72049089       21      -0.00772013      -0.01302011       0.01536797
O        2.11121862       6.50173185       0.30145729       22      -0.00772013       0.01981910       0.00359176
O       -2.35657771       6.15882393       3.76747106       23      -0.02125900      -0.00344668      -0.00121370
O        3.52254647       2.00165536       7.51086515       24       0.00383678      -0.02119207       0.00121370
O        5.42615203      -1.81779029       3.75141974       25       0.02125900       0.00344668       0.00121370
O        6.59212079       3.34715638       1.73749721       26       0.00383678       0.00954494      -0.01895973
O        3.78257093       2.35383050       4.06090270       27      -0.02125900       0.00067224       0.00359176
O        0.71299661       4.51044647       7.20940785       28      -0.02125900       0.00277444      -0.00237806
O        2.35657771      -0.16941283       0.30948295       29       0.02125900      -0.00277444       0.00237806
O       -3.52254647       0.99387726       5.78139359       30      -0.00383678      -0.00954494       0.01895973
O        5.19389878       0.81983080       2.03895451       31      -0.00970210      -0.01161864      -0.01536797
O        0.95835570       1.34141879       5.79839991       32       0.00772013       0.01302011      -0.01536797
O        3.52254647      -1.00777810       5.78941925       33       0.00383678       0.01164714       0.01774602
O        2.12432446      -0.00518499       3.44996245       34      -0.00970210       0.01911837      -0.00237806
O        0.95835570      -2.16069821       7.21743351       35       0.00772013      -0.01981910      -0.00359176
O       -0.71299661       1.98720313       3.45798810       36       0.02125900      -0.00067224      -0.00359176
O       -0.95835570      -0.81927942       5.49694262       37      -0.00772013      -0.00679899      -0.01895973
O       -0.45297215       5.34881173       1.72947155       38      -0.00383678      -0.01164714      -0.01774602
O        4.01482417       5.15567945       5.48891696       39       0.00970210       0.00749973      -0.01774602
40