40
Lattice="9.609597187888557 7.531646417646712e-10 8.881784197001263e-15 -3.203199063339611 9.060015114451852 -1.3045511337850274e-09 -3.2031990622744826 -4.530007556472736 7.846203248655974" Properties=species:S:1:pos:R:3:spacegroup_kinds:I:1:forces:R:3 spacegroup="P 1" unit_cell=conventional occupancy="_JSON {\"0\": {\"In\": 1}, \"1\": {\"In\": 1}, \"2\": {\"In\": 1}, \"3\": {\"In\": 1}, \"4\": {\"In\": 1}, \"5\": {\"In\": 1}, \"6\": {\"In\": 1}, \"7\": {\"In\": 1}, \"8\": {\"In\": 1}, \"9\": {\"In\": 1}, \"10\": {\"In\": 1}, \"11\": {\"In\": 1}, \"12\": {\"In\": 1}, \"13\": {\"In\": 1}, \"14\": {\"In\": 1}, \"15\": {\"In\": 1}, \"16\": {\"O\": 1}, \"17\": {\"O\": 1}, \"18\": {\"O\": 1}, \"19\": {\"O\": 1}, \"20\": {\"O\": 1}, \"21\": {\"O\": 1}, \"22\": {\"O\": 1}, \"23\": {\"O\": 1}, \"24\": {\"O\": 1}, \"25\": {\"O\": 1}, \"26\": {\"O\": 1}, \"27\": {\"O\": 1}, \"28\": {\"O\": 1}, \"29\": {\"O\": 1}, \"30\": {\"O\": 1}, \"31\": {\"O\": 1}, \"32\": {\"O\": 1}, \"33\": {\"O\": 1}, \"34\": {\"O\": 1}, \"35\": {\"O\": 1}, \"36\": {\"O\": 1}, \"37\": {\"O\": 1}, \"38\": {\"O\": 1}, \"39\": {\"O\": 1}}" n_minim_iter=5 energy=-45144.08916087485 stress="0.10950067037180979 -7.064463487947594e-13 9.850964803842142e-14 -7.064463487947594e-13 0.10950067037133325 -1.6096602445307682e-13 9.850964803842142e-14 -1.6096602445307682e-13 0.10950067037107294" free_energy=-45144.08916087485 pbc="T T T"
In      -4.51799290       3.19470342       6.23591624        0       0.00145310      -0.00102749       0.00177967
In       7.72119196       1.33530414       1.61028701        1      -0.00145310       0.00102749      -0.00177967
In       1.31479384      -0.92969964       5.53338863        2      -0.00145310       0.00102749      -0.00177967
In      -1.60159953      -2.26500378       3.92310162        3      -0.00000000       0.00000000       0.00000000
In      -1.31479384       4.32720531       3.57183782        4       0.00145310      -0.00102749      -0.00177967
In       5.09160429      -2.99190116       5.88465243        5       0.00145310       0.00205499      -0.00000000
In      -1.31479384       1.53810639       5.88465243        6       0.00145310       0.00205499       0.00000000
In      -1.88840523       7.52190873       1.96155081        7      -0.00145310      -0.00205499      -0.00000000
In       4.51799290       0.20280225       4.27436542        8      -0.00145310       0.00102749       0.00177967
In      -1.60159953       4.53000756      -0.00000000        9      -0.00000000      -0.00000000       0.00000000
In       4.51799290       6.99781359       0.35126380       10      -0.00145310       0.00102749       0.00177967
In      -1.31479384      -2.46780603       7.49493944       11       0.00145310      -0.00102749      -0.00177967
In       4.51799290       2.99190117       1.96155081       12      -0.00145310      -0.00205499      -0.00000000
In       1.88840522       5.45970720       2.31281461       13       0.00145310      -0.00102749       0.00177967
In       4.80479859       0.00000000      -0.00000000       14       0.00000000       0.00000000      -0.00000000
In       1.60159953       2.26500378       3.92310162       15       0.00000000      -0.00000000       0.00000000
O        1.05294327       4.53663348       4.21264993       16      -0.00049826       0.00143367       0.00729830
O       -2.15025579       3.64494890       5.73414007       17      -0.00049826       0.00560367      -0.00489074
O       -0.47721324       2.46192917      -0.06301290       18       0.00646879       0.00067723       0.00364211
O       -1.05294328      -0.87843274       2.10058675       19       0.00049826       0.00703735       0.00240755
O        4.15324270       5.37205979       2.16359965       20       0.00544928      -0.00493457      -0.00123456
O        2.25315542       3.07730141       1.81103844       21      -0.00544928      -0.00139812      -0.00489074
O        2.25315542       6.82476593       0.35256120       22      -0.00544928      -0.00353645       0.00365618
O       -2.48020016       6.42428924       3.86008872       23       0.00151777      -0.00632457       0.00364211
O        3.68041230       2.06807839       7.90921614       24      -0.00646879      -0.00067723      -0.00364211
O        5.68339922      -1.89428168       3.98611452       25      -0.00151777       0.00632457      -0.00364211
O        6.88361136       3.44139759       1.75950197       26      -0.00646879       0.00349278       0.00123456
O        3.92619797       2.39579406       4.27566282       27       0.00151777       0.00631645       0.00365618
O        0.72299890       4.76993938       7.55665494       28       0.00151777       0.00000812      -0.00729830
O        2.48020016      -0.23993182       0.28954830       29      -0.00151777      -0.00000812       0.00729830
O       -3.68041230       1.08860997       6.08670127       30       0.00646879      -0.00349278      -0.00123456
O        5.35345485       0.88505866       2.11206318       31       0.00049826      -0.00560367       0.00489074
O        0.95004364       1.45270615       6.03516480       32       0.00544928       0.00139812       0.00489074
O        3.68041230      -0.97946842       6.02368837       33      -0.00646879      -0.00281555       0.00240755
O        2.15025579      -0.00662592       3.63355332       34       0.00049826      -0.00143367      -0.00729830
O        0.95004364      -2.29475837       7.49364204       35       0.00544928       0.00353645      -0.00365618
O       -0.72299891       2.13421350       3.57054042       36      -0.00151777      -0.00631645      -0.00365618
O       -0.95004365      -0.84205223       5.68260360       37      -0.00544928       0.00493457       0.00123456
O       -0.47721324       5.50947599       1.82251487       38       0.00646879       0.00281555      -0.00240755
O        4.25614233       5.40844030       5.74561649       39      -0.00049826      -0.00703735      -0.00240755
