40
Lattice="9.413427915607729 7.377911614980793e-10 1.6875389974302364e-14 -3.1378093058981733 8.875064950870026 -1.277912442532168e-09 -3.1378093048547924 -4.4375324746972105 7.686031708542268" Properties=species:S:1:pos:R:3:spacegroup_kinds:I:1:forces:R:3 spacegroup="P 1" unit_cell=conventional occupancy="_JSON {\"0\": {\"In\": 1}, \"1\": {\"In\": 1}, \"2\": {\"In\": 1}, \"3\": {\"In\": 1}, \"4\": {\"In\": 1}, \"5\": {\"In\": 1}, \"6\": {\"In\": 1}, \"7\": {\"In\": 1}, \"8\": {\"In\": 1}, \"9\": {\"In\": 1}, \"10\": {\"In\": 1}, \"11\": {\"In\": 1}, \"12\": {\"In\": 1}, \"13\": {\"In\": 1}, \"14\": {\"In\": 1}, \"15\": {\"In\": 1}, \"16\": {\"O\": 1}, \"17\": {\"O\": 1}, \"18\": {\"O\": 1}, \"19\": {\"O\": 1}, \"20\": {\"O\": 1}, \"21\": {\"O\": 1}, \"22\": {\"O\": 1}, \"23\": {\"O\": 1}, \"24\": {\"O\": 1}, \"25\": {\"O\": 1}, \"26\": {\"O\": 1}, \"27\": {\"O\": 1}, \"28\": {\"O\": 1}, \"29\": {\"O\": 1}, \"30\": {\"O\": 1}, \"31\": {\"O\": 1}, \"32\": {\"O\": 1}, \"33\": {\"O\": 1}, \"34\": {\"O\": 1}, \"35\": {\"O\": 1}, \"36\": {\"O\": 1}, \"37\": {\"O\": 1}, \"38\": {\"O\": 1}, \"39\": {\"O\": 1}}" n_minim_iter=7 energy=-45147.913606407725 stress="0.07894628140449492 -1.7133870055088337e-13 7.109208099105762e-14 -1.7133870055088337e-13 0.078946281405775 1.2557329390083616e-14 7.109208099105762e-14 1.2557329390083616e-14 0.0789462814046803" free_energy=-45147.913606407725 pbc="T T T"
In      -4.44768111       3.14498547       6.08177294        0      -0.00431752       0.00305295      -0.00528786
In       7.58549041       1.29254701       1.60425876        1       0.00431752      -0.00305295       0.00528786
In       1.30987180      -0.92621923       5.44727462        2       0.00431752      -0.00305295       0.00528786
In      -1.56890465      -2.21876624       3.84301585        3       0.00000000       0.00000000      -0.00000000
In      -1.30987180       4.25436859       3.52576669        4      -0.00431752       0.00305295       0.00528786
In       4.96574681      -2.96182158       5.76452378        5      -0.00431752      -0.00610590       0.00000000
In      -1.30987180       1.47571090       5.76452378        6      -0.00431752      -0.00610590      -0.00000000
In      -1.82793751       7.39935406       1.92150792        7       0.00431752       0.00610590       0.00000000
In       4.44768110       0.18316389       4.16026501        8       0.00431752      -0.00305295      -0.00528786
In      -1.56890465       4.43753248      -0.00000000        9      -0.00000000      -0.00000000       0.00000000
In       4.44768110       6.83946260       0.31724916       10       0.00431752      -0.00305295      -0.00528786
In      -1.30987180      -2.40193012       7.36878255       11      -0.00431752       0.00305295       0.00528786
In       4.44768110       2.96182158       1.92150792       12       0.00431752       0.00610590      -0.00000000
In       1.82793750       5.36375171       2.23875708       13      -0.00431752       0.00305295      -0.00528786
In       4.70671396       0.00000000      -0.00000000       14      -0.00000000      -0.00000000      -0.00000000
In       1.56890465       2.21876624       3.84301585       15       0.00000000      -0.00000000       0.00000000
O        1.00128809       4.44321866       4.14158868       16       0.00231816      -0.00401976      -0.00328897
O       -2.13652122       3.58387792       5.61031298       17       0.00231816      -0.00083845       0.00512570
O       -0.46570955       2.40243566      -0.02940071       18      -0.00380764       0.00349315      -0.00237685
O       -1.00128809      -0.84796837       2.06586996       19      -0.00231816      -0.00485821       0.00183673
O        4.09108624       5.26852635       2.09527066       20      -0.00156322       0.00348594       0.00421358
O        2.18453236       3.03847179       1.76729713       21       0.00156322      -0.00190610       0.00512570
O        2.18453236       6.66758704       0.32797353       22       0.00156322       0.00539203      -0.00091212
O       -2.42027458       6.29456200       3.81361515       23      -0.00456259       0.00242550      -0.00237685
O        3.60351886       2.03509682       7.71543241       24       0.00380764      -0.00349315       0.00237685
O        5.55808389      -1.85702952       3.87241656       25       0.00456259      -0.00242550       0.00237685
O        6.74132816       3.39452231       1.74774518       26       0.00380764      -0.00031183      -0.00421358
O        3.85534403       2.37417284       4.17098938       27      -0.00456259      -0.00327116      -0.00091212
O        0.71753472       4.64386259       7.38745888       28      -0.00456259       0.00084566       0.00328897
O        2.42027458      -0.20633011       0.29857283       29       0.00456259      -0.00084566      -0.00328897
O       -3.60351886       1.04301017       5.93828652       30      -0.00380764       0.00031183       0.00421358
O        5.27433052       0.85365456       2.07571872       31      -0.00231816       0.00083845      -0.00512570
O        0.95327694       1.39906069       5.91873457       32      -0.00156322       0.00190610      -0.00512570
O        3.60351886      -0.99208665       5.90888581       33       0.00380764       0.00380498       0.00183673
O        2.13652121      -0.00568618       3.54444302       34      -0.00231816       0.00401976       0.00328897
O        0.95327694      -2.23005456       7.35805817       35      -0.00156322      -0.00539203       0.00091212
O       -0.71753473       2.06335964       3.51504232       36       0.00456259       0.00327116       0.00091212
O       -0.95327694      -0.83099387       5.59076104       37       0.00156322      -0.00348594      -0.00421358
O       -0.46570955       5.42961913       1.77714589       38      -0.00380764      -0.00380498      -0.00183673
O        4.13909739       5.28550085       5.62016174       39       0.00231816       0.00485821      -0.00183673
