40
Lattice="8.76953126672476 6.873284164043972e-10 1.0658141036401467e-14 -2.923177089556273 8.267993368475592 -1.190497034286864e-09 -2.92317708858425 -4.133996683550463 7.160292296214806" Properties=species:S:1:pos:R:3:spacegroup_kinds:I:1:forces:R:3 spacegroup="P 1" unit_cell=conventional occupancy="_JSON {\"0\": {\"In\": 1}, \"1\": {\"In\": 1}, \"2\": {\"In\": 1}, \"3\": {\"In\": 1}, \"4\": {\"In\": 1}, \"5\": {\"In\": 1}, \"6\": {\"In\": 1}, \"7\": {\"In\": 1}, \"8\": {\"In\": 1}, \"9\": {\"In\": 1}, \"10\": {\"In\": 1}, \"11\": {\"In\": 1}, \"12\": {\"In\": 1}, \"13\": {\"In\": 1}, \"14\": {\"In\": 1}, \"15\": {\"In\": 1}, \"16\": {\"O\": 1}, \"17\": {\"O\": 1}, \"18\": {\"O\": 1}, \"19\": {\"O\": 1}, \"20\": {\"O\": 1}, \"21\": {\"O\": 1}, \"22\": {\"O\": 1}, \"23\": {\"O\": 1}, \"24\": {\"O\": 1}, \"25\": {\"O\": 1}, \"26\": {\"O\": 1}, \"27\": {\"O\": 1}, \"28\": {\"O\": 1}, \"29\": {\"O\": 1}, \"30\": {\"O\": 1}, \"31\": {\"O\": 1}, \"32\": {\"O\": 1}, \"33\": {\"O\": 1}, \"34\": {\"O\": 1}, \"35\": {\"O\": 1}, \"36\": {\"O\": 1}, \"37\": {\"O\": 1}, \"38\": {\"O\": 1}, \"39\": {\"O\": 1}}" n_minim_iter=5 energy=-45151.503327661645 stress="-0.030785289272246257 2.7448747746725296e-13 9.321423721414482e-13 2.7448747746725296e-13 -0.030785289272962025 9.607072403699323e-14 9.321423721414482e-13 9.607072403699323e-14 -0.030785289271649932" free_energy=-45151.503327661645 pbc="T T T"
In      -4.18596784       2.95992625       5.61369580        0      -0.00212966       0.00150590      -0.00260829
In       7.10914493       1.17407044       1.54659649        1       0.00212966      -0.00150590       0.00260829
In       1.26279075      -0.89292790       5.12674264        2       0.00212966      -0.00150590       0.00260829
In      -1.46158855      -2.06699834       3.58014615        3      -0.00000000      -0.00000000       0.00000000
In      -1.26279075       3.99342542       3.33666956        4      -0.00212966       0.00150590       0.00260829
In       4.58356343      -2.81935497       5.37021922        5      -0.00212966      -0.00301179      -0.00000000
In      -1.26279075       1.31464171       5.37021922        6      -0.00212966      -0.00301179      -0.00000000
In      -1.66038634       6.95335166       1.79007307        7       0.00212966       0.00301179       0.00000000
In       4.18596784       0.14057127       3.82362273        8       0.00212966      -0.00150590      -0.00260829
In      -1.46158855       4.13399669      -0.00000000        9       0.00000000      -0.00000000       0.00000000
In       4.18596784       6.34156630       0.24347658       10       0.00212966      -0.00150590      -0.00260829
In      -1.26279075      -2.20756961       6.91681571       11      -0.00212966       0.00150590       0.00260829
In       4.18596784       2.81935498       1.79007307       12       0.00212966       0.00301179      -0.00000000
In       1.66038634       5.02692459       2.03354965       13      -0.00212966       0.00150590      -0.00260829
In       4.38476563       0.00000000      -0.00000000       14      -0.00000000       0.00000000       0.00000000
In       1.46158854       2.06699834       3.58014615       15       0.00000000      -0.00000000       0.00000000
O        0.85077890       4.13112706       3.91290852       16      -0.00401293       0.00831222      -0.00078336
O       -2.07239819       3.39011299       5.20632320       17      -0.00401293      -0.00483452      -0.00680692
O       -0.42045281       2.22201122       0.06924253       18       0.00194117      -0.00904470       0.00048533
O       -0.85077890      -0.74675332       1.95893943       19       0.00401293       0.00347770      -0.00759027
O        3.88702857       4.92072720       1.88969689       20      -0.00322038      -0.00319750      -0.00807560
O        1.95932560       2.89083643       1.62617706       21       0.00322038       0.00539493      -0.00680692
O        1.95932560       6.16388746       0.26351983       22       0.00322038      -0.00859243      -0.00126869
O       -2.23508321       5.85673134       3.64938868       23       0.00917448       0.00118475       0.00048533
O        3.34362990       1.91198547       7.09104976       24      -0.00194117       0.00904470      -0.00048533
O        5.15826029      -1.72273465       3.51090361       25      -0.00917448      -0.00118475      -0.00048533
O        6.26680699       3.23796975       1.69044925       26      -0.00194117      -0.00410204       0.00807560
O        3.61127097       2.29909598       3.84366598       27       0.00917448      -0.00017206      -0.00126869
O        0.68809388       4.24616274       6.82752992       28       0.00917448      -0.00101268       0.00078336
O        2.23508320      -0.11216605       0.33276237       29      -0.00917448       0.00101268      -0.00078336
O       -3.34362990       0.89602694       5.46984304       30       0.00194117       0.00410204      -0.00807560
O        4.99557527       0.74388369       1.95396909       31       0.00401293       0.00483452       0.00680692
O        0.96385149       1.24316026       5.53411524       32      -0.00322038      -0.00539493       0.00680692
O        3.34362990      -1.01595852       5.53908557       33      -0.00194117      -0.00494266      -0.00759027
O        2.07239818       0.00286963       3.24738378       34       0.00401293      -0.00831222       0.00078336
O        0.96385149      -2.02989077       6.89677246       35      -0.00322038       0.00859243       0.00126869
O       -0.68809389       1.83490070       3.31662631       36      -0.00917448       0.00017206       0.00126869
O       -0.96385149      -0.78673051       5.27059540       37       0.00322038       0.00319750       0.00807560
O       -0.42045281       5.14995521       1.62120672       38       0.00194117       0.00494266       0.00759027
O        3.77395599       4.88075001       5.20135286       39      -0.00401293      -0.00347770       0.00759027
