40
Lattice="9.138424620302835 7.162368476087977e-10 1.1102230246251565e-14 -3.046141540776221 8.615789357598901 -1.240580527195334e-09 -3.046141539763316 -4.307894678083198 7.4614924581633035" Properties=species:S:1:pos:R:3:spacegroup_kinds:I:1:forces:R:3 spacegroup="P 1" unit_cell=conventional occupancy="_JSON {\"0\": {\"In\": 1}, \"1\": {\"In\": 1}, \"2\": {\"In\": 1}, \"3\": {\"In\": 1}, \"4\": {\"In\": 1}, \"5\": {\"In\": 1}, \"6\": {\"In\": 1}, \"7\": {\"In\": 1}, \"8\": {\"In\": 1}, \"9\": {\"In\": 1}, \"10\": {\"In\": 1}, \"11\": {\"In\": 1}, \"12\": {\"In\": 1}, \"13\": {\"In\": 1}, \"14\": {\"In\": 1}, \"15\": {\"In\": 1}, \"16\": {\"O\": 1}, \"17\": {\"O\": 1}, \"18\": {\"O\": 1}, \"19\": {\"O\": 1}, \"20\": {\"O\": 1}, \"21\": {\"O\": 1}, \"22\": {\"O\": 1}, \"23\": {\"O\": 1}, \"24\": {\"O\": 1}, \"25\": {\"O\": 1}, \"26\": {\"O\": 1}, \"27\": {\"O\": 1}, \"28\": {\"O\": 1}, \"29\": {\"O\": 1}, \"30\": {\"O\": 1}, \"31\": {\"O\": 1}, \"32\": {\"O\": 1}, \"33\": {\"O\": 1}, \"34\": {\"O\": 1}, \"35\": {\"O\": 1}, \"36\": {\"O\": 1}, \"37\": {\"O\": 1}, \"38\": {\"O\": 1}, \"39\": {\"O\": 1}}" n_minim_iter=1 energy=-45151.09349103271 stress="0.03963163016014964 -1.959781998046923e-13 5.6293846187098055e-14 -1.959781998046923e-13 0.03963163015990366 1.873716275726506e-13 5.6293846187098055e-14 1.873716275726506e-13 0.039631630159691365" free_energy=-45151.09349103271 pbc="T T T"
In      -4.35444625       3.07905847       5.85915297        0       0.05861723      -0.04144864       0.07179116
In       7.40058779       1.22883621       1.60233948        1      -0.05861723       0.04144864      -0.07179116
In       1.30830471      -0.92511113       5.33308571        2      -0.05861723       0.04144864      -0.07179116
In      -1.52307077      -2.15394734       3.73074623        3       0.00000000      -0.00000000       0.00000000
In      -1.30830471       4.15603214       3.46771259        4       0.05861723      -0.04144864      -0.07179116
In       4.78397837      -2.92719593       5.59611934        5       0.05861723       0.08289729      -0.00000000
In      -1.30830471       1.38069875       5.59611934        6       0.05861723       0.08289729       0.00000000
In      -1.73783683       7.23509061       1.86537311        7      -0.05861723      -0.08289729       0.00000000
In       4.35444625       0.15186254       3.99377986        8      -0.05861723       0.04144864       0.07179116
In      -1.52307077       4.30789468      -0.00000000        9      -0.00000000       0.00000000      -0.00000000
In       4.35444625       6.61370456       0.26303363       10      -0.05861723       0.04144864       0.07179116
In      -1.30830471      -2.30580987       7.19845882       11       0.05861723      -0.04144864      -0.07179116
In       4.35444625       2.92719594       1.86537311       12      -0.05861723      -0.08289729       0.00000000
In       1.73783683       5.23300581       2.12840674       13       0.05861723      -0.04144864       0.07179116
In       4.56921231       0.00000000      -0.00000000       14      -0.00000000      -0.00000000      -0.00000000
In       1.52307077       2.15394734       3.73074623       15      -0.00000000      -0.00000000      -0.00000000
O        0.91907701       4.31104874       4.04661762       16       0.01238407      -0.00946375      -0.06217544
O       -2.12706453       3.50289664       5.43545215       17       0.01238407      -0.04911364       0.03928357
O       -0.44962676       2.31676901       0.02839300       18      -0.05109927      -0.00422414      -0.03846732
O       -0.91907701      -0.80184399       2.02057732       19      -0.01238407      -0.05857739      -0.02289187
O        4.01158413       5.12613138       1.99218431       20      -0.05043280       0.03636827       0.01557545
O        2.08069895       2.99173080       1.70470592       21       0.05043280       0.00469540       0.03928357
O        2.08069895       6.44229526       0.28747839       22       0.05043280       0.03167287      -0.02370812
O       -2.33414636       6.11349786       3.75913923       23      -0.01305053       0.04958490      -0.03846732
O        3.49576830       1.99112567       7.43309945       24       0.05109927       0.00422414       0.03846732
O        5.38028790      -1.80560317       3.70235322       25       0.01305053      -0.04958490       0.03846732
O        6.54190984       3.33692091       1.73856191       26       0.05109927      -0.03542575      -0.01557545
O        3.75813672       2.35270849       4.01822462       27      -0.01305053      -0.05810613      -0.02370812
O        0.71199518       4.45747770       7.14562106       28      -0.01305053       0.00852123       0.06217544
O        2.33414636      -0.14958302       0.31587139       29       0.01305053      -0.00852123      -0.06217544
O       -3.49576830       0.97097377       5.72293054       30      -0.05109927       0.03542575       0.01557545
O        5.17320607       0.80499805       2.02604030       31      -0.01238407       0.04911364      -0.03928357
O        0.96544259       1.31616388       5.75678653       32      -0.05043280      -0.00469540      -0.03928357
O        3.49576830      -1.02015189       5.75132355       33       0.05109927       0.03120161      -0.02289187
O        2.12706453      -0.00315405       3.41487483       34      -0.01238407       0.00946375       0.06217544
O        0.96544259      -2.13440057       7.17401406       35      -0.05043280      -0.03167287       0.02370812
O       -0.71199518       1.95518620       3.44326783       36       0.01305053       0.05810613       0.02370812
O       -0.96544259      -0.81823669       5.46930814       37       0.05043280      -0.03636827      -0.01557545
O       -0.44962676       5.32804658       1.71016891       38      -0.05109927      -0.03120161       0.02289187
O        3.96521855       5.10973867       5.44091513       39       0.01238407       0.05857739       0.02289187
40
Lattice="9.138424620302837 7.16236847608798e-10 1.110223024625157e-14 -3.0461415407762225 8.615789357598903 -1.2405805271953343e-09 -3.046141539763317 -4.307894678083199 7.461492458163306" Properties=species:S:1:pos:R:3:spacegroup_kinds:I:1:forces:R:3 spacegroup="P 1" unit_cell=conventional occupancy="_JSON {\"0\": {\"In\": 1}, \"1\": {\"In\": 1}, \"2\": {\"In\": 1}, \"3\": {\"In\": 1}, \"4\": {\"In\": 1}, \"5\": {\"In\": 1}, \"6\": {\"In\": 1}, \"7\": {\"In\": 1}, \"8\": {\"In\": 1}, \"9\": {\"In\": 1}, \"10\": {\"In\": 1}, \"11\": {\"In\": 1}, \"12\": {\"In\": 1}, \"13\": {\"In\": 1}, \"14\": {\"In\": 1}, \"15\": {\"In\": 1}, \"16\": {\"O\": 1}, \"17\": {\"O\": 1}, \"18\": {\"O\": 1}, \"19\": {\"O\": 1}, \"20\": {\"O\": 1}, \"21\": {\"O\": 1}, \"22\": {\"O\": 1}, \"23\": {\"O\": 1}, \"24\": {\"O\": 1}, \"25\": {\"O\": 1}, \"26\": {\"O\": 1}, \"27\": {\"O\": 1}, \"28\": {\"O\": 1}, \"29\": {\"O\": 1}, \"30\": {\"O\": 1}, \"31\": {\"O\": 1}, \"32\": {\"O\": 1}, \"33\": {\"O\": 1}, \"34\": {\"O\": 1}, \"35\": {\"O\": 1}, \"36\": {\"O\": 1}, \"37\": {\"O\": 1}, \"38\": {\"O\": 1}, \"39\": {\"O\": 1}}" n_minim_iter=2 energy=-45151.10315029387 stress="0.03857269227320041 3.7877913316092346e-13 1.3472001199966994e-13 3.7877913316092346e-13 0.038572692272869046 -7.631676000575515e-14 1.3472001199966994e-13 -7.631676000575515e-14 0.03857269227272204" free_energy=-45151.10315029387 pbc="T T T"
In      -4.35025931       3.07609786       5.86428091        0       0.01743720      -0.01232996       0.02135612
In       7.39640084       1.23179683       1.59721154        1      -0.01743720       0.01232996      -0.02135612
In       1.30411776      -0.92215051       5.32795777        2      -0.01743720       0.01232996      -0.02135612
In      -1.52307077      -2.15394734       3.73074623        3      -0.00000000       0.00000000      -0.00000000
In      -1.30411777       4.15307153       3.46258466        4       0.01743720      -0.01232996      -0.02135612
In       4.78816531      -2.92127470       5.59611934        5       0.01743720       0.02465992      -0.00000000
In      -1.30411777       1.38661998       5.59611934        6       0.01743720       0.02465992       0.00000000
In      -1.74202378       7.22916938       1.86537311        7      -0.01743720      -0.02465992       0.00000000
In       4.35025930       0.15482316       3.99890780        8      -0.01743720       0.01232996       0.02135612
In      -1.52307077       4.30789468      -0.00000000        9      -0.00000000      -0.00000000       0.00000000
In       4.35025930       6.61666518       0.26816157       10      -0.01743720       0.01232996       0.02135612
In      -1.30411777      -2.30877049       7.19333089       11       0.01743720      -0.01232996      -0.02135612
In       4.35025930       2.92127470       1.86537311       12      -0.01743720      -0.02465992       0.00000000
In       1.74202377       5.23004520       2.13353468       13       0.01743720      -0.01232996       0.02135612
In       4.56921231       0.00000000      -0.00000000       14       0.00000000      -0.00000000       0.00000000
In       1.52307077       2.15394734       3.73074623       15       0.00000000      -0.00000000       0.00000000
O        0.91996158       4.31037275       4.04217652       16       0.02014749       0.01040286      -0.00531845
O       -2.12617996       3.49938852       5.43825812       17       0.02014749      -0.00980735      -0.00634992
O       -0.45327671       2.31646729       0.02564534       18       0.00727729      -0.00070674      -0.02211263
O       -0.91996159      -0.80602809       2.01894218       19      -0.02014749       0.00059551      -0.01166837
O        4.00798178       5.12872911       1.99329685       20      -0.01596229      -0.01336225       0.01044426
O        2.08430129       2.99206619       1.70751189       21       0.01596229      -0.01572612      -0.00634992
O        2.08430129       6.44455760       0.28578495       22       0.01596229       0.00236387       0.01679417
O       -2.33507854       6.11703964       3.75639156       23       0.00309208      -0.00662551      -0.02211263
O        3.49941824       1.99142740       7.43584712       24      -0.00727729       0.00070674       0.02211263
O        5.38122008      -1.80914495       3.70510089       25      -0.00309208       0.00662551       0.02211263
O        6.54555978       3.33439050       1.73744938       26      -0.00727729      -0.01950347      -0.01044426
O        3.75720454       2.34855805       4.01653118       27       0.00309208      -0.01583734       0.01679417
O        0.71106300       4.45808636       7.15006216       28       0.00309208       0.02246285       0.00531845
O        2.33507854      -0.15019168       0.31143029       29      -0.00309208      -0.02246285      -0.00531845
O       -3.49941825       0.97350418       5.72404307       30       0.00727729       0.01950347       0.01044426
O        5.17232149       0.80850616       2.02323433       31      -0.02014749       0.00980735       0.00634992
O        0.96184024       1.31582850       5.75398056       32      -0.01596229       0.01572612       0.00634992
O        3.49941825      -1.01792321       5.74968841       33      -0.00727729       0.01879673      -0.01166837
O        2.12617995      -0.00247807       3.41931593       34      -0.02014749      -0.01040286       0.00531845
O        0.96184025      -2.13666292       7.17570750       35      -0.01596229      -0.00236387      -0.01679417
O       -0.71106300       1.95933663       3.44496127       36      -0.00309208       0.01583734      -0.01679417
O       -0.96184025      -0.82083443       5.46819561       37       0.01596229       0.01336225      -0.01044426
O       -0.45327671       5.32581789       1.71180404       38       0.00727729      -0.01879673       0.01166837
O        3.96610312       5.11392277       5.44255027       39       0.02014749      -0.00059551       0.01166837
40
Lattice="9.138424620302837 7.16236847608798e-10 1.110223024625157e-14 -3.0461415407762225 8.615789357598903 -1.2405805271953343e-09 -3.046141539763317 -4.307894678083199 7.461492458163306" Properties=species:S:1:pos:R:3:spacegroup_kinds:I:1:forces:R:3 spacegroup="P 1" unit_cell=conventional occupancy="_JSON {\"0\": {\"In\": 1}, \"1\": {\"In\": 1}, \"2\": {\"In\": 1}, \"3\": {\"In\": 1}, \"4\": {\"In\": 1}, \"5\": {\"In\": 1}, \"6\": {\"In\": 1}, \"7\": {\"In\": 1}, \"8\": {\"In\": 1}, \"9\": {\"In\": 1}, \"10\": {\"In\": 1}, \"11\": {\"In\": 1}, \"12\": {\"In\": 1}, \"13\": {\"In\": 1}, \"14\": {\"In\": 1}, \"15\": {\"In\": 1}, \"16\": {\"O\": 1}, \"17\": {\"O\": 1}, \"18\": {\"O\": 1}, \"19\": {\"O\": 1}, \"20\": {\"O\": 1}, \"21\": {\"O\": 1}, \"22\": {\"O\": 1}, \"23\": {\"O\": 1}, \"24\": {\"O\": 1}, \"25\": {\"O\": 1}, \"26\": {\"O\": 1}, \"27\": {\"O\": 1}, \"28\": {\"O\": 1}, \"29\": {\"O\": 1}, \"30\": {\"O\": 1}, \"31\": {\"O\": 1}, \"32\": {\"O\": 1}, \"33\": {\"O\": 1}, \"34\": {\"O\": 1}, \"35\": {\"O\": 1}, \"36\": {\"O\": 1}, \"37\": {\"O\": 1}, \"38\": {\"O\": 1}, \"39\": {\"O\": 1}}" n_minim_iter=3 energy=-45151.103930129844 stress="0.03823927453948994 1.0454107081457844e-13 -2.293373130841317e-13 1.0454107081457844e-13 0.038239274539846456 4.76425232566999e-13 -2.293373130841317e-13 4.76425232566999e-13 0.03823927453900188" free_energy=-45151.103930129844 pbc="T T T"
In      -4.34892704       3.07515580       5.86591260        0       0.00536730      -0.00379525       0.00657357
In       7.39506858       1.23273888       1.59557985        1      -0.00536730       0.00379525      -0.00657357
In       1.30278550      -0.92120846       5.32632608        2      -0.00536730       0.00379525      -0.00657357
In      -1.52307077      -2.15394734       3.73074623        3      -0.00000000       0.00000000      -0.00000000
In      -1.30278550       4.15212947       3.46095297        4       0.00536730      -0.00379525      -0.00657357
In       4.78949758      -2.91939059       5.59611934        5       0.00536730       0.00759050       0.00000000
In      -1.30278550       1.38850409       5.59611934        6       0.00536730       0.00759050      -0.00000000
In      -1.74335604       7.22728527       1.86537311        7      -0.00536730      -0.00759050      -0.00000000
In       4.34892704       0.15576521       4.00053948        8      -0.00536730       0.00379525       0.00657357
In      -1.52307077       4.30789468      -0.00000000        9       0.00000000       0.00000000      -0.00000000
In       4.34892704       6.61760723       0.26979325       10      -0.00536730       0.00379525       0.00657357
In      -1.30278550      -2.30971255       7.19169920       11       0.00536730      -0.00379525      -0.00657357
In       4.34892704       2.91939059       1.86537311       12      -0.00536730      -0.00759050       0.00000000
In       1.74335604       5.22910314       2.13516637       13       0.00536730      -0.00379525       0.00657357
In       4.56921231       0.00000000      -0.00000000       14       0.00000000      -0.00000000      -0.00000000
In       1.52307077       2.15394734       3.73074623       15      -0.00000000       0.00000000      -0.00000000
O        0.92054363       4.31039899       4.04100396       16       0.02159649       0.01255771       0.01002579
O       -2.12559791       3.49835994       5.43882168       17       0.02159649       0.00240373      -0.01588819
O       -0.45402772       2.31638132       0.02457624       18       0.02130462       0.00261012      -0.01624567
O       -0.92054363      -0.80703044       2.01833319       19      -0.02159649       0.01496144      -0.00586241
O        4.00681801       5.12911422       1.99375694       20      -0.00493257      -0.02434088       0.01038326
O        2.08546506       2.99186029       1.70807545       21       0.00493257      -0.02116261      -0.01588819
O        2.08546506       6.44514861       0.28568148       22       0.00493257      -0.00317827       0.02627145
O       -2.33524782       6.11777635       3.75532247       23       0.00464070      -0.02095622      -0.01624567
O        3.50016925       1.99151336       7.43691621       24      -0.02130462      -0.00261012       0.01624567
O        5.38138936      -1.80988167       3.70616998       25      -0.00464070       0.02095622       0.01624567
O        6.54631079       3.33342166       1.73698928       26      -0.02130462      -0.01276410      -0.01038326
O        3.75703526       2.34726383       4.01642771       27       0.00464070      -0.00359105       0.02627145
O        0.71089372       4.45864386       7.15123472       28       0.00464070       0.02454727      -0.01002579
O        2.33524782      -0.15074918       0.31025773       29      -0.00464070      -0.02454727       0.01002579
O       -3.50016926       0.97447303       5.72450317       30       0.02130462       0.01276410       0.01038326
O        5.17173945       0.80953474       2.02267077       31      -0.02159649      -0.00240373       0.01588819
O        0.96067647       1.31603439       5.75341700       32      -0.00493257       0.02116261       0.01588819
O        3.50016925      -1.01704033       5.74907942       33      -0.02130462       0.01537422      -0.00586241
O        2.12559791      -0.00250430       3.42048849       34      -0.02159649      -0.01255771      -0.01002579
O        0.96067647      -2.13725393       7.17581097       35      -0.00493257       0.00317827      -0.02627145
O       -0.71089372       1.96063085       3.44506474       36      -0.00464070       0.00359105      -0.02627145
O       -0.96067648      -0.82121954       5.46773551       37       0.00493257       0.02434088      -0.01038326
O       -0.45402772       5.32493502       1.71241304       38       0.02130462      -0.01537422       0.00586241
O        3.96668517       5.11492512       5.44315926       39       0.02159649      -0.01496144       0.00586241
40
Lattice="9.138424620302839 7.162368476087984e-10 1.1102230246251578e-14 -3.0461415407762242 8.615789357598905 -1.240580527195335e-09 -3.046141539763319 -4.3078946780831995 7.4614924581633115" Properties=species:S:1:pos:R:3:spacegroup_kinds:I:1:forces:R:3 spacegroup="P 1" unit_cell=conventional occupancy="_JSON {\"0\": {\"In\": 1}, \"1\": {\"In\": 1}, \"2\": {\"In\": 1}, \"3\": {\"In\": 1}, \"4\": {\"In\": 1}, \"5\": {\"In\": 1}, \"6\": {\"In\": 1}, \"7\": {\"In\": 1}, \"8\": {\"In\": 1}, \"9\": {\"In\": 1}, \"10\": {\"In\": 1}, \"11\": {\"In\": 1}, \"12\": {\"In\": 1}, \"13\": {\"In\": 1}, \"14\": {\"In\": 1}, \"15\": {\"In\": 1}, \"16\": {\"O\": 1}, \"17\": {\"O\": 1}, \"18\": {\"O\": 1}, \"19\": {\"O\": 1}, \"20\": {\"O\": 1}, \"21\": {\"O\": 1}, \"22\": {\"O\": 1}, \"23\": {\"O\": 1}, \"24\": {\"O\": 1}, \"25\": {\"O\": 1}, \"26\": {\"O\": 1}, \"27\": {\"O\": 1}, \"28\": {\"O\": 1}, \"29\": {\"O\": 1}, \"30\": {\"O\": 1}, \"31\": {\"O\": 1}, \"32\": {\"O\": 1}, \"33\": {\"O\": 1}, \"34\": {\"O\": 1}, \"35\": {\"O\": 1}, \"36\": {\"O\": 1}, \"37\": {\"O\": 1}, \"38\": {\"O\": 1}, \"39\": {\"O\": 1}}" n_minim_iter=4 energy=-45151.10466222827 stress="0.03775572715267866 1.4615581862822223e-13 -4.556558438391019e-14 1.4615581862822223e-13 0.037755727151799645 -1.9463114331024728e-13 -4.556558438391019e-14 -1.9463114331024728e-13 0.037755727151913096" free_energy=-45151.10466222827 pbc="T T T"
In      -4.34696311       3.07376709       5.86831791        0      -0.01002867       0.00709134      -0.01228257
In       7.39310464       1.23412759       1.59317454        1       0.01002867      -0.00709134       0.01228257
In       1.30082156      -0.91981975       5.32392077        2       0.01002867      -0.00709134       0.01228257
In      -1.52307077      -2.15394734       3.73074623        3      -0.00000000      -0.00000000       0.00000000
In      -1.30082157       4.15074076       3.45854765        4      -0.01002867       0.00709134       0.01228257
In       4.79146151      -2.91661317       5.59611934        5      -0.01002867      -0.01418268       0.00000000
In      -1.30082157       1.39128151       5.59611934        6      -0.01002867      -0.01418268       0.00000000
In      -1.74531998       7.22450785       1.86537311        7       0.01002867       0.01418268      -0.00000000
In       4.34696310       0.15715392       4.00294480        8       0.01002867      -0.00709134      -0.01228257
In      -1.52307077       4.30789468      -0.00000000        9      -0.00000000      -0.00000000       0.00000000
In       4.34696310       6.61899594       0.27219857       10       0.01002867      -0.00709134      -0.01228257
In      -1.30082157      -2.31110126       7.18929388       11      -0.01002867       0.00709134       0.01228257
In       4.34696310       2.91661317       1.86537311       12       0.01002867       0.01418269      -0.00000000
In       1.74531997       5.22771443       2.13757168       13      -0.01002867       0.00709134      -0.01228257
In       4.56921231       0.00000000      -0.00000000       14      -0.00000000       0.00000000       0.00000000
In       1.52307077       2.15394734       3.73074623       15      -0.00000000       0.00000000       0.00000000
O        0.92261110       4.31120765       4.04019939       16       0.02057252       0.00365024       0.02279264
O       -2.12353044       3.49725883       5.43852364       17       0.02057252       0.01791388      -0.01455752
O       -0.45361428       2.31644978       0.02225244       18       0.02718836       0.01323578      -0.00645481
O       -0.92261110      -0.80732288       2.01723058       19      -0.02057252       0.02156412       0.00823512
O        4.00509072       5.12806501       1.99497813       20       0.01003186      -0.02529081       0.01468993
O        2.08719236       2.99027810       1.70777741       21      -0.01003186      -0.02536725      -0.01455752
O        2.08719236       6.44568159       0.28720072       22      -0.01003186       0.00007645       0.02924745
O       -2.33517456       6.11736374       3.75299867       23      -0.00341603      -0.03004536      -0.00645481
O        3.49975582       1.99144490       7.43924001       24      -0.02718836      -0.01323578       0.00645481
O        5.38131610      -1.80946905       3.70849379       25       0.00341603       0.03004536       0.00645481
O        6.54589736       3.33144341       1.73576809       26      -0.02718836       0.00102786      -0.01468993
O        3.75710852       2.34545766       4.01794695       27      -0.00341603       0.00943265       0.02924745
O        0.71096698       4.46086264       7.15203929       28      -0.00341603       0.02061271      -0.02279264
O        2.33517456      -0.15296796       0.30945316       29       0.00341603      -0.02061271       0.02279264
O       -3.49975582       0.97645127       5.72572436       30       0.02718836      -0.00102786       0.01468993
O        5.16967198       0.81063586       2.02296881       31      -0.02057252      -0.01791388       0.01455752
O        0.95894918       1.31761658       5.75371504       32       0.01003186       0.02536725       0.01455752
O        3.49975582      -1.01499363       5.74797680       33      -0.02718836       0.01220792       0.00823512
O        2.12353044      -0.00331297       3.42129306       34      -0.02057252      -0.00365024      -0.02279264
O        0.95894918      -2.13778691       7.17429173       35       0.01003186      -0.00007645      -0.02924745
O       -0.71096698       1.96243702       3.44354550       36       0.00341603      -0.00943265      -0.02924745
O       -0.95894918      -0.82017033       5.46651432       37      -0.01003186       0.02529081      -0.01468993
O       -0.45361428       5.32288831       1.71351565       38       0.02718836      -0.01220792      -0.00823512
O        3.96875264       5.11521756       5.44426188       39       0.02057252      -0.02156412      -0.00823512
40
Lattice="9.138424620302844 7.162368476087986e-10 1.1102230246251578e-14 -3.046141540776225 8.615789357598906 -1.2405805271953351e-09 -3.04614153976332 -4.3078946780832 7.461492458163313" Properties=species:S:1:pos:R:3:spacegroup_kinds:I:1:forces:R:3 spacegroup="P 1" unit_cell=conventional occupancy="_JSON {\"0\": {\"In\": 1}, \"1\": {\"In\": 1}, \"2\": {\"In\": 1}, \"3\": {\"In\": 1}, \"4\": {\"In\": 1}, \"5\": {\"In\": 1}, \"6\": {\"In\": 1}, \"7\": {\"In\": 1}, \"8\": {\"In\": 1}, \"9\": {\"In\": 1}, \"10\": {\"In\": 1}, \"11\": {\"In\": 1}, \"12\": {\"In\": 1}, \"13\": {\"In\": 1}, \"14\": {\"In\": 1}, \"15\": {\"In\": 1}, \"16\": {\"O\": 1}, \"17\": {\"O\": 1}, \"18\": {\"O\": 1}, \"19\": {\"O\": 1}, \"20\": {\"O\": 1}, \"21\": {\"O\": 1}, \"22\": {\"O\": 1}, \"23\": {\"O\": 1}, \"24\": {\"O\": 1}, \"25\": {\"O\": 1}, \"26\": {\"O\": 1}, \"27\": {\"O\": 1}, \"28\": {\"O\": 1}, \"29\": {\"O\": 1}, \"30\": {\"O\": 1}, \"31\": {\"O\": 1}, \"32\": {\"O\": 1}, \"33\": {\"O\": 1}, \"34\": {\"O\": 1}, \"35\": {\"O\": 1}, \"36\": {\"O\": 1}, \"37\": {\"O\": 1}, \"38\": {\"O\": 1}, \"39\": {\"O\": 1}}" n_minim_iter=5 energy=-45151.106242866175 stress="0.03797479464249077 -3.771104310220412e-13 2.592845635758739e-13 -3.771104310220412e-13 0.037974794642860424 -1.5692017580043884e-13 2.592845635758739e-13 -1.5692017580043884e-13 0.03797479464394529" free_energy=-45151.106242866175 pbc="T T T"
In      -4.34687377       3.07370392       5.86842733        0      -0.00043969       0.00031091      -0.00053851
In       7.39301531       1.23419076       1.59306512        1       0.00043969      -0.00031091       0.00053851
In       1.30073223      -0.91975658       5.32381135        2       0.00043969      -0.00031091       0.00053851
In      -1.52307077      -2.15394734       3.73074623        3      -0.00000000      -0.00000000       0.00000000
In      -1.30073223       4.15067759       3.45843824        4      -0.00043969       0.00031091       0.00053851
In       4.79155085      -2.91648683       5.59611934        5      -0.00043969      -0.00062182      -0.00000000
In      -1.30073223       1.39140785       5.59611934        6      -0.00043969      -0.00062182      -0.00000000
In      -1.74540931       7.22438151       1.86537311        7       0.00043969       0.00062182       0.00000000
In       4.34687377       0.15721709       4.00305421        8       0.00043969      -0.00031091      -0.00053851
In      -1.52307077       4.30789468      -0.00000000        9       0.00000000      -0.00000000       0.00000000
In       4.34687377       6.61905911       0.27230798       10       0.00043969      -0.00031091      -0.00053851
In      -1.30073223      -2.31116443       7.18918447       11      -0.00043969       0.00031091       0.00053851
In       4.34687377       2.91648683       1.86537311       12       0.00043969       0.00062182      -0.00000000
In       1.74540931       5.22765126       2.13768110       13      -0.00043969       0.00031091      -0.00053851
In       4.56921231       0.00000000      -0.00000000       14       0.00000000       0.00000000      -0.00000000
In       1.52307077       2.15394734       3.73074623       15      -0.00000000       0.00000000      -0.00000000
O        0.92616958       4.31290432       4.04255856       16       0.01194361      -0.02202328      -0.00223550
O       -2.11997196       3.49845359       5.43587470       17       0.01194361       0.00907564       0.02019047
O       -0.44970205       2.31739441       0.02003675       18      -0.00822595       0.02333767      -0.00451209
O       -0.92616958      -0.80443145       2.01694080       19      -0.01194361      -0.01294764       0.01795497
O        4.00503099       5.12389435       1.99690405       20       0.00457539       0.01034258       0.02246706
O        2.08725208       2.98652488       1.70512847       21      -0.00457539      -0.01428576       0.02019047
O        2.08725208       6.44526415       0.29177558       22      -0.00457539       0.02462834       0.00227660
O       -2.33476108       6.11336038       3.75078298       23      -0.02474495      -0.00002373      -0.00451209
O        3.49584359       1.99050028       7.44145570       24       0.00822595      -0.02333767       0.00451209
O        5.38090262      -1.80546569       3.71070948       25       0.02474495       0.00002373       0.00451209
O        6.54198513       3.32999688       1.73384217       26       0.00822595       0.00776125      -0.02246706
O        3.75752200       2.34554050       4.02252181       27      -0.02474495      -0.00389572       0.00227660
O        0.71138046       4.46478317       7.14968012       28      -0.02474495       0.00391945       0.00223550
O        2.33476108      -0.15688849       0.31181233       29       0.02474495      -0.00391945      -0.00223550
O       -3.49584359       0.97789780       5.72765028       30      -0.00822595      -0.00776125       0.02246706
O        5.16611350       0.80944109       2.02561776       31      -0.01194361      -0.00907564      -0.02019047
O        0.95888945       1.32136980       5.75636399       32       0.00457539       0.01428576      -0.02019047
O        3.49584359      -1.01260247       5.74768703       33       0.00822595       0.01557642       0.01795497
O        2.11997196      -0.00500964       3.41893389       34      -0.01194361       0.02202328       0.00223550
O        0.95888945      -2.13736947       7.16971687       35       0.00457539      -0.02462834      -0.00227660
O       -0.71138046       1.96235418       3.43897064       36       0.02474495       0.00389572      -0.00227660
O       -0.95888946      -0.81599967       5.46458840       37      -0.00457539      -0.01034258      -0.02246706
O       -0.44970205       5.32049715       1.71380542       38      -0.00822595      -0.01557642      -0.01795497
O        3.97231112       5.11232613       5.44455165       39       0.01194361       0.01294764      -0.01795497
40