40
Lattice="8.28129981552797 6.490659121283215e-10 2.0872192862952943e-14 -2.760433272454603 7.807684341915287 -1.124213167003063e-09 -2.7604332715366993 -3.9038421703085855 6.761652985578093" Properties=species:S:1:pos:R:3:spacegroup_kinds:I:1:forces:R:3 spacegroup="P 1" unit_cell=conventional occupancy="_JSON {\"0\": {\"In\": 1}, \"1\": {\"In\": 1}, \"2\": {\"In\": 1}, \"3\": {\"In\": 1}, \"4\": {\"In\": 1}, \"5\": {\"In\": 1}, \"6\": {\"In\": 1}, \"7\": {\"In\": 1}, \"8\": {\"In\": 1}, \"9\": {\"In\": 1}, \"10\": {\"In\": 1}, \"11\": {\"In\": 1}, \"12\": {\"In\": 1}, \"13\": {\"In\": 1}, \"14\": {\"In\": 1}, \"15\": {\"In\": 1}, \"16\": {\"O\": 1}, \"17\": {\"O\": 1}, \"18\": {\"O\": 1}, \"19\": {\"O\": 1}, \"20\": {\"O\": 1}, \"21\": {\"O\": 1}, \"22\": {\"O\": 1}, \"23\": {\"O\": 1}, \"24\": {\"O\": 1}, \"25\": {\"O\": 1}, \"26\": {\"O\": 1}, \"27\": {\"O\": 1}, \"28\": {\"O\": 1}, \"29\": {\"O\": 1}, \"30\": {\"O\": 1}, \"31\": {\"O\": 1}, \"32\": {\"O\": 1}, \"33\": {\"O\": 1}, \"34\": {\"O\": 1}, \"35\": {\"O\": 1}, \"36\": {\"O\": 1}, \"37\": {\"O\": 1}, \"38\": {\"O\": 1}, \"39\": {\"O\": 1}}" n_minim_iter=1 energy=-45144.08388584977 stress="-0.188273773718188 -5.723168797101259e-14 -3.312318350626616e-13 -5.723168797101259e-14 -0.18827377371918436 4.958881012227375e-13 -3.312318350626616e-13 4.958881012227375e-13 -0.1882737737188728" free_energy=-45144.08388584977 pbc="T T T"
In      -3.86572146       2.73347786       5.40795694        0       0.06488463      -0.04588036       0.07946711
In       6.62615473       1.17036431       1.35369604        1      -0.06488463       0.04588036      -0.07946711
In       1.10528819      -0.78155677       4.73452253        2      -0.06488463       0.04588036      -0.07946711
In      -1.38021664      -1.95192108       3.38082649        3      -0.00000000      -0.00000000       0.00000000
In      -1.10528819       3.70943840       3.04410928        4       0.06488463      -0.04588036      -0.07946711
In       4.41557835      -2.53907409       5.07123974        5       0.06488463       0.09176072       0.00000000
In      -1.10528819       1.36476808       5.07123974        6       0.06488463       0.09176072      -0.00000000
In      -1.65514509       6.44291626       1.69041324        7      -0.06488463      -0.09176072       0.00000000
In       3.86572146       0.19440377       3.71754370        8      -0.06488463       0.04588036       0.07946711
In      -1.38021664       3.90384217      -0.00000000        9      -0.00000000      -0.00000000      -0.00000000
In       3.86572146       6.05016703       0.33671720       10      -0.06488463       0.04588036       0.07946711
In      -1.10528819      -2.14632485       6.42493578       11       0.06488463      -0.04588036      -0.07946711
In       3.86572146       2.53907409       1.69041324       12      -0.06488463      -0.09176072      -0.00000000
In       1.65514508       4.68539895       2.02713045       13       0.06488463      -0.04588036       0.07946711
In       4.14064991       0.00000000      -0.00000000       14      -0.00000000      -0.00000000       0.00000000
In       1.38021663       1.95192109       3.38082649       15       0.00000000      -0.00000000      -0.00000000
O        0.82578655       3.89776492       3.81366361       16       0.01060096       0.01495876       0.26389630
O       -1.93464672       3.30576820       4.86008423       17       0.01060096       0.22106152      -0.14490281
O       -0.29433705       2.14589411       0.10739210       18       0.22605571       0.06871201       0.11897428
O       -0.82578655      -0.60415122       1.91209486       19      -0.01060096       0.23602028       0.11899349
O        3.76159039       4.56999625       1.80470276       20       0.20488515      -0.16733044       0.00001920
O        1.75927615       2.67400078       1.47925774       21      -0.20488515      -0.08368185      -0.14490281
O        1.75927615       5.79983765       0.32544502       22      -0.20488515      -0.08364859       0.14492202
O       -2.12128072       5.41796886       3.48821859       23       0.01056960      -0.23603137       0.11897428
O        3.05477032       1.75794806       6.65426088       24      -0.22605571      -0.06871201      -0.11897428
O        4.88171399      -1.51412668       3.27343439       25      -0.01056960       0.23603137      -0.11897428
O        5.81520359       3.11787243       1.57612373       26      -0.22605571       0.13739076      -0.00001920
O        3.39958582       2.26382258       3.70627151       27       0.01056960       0.22105044       0.14492202
O        0.63915255       4.02973509       6.32881586       28       0.01056960       0.01498093      -0.26389630
O        2.12128072      -0.12589291       0.43283712       29      -0.01056960      -0.01498093       0.26389630
O       -3.05477033       0.78596974       5.18552925       30       0.22605571      -0.13739076       0.00001920
O        4.69507999       0.59807397       1.90156875       31      -0.01060096      -0.22106152       0.14490281
O        1.00115712       1.22984140       5.28239524       32       0.20488515       0.08368185       0.14490281
O        3.05477032      -0.97197832       5.29292135       33      -0.22605571      -0.06867875       0.11899349
O        1.93464672       0.00607725       2.94798937       34      -0.01060096      -0.01495876      -0.26389630
O        1.00115712      -1.89599548       6.43620796       35       0.20488515       0.08364859      -0.14492202
O       -0.63915255       1.64001960       3.05538147       36      -0.01056960      -0.22105044      -0.14492202
O       -1.00115712      -0.66615408       4.95695022       37      -0.20488515       0.16733044      -0.00001920
O       -0.29433705       4.87582049       1.46873163       38       0.22605571       0.06867875      -0.11899349
O        3.58621982       4.50799340       4.84955812       39       0.01060096      -0.23602028      -0.11899349
40
Lattice="8.281299815527968 6.490659121283215e-10 2.0872192862952937e-14 -2.760433272454603 7.807684341915287 -1.1242131670030629e-09 -2.7604332715366993 -3.9038421703085855 6.761652985578093" Properties=species:S:1:pos:R:3:spacegroup_kinds:I:1:forces:R:3 spacegroup="P 1" unit_cell=conventional occupancy="_JSON {\"0\": {\"In\": 1}, \"1\": {\"In\": 1}, \"2\": {\"In\": 1}, \"3\": {\"In\": 1}, \"4\": {\"In\": 1}, \"5\": {\"In\": 1}, \"6\": {\"In\": 1}, \"7\": {\"In\": 1}, \"8\": {\"In\": 1}, \"9\": {\"In\": 1}, \"10\": {\"In\": 1}, \"11\": {\"In\": 1}, \"12\": {\"In\": 1}, \"13\": {\"In\": 1}, \"14\": {\"In\": 1}, \"15\": {\"In\": 1}, \"16\": {\"O\": 1}, \"17\": {\"O\": 1}, \"18\": {\"O\": 1}, \"19\": {\"O\": 1}, \"20\": {\"O\": 1}, \"21\": {\"O\": 1}, \"22\": {\"O\": 1}, \"23\": {\"O\": 1}, \"24\": {\"O\": 1}, \"25\": {\"O\": 1}, \"26\": {\"O\": 1}, \"27\": {\"O\": 1}, \"28\": {\"O\": 1}, \"29\": {\"O\": 1}, \"30\": {\"O\": 1}, \"31\": {\"O\": 1}, \"32\": {\"O\": 1}, \"33\": {\"O\": 1}, \"34\": {\"O\": 1}, \"35\": {\"O\": 1}, \"36\": {\"O\": 1}, \"37\": {\"O\": 1}, \"38\": {\"O\": 1}, \"39\": {\"O\": 1}}" n_minim_iter=2 energy=-45144.17454561443 stress="-0.17830611304145447 8.92123809985078e-13 -1.69603841620822e-13 8.92123809985078e-13 -0.17830611303988 3.8177770633550076e-13 -1.69603841620822e-13 3.8177770633550076e-13 -0.17830611304047084" free_energy=-45144.17454561443 pbc="T T T"
In      -3.86108685       2.73020069       5.41363316        0       0.21411977      -0.15140554       0.26224209
In       6.62152011       1.17364148       1.34801982        1      -0.21411977       0.15140554      -0.26224209
In       1.10065357      -0.77827960       4.72884631        2      -0.21411977       0.15140554      -0.26224209
In      -1.38021664      -1.95192108       3.38082649        3       0.00000000      -0.00000000       0.00000000
In      -1.10065357       3.70616123       3.03843306        4       0.21411977      -0.15140554      -0.26224209
In       4.42021297      -2.53251975       5.07123974        5       0.21411977       0.30281108      -0.00000000
In      -1.10065357       1.37132242       5.07123974        6       0.21411977       0.30281108      -0.00000000
In      -1.65977970       6.43636192       1.69041324        7      -0.21411977      -0.30281108       0.00000000
In       3.86108684       0.19768094       3.72321992        8      -0.21411977       0.15140554       0.26224209
In      -1.38021664       3.90384217      -0.00000000        9       0.00000000      -0.00000000       0.00000000
In       3.86108684       6.05344420       0.34239343       10      -0.21411977       0.15140554       0.26224209
In      -1.10065357      -2.14960202       6.41925955       11       0.21411977      -0.15140554      -0.26224209
In       3.86108684       2.53251975       1.69041324       12      -0.21411977      -0.30281108      -0.00000000
In       1.65977970       4.68212178       2.03280667       13       0.21411977      -0.15140554       0.26224209
In       4.14064991       0.00000000      -0.00000000       14      -0.00000000      -0.00000000      -0.00000000
In       1.38021663       1.95192109       3.38082649       15      -0.00000000       0.00000000       0.00000000
O        0.82654376       3.89883340       3.83251335       16      -0.05629628      -0.10668398       0.04631728
O       -1.93388951       3.32155831       4.84973403       17      -0.05629628       0.09345393       0.06923240
O       -0.27819022       2.15080211       0.11589026       18      -0.03123884       0.07573564       0.09992137
O       -0.82654376      -0.58729263       1.92059440       19       0.05629628      -0.01323005       0.11554968
O        3.77622504       4.55804408       1.80470413       20       0.10687464       0.07091968       0.01562831
O        1.74464150       2.66802350       1.46890754       21      -0.10687464       0.02192533       0.06923240
O        1.74464150       5.79386275       0.33579659       22      -0.10687464       0.04899435      -0.05360409
O       -2.12052575       5.40110947       3.49671675       23      -0.08181720       0.00420704       0.09992137
O        3.03862349       1.75304006       6.64576272       24       0.03123884      -0.07573564      -0.09992137
O        4.88095902      -1.49726730       3.26493623       25       0.08181720      -0.00420704      -0.09992137
O        5.79905676       3.12768606       1.57612236       26       0.03123884       0.12440227      -0.01562831
O        3.40034079       2.27961189       3.71662309       27      -0.08181720       0.08443092      -0.05360409
O        0.63990752       4.03080515       6.30996612       28      -0.08181720      -0.08863797      -0.04631728
O        2.12052575      -0.12696298       0.45168686       29       0.08181720       0.08863797       0.04631728
O       -3.03862349       0.77615612       5.18553062       30      -0.03123884      -0.12440227       0.01562831
O        4.69432278       0.58228386       1.91191895       31       0.05629628      -0.09345393      -0.06923240
O        1.01579177       1.23581867       5.29274544       32       0.10687464      -0.02192533      -0.06923240
O        3.03862349      -0.97688394       5.30142089       33       0.03123884      -0.04866662       0.11554968
O        1.93388951       0.00500877       2.92913963       34       0.05629628       0.10668398      -0.04631728
O        1.01579177      -1.89002058       6.42585639       35       0.10687464      -0.04899435       0.05360409
O       -0.63990752       1.62423028       3.04502989       36       0.08181720      -0.08443092       0.05360409
O       -1.01579177      -0.65420191       4.95694885       37      -0.10687464      -0.07091968      -0.01562831
O       -0.27819022       4.88072612       1.46023209       38      -0.03123884       0.04866662      -0.11554968
O        3.58697703       4.49113481       4.84105858       39      -0.05629628       0.01323005      -0.11554968
40
Lattice="8.281299815527966 6.490659121283213e-10 2.0872192862952933e-14 -2.760433272454602 7.807684341915287 -1.1242131670030626e-09 -2.7604332715366984 -3.9038421703085855 6.761652985578094" Properties=species:S:1:pos:R:3:spacegroup_kinds:I:1:forces:R:3 spacegroup="P 1" unit_cell=conventional occupancy="_JSON {\"0\": {\"In\": 1}, \"1\": {\"In\": 1}, \"2\": {\"In\": 1}, \"3\": {\"In\": 1}, \"4\": {\"In\": 1}, \"5\": {\"In\": 1}, \"6\": {\"In\": 1}, \"7\": {\"In\": 1}, \"8\": {\"In\": 1}, \"9\": {\"In\": 1}, \"10\": {\"In\": 1}, \"11\": {\"In\": 1}, \"12\": {\"In\": 1}, \"13\": {\"In\": 1}, \"14\": {\"In\": 1}, \"15\": {\"In\": 1}, \"16\": {\"O\": 1}, \"17\": {\"O\": 1}, \"18\": {\"O\": 1}, \"19\": {\"O\": 1}, \"20\": {\"O\": 1}, \"21\": {\"O\": 1}, \"22\": {\"O\": 1}, \"23\": {\"O\": 1}, \"24\": {\"O\": 1}, \"25\": {\"O\": 1}, \"26\": {\"O\": 1}, \"27\": {\"O\": 1}, \"28\": {\"O\": 1}, \"29\": {\"O\": 1}, \"30\": {\"O\": 1}, \"31\": {\"O\": 1}, \"32\": {\"O\": 1}, \"33\": {\"O\": 1}, \"34\": {\"O\": 1}, \"35\": {\"O\": 1}, \"36\": {\"O\": 1}, \"37\": {\"O\": 1}, \"38\": {\"O\": 1}, \"39\": {\"O\": 1}}" n_minim_iter=3 energy=-45144.33807016596 stress="-0.14531493433677486 -1.5370674305190768e-14 -2.8150137542070404e-13 -1.5370674305190768e-14 -0.14531493433783632 -3.226962960601164e-13 -2.8150137542070404e-13 -3.226962960601164e-13 -0.14531493433717038" free_energy=-45144.33807016596 pbc="T T T"
In      -3.83210247       2.70970565       5.44913163        0       0.14486085      -0.10243209       0.17741758
In       6.59253574       1.19413653       1.31252135        1      -0.14486085       0.10243209      -0.17741758
In       1.07166920      -0.75778456       4.69334785        2      -0.14486085       0.10243209      -0.17741758
In      -1.38021664      -1.95192108       3.38082649        3       0.00000000      -0.00000000      -0.00000000
In      -1.07166920       3.68566619       3.00293460        4       0.14486085      -0.10243209      -0.17741758
In       4.44919734      -2.49152966       5.07123974        5       0.14486085       0.20486417      -0.00000000
In      -1.07166920       1.41231251       5.07123974        6       0.14486085       0.20486417      -0.00000000
In      -1.68876407       6.39537183       1.69041324        7      -0.14486085      -0.20486417       0.00000000
In       3.83210247       0.21817599       3.75871838        8      -0.14486085       0.10243209       0.17741758
In      -1.38021664       3.90384217      -0.00000000        9      -0.00000000      -0.00000000      -0.00000000
In       3.83210247       6.07393924       0.37789189       10      -0.14486085       0.10243209       0.17741758
In      -1.07166920      -2.17009707       6.38376109       11       0.14486085      -0.10243209      -0.17741758
In       3.83210247       2.49152966       1.69041324       12      -0.14486085      -0.20486417       0.00000000
In       1.68876407       4.66162673       2.06830513       13       0.14486085      -0.10243209       0.17741758
In       4.14064991       0.00000000      -0.00000000       14       0.00000000      -0.00000000       0.00000000
In       1.38021663       1.95192109       3.38082649       15       0.00000000       0.00000000      -0.00000000
O        0.82503033       3.89483261       3.89394976       16      -0.11315509      -0.08706755      -0.04524998
O       -1.93540294       3.37676419       4.82248061       17      -0.11315509       0.00434614       0.09802770
O       -0.23041807       2.17115783       0.14899911       18      -0.11570886       0.00615192       0.09489999
O       -0.82503033      -0.53608754       1.95477739       19       0.11315509      -0.08272141       0.05277772
O        3.82877812       4.52595439       1.80577828       20       0.04181594       0.13751194      -0.04212227
O        1.69208842       2.65104842       1.44165412       21      -0.04181594       0.10523493       0.09802770
O        1.69208842       5.77874814       0.36412415       22      -0.04181594       0.03227701      -0.14014997
O       -2.12379326       5.34928422       3.52982560       23      -0.04436971       0.10704071       0.09489999
O        2.99085134       1.73268435       6.61265387       24       0.11570886      -0.00615192      -0.09489999
O        4.88422652      -1.44544205       3.23182738       25       0.04436971      -0.10704071      -0.09489999
O        5.75128461       3.16653701       1.57504821       26       0.11570886       0.08526176       0.04212227
O        3.39707329       2.33419762       3.74495065       27      -0.04436971       0.02866544      -0.14014997
O        0.63664002       4.02804468       6.24852972       28      -0.04436971      -0.13570616       0.04524998
O        2.12379325      -0.12420250       0.51312326       29       0.04436971       0.13570616      -0.04524998
O       -2.99085134       0.73730516       5.18660477       30      -0.11570886      -0.08526176      -0.04212227
O        4.69583621       0.52707798       1.93917237       31       0.11315509      -0.00434614      -0.09802770
O        1.06834485       1.25279376       5.31999886       32       0.04181594      -0.10523493      -0.09802770
O        2.99085134      -0.99537918       5.33560388       33       0.11570886      -0.07910984       0.05277772
O        1.93540294       0.00900956       2.86770322       34       0.11315509       0.08706755       0.04524998
O        1.06834485      -1.87490597       6.39752883       35       0.04181594      -0.03227701       0.14014997
O       -0.63664002       1.56964456       3.01670233       36       0.04436971      -0.02866544       0.14014997
O       -1.06834486      -0.62211221       4.95587470       37      -0.04181594      -0.13751194       0.04212227
O       -0.23041807       4.89922136       1.42604910       38      -0.11570886       0.07910984      -0.05277772
O        3.58546360       4.43992971       4.80687559       39      -0.11315509       0.08272141      -0.05277772
40
Lattice="8.281299815527966 6.490659121283214e-10 2.087219286295294e-14 -2.7604332724546023 7.807684341915291 -1.1242131670030626e-09 -2.760433271536699 -3.9038421703085873 6.761652985578096" Properties=species:S:1:pos:R:3:spacegroup_kinds:I:1:forces:R:3 spacegroup="P 1" unit_cell=conventional occupancy="_JSON {\"0\": {\"In\": 1}, \"1\": {\"In\": 1}, \"2\": {\"In\": 1}, \"3\": {\"In\": 1}, \"4\": {\"In\": 1}, \"5\": {\"In\": 1}, \"6\": {\"In\": 1}, \"7\": {\"In\": 1}, \"8\": {\"In\": 1}, \"9\": {\"In\": 1}, \"10\": {\"In\": 1}, \"11\": {\"In\": 1}, \"12\": {\"In\": 1}, \"13\": {\"In\": 1}, \"14\": {\"In\": 1}, \"15\": {\"In\": 1}, \"16\": {\"O\": 1}, \"17\": {\"O\": 1}, \"18\": {\"O\": 1}, \"19\": {\"O\": 1}, \"20\": {\"O\": 1}, \"21\": {\"O\": 1}, \"22\": {\"O\": 1}, \"23\": {\"O\": 1}, \"24\": {\"O\": 1}, \"25\": {\"O\": 1}, \"26\": {\"O\": 1}, \"27\": {\"O\": 1}, \"28\": {\"O\": 1}, \"29\": {\"O\": 1}, \"30\": {\"O\": 1}, \"31\": {\"O\": 1}, \"32\": {\"O\": 1}, \"33\": {\"O\": 1}, \"34\": {\"O\": 1}, \"35\": {\"O\": 1}, \"36\": {\"O\": 1}, \"37\": {\"O\": 1}, \"38\": {\"O\": 1}, \"39\": {\"O\": 1}}" n_minim_iter=4 energy=-45145.44976295948 stress="-0.013514698531359061 -1.0532639785303347e-12 1.1121468052195001e-13 -1.0532639785303347e-12 -0.013514698528913023 -2.666342704907969e-13 1.1121468052195001e-13 -2.666342704907969e-13 -0.013514698530315674" free_energy=-45145.44976295948 pbc="T T T"
In      -3.70507941       2.61988678       5.60470247        0      -0.49438634       0.34958394      -0.60549714
In       6.46551268       1.28395540       1.15695051        1       0.49438634      -0.34958394       0.60549714
In       0.94464614      -0.66796569       4.53777700        2       0.49438634      -0.34958394       0.60549714
In      -1.38021664      -1.95192108       3.38082649        3       0.00000000      -0.00000000      -0.00000000
In      -0.94464614       3.59584732       2.84736376        4      -0.49438634       0.34958394       0.60549714
In       4.57622040      -2.31189192       5.07123974        5      -0.49438634      -0.69916787       0.00000000
In      -0.94464614       1.59195025       5.07123974        6      -0.49438634      -0.69916787       0.00000000
In      -1.81578714       6.21573410       1.69041324        7       0.49438634       0.69916787      -0.00000000
In       3.70507941       0.30799485       3.91428922        8       0.49438634      -0.34958394      -0.60549714
In      -1.38021664       3.90384217      -0.00000000        9      -0.00000000       0.00000000      -0.00000000
In       3.70507941       6.16375811       0.53346273       10       0.49438634      -0.34958394      -0.60549714
In      -0.94464614      -2.25991594       6.22819025       11      -0.49438634       0.34958394       0.60549714
In       3.70507941       2.31189193       1.69041324       12       0.49438634       0.69916787      -0.00000000
In       1.81578713       4.57180786       2.22387598       13      -0.49438634       0.34958394      -0.60549714
In       4.14064991       0.00000000      -0.00000000       14      -0.00000000      -0.00000000      -0.00000000
In       1.38021663       1.95192109       3.38082649       15      -0.00000000      -0.00000000      -0.00000000
O        0.80296645       3.87097199       4.13013114       16      -0.71188715       0.07723770       0.34519878
O       -1.95746682       3.59323359       4.72505382       17      -0.71188715       0.26033206      -0.23948920
O       -0.05617940       2.24882036       0.29199285       18       0.08096810      -0.30030126       0.73155621
O       -0.80296645      -0.34347876       2.09353198       19       0.71188715       0.33756976       0.10570958
O        4.04022205       4.41590309       1.80153913       20       0.48273914       0.08479442      -0.62584663
O        1.48064449       2.59969398       1.34422733       21      -0.48273914       0.58439629      -0.23948920
O        1.48064449       5.72005129       0.45731180       22      -0.48273914      -0.49960187      -0.38635743
O       -2.13893464       5.15912292       3.67281934       23       0.31011611       0.02376296       0.73155621
O        2.81661267       1.65502182       6.46966013       24      -0.08096810       0.30030126      -0.73155621
O        4.89936790      -1.25528075       3.08883364       25      -0.31011612      -0.02376296      -0.73155621
O        5.57704594       3.32920449       1.57928736       26      -0.08096810       0.48339563       0.62584663
O        3.38193191       2.55311448       3.83813829       27       0.31011611       0.62166478      -0.38635743
O        0.62149864       3.99928912       6.01234833       28       0.31011612      -0.64542774      -0.34519878
O        2.13893463      -0.09544694       0.74930465       29      -0.31011612       0.64542774       0.34519878
O       -2.81661268       0.57463768       5.18236562       30       0.08096810      -0.48339563      -0.62584663
O        4.71790009       0.31060859       2.03659916       31       0.71188715      -0.26033206       0.23948920
O        1.27978878       1.30414820       5.41742565       32       0.48273914      -0.58439629       0.23948920
O        2.81661267      -1.08038413       5.47435847       33      -0.08096810      -0.78369689       0.10570958
O        1.95746682       0.03287018       2.63152184       34       0.71188715      -0.07723770      -0.34519878
O        1.27978878      -1.81620911       6.30434118       35       0.48273914       0.49960187       0.38635743
O       -0.62149864       1.35072769       2.92351469       36      -0.31011611      -0.62166478       0.38635743
O       -1.27978878      -0.51206092       4.96011385       37      -0.48273914      -0.08479442       0.62584663
O       -0.05617940       4.98422631       1.28729451       38       0.08096810       0.78369689      -0.10570958
O        3.56339972       4.24732094       4.66812100       39      -0.71188715      -0.33756976      -0.10570958
40
Lattice="8.281299815527968 6.490659121283216e-10 2.0872192862952946e-14 -2.7604332724546032 7.807684341915293 -1.1242131670030629e-09 -2.7604332715366997 -3.903842170308588 6.761652985578097" Properties=species:S:1:pos:R:3:spacegroup_kinds:I:1:forces:R:3 spacegroup="P 1" unit_cell=conventional occupancy="_JSON {\"0\": {\"In\": 1}, \"1\": {\"In\": 1}, \"2\": {\"In\": 1}, \"3\": {\"In\": 1}, \"4\": {\"In\": 1}, \"5\": {\"In\": 1}, \"6\": {\"In\": 1}, \"7\": {\"In\": 1}, \"8\": {\"In\": 1}, \"9\": {\"In\": 1}, \"10\": {\"In\": 1}, \"11\": {\"In\": 1}, \"12\": {\"In\": 1}, \"13\": {\"In\": 1}, \"14\": {\"In\": 1}, \"15\": {\"In\": 1}, \"16\": {\"O\": 1}, \"17\": {\"O\": 1}, \"18\": {\"O\": 1}, \"19\": {\"O\": 1}, \"20\": {\"O\": 1}, \"21\": {\"O\": 1}, \"22\": {\"O\": 1}, \"23\": {\"O\": 1}, \"24\": {\"O\": 1}, \"25\": {\"O\": 1}, \"26\": {\"O\": 1}, \"27\": {\"O\": 1}, \"28\": {\"O\": 1}, \"29\": {\"O\": 1}, \"30\": {\"O\": 1}, \"31\": {\"O\": 1}, \"32\": {\"O\": 1}, \"33\": {\"O\": 1}, \"34\": {\"O\": 1}, \"35\": {\"O\": 1}, \"36\": {\"O\": 1}, \"37\": {\"O\": 1}, \"38\": {\"O\": 1}, \"39\": {\"O\": 1}}" n_minim_iter=5 energy=-45145.45844203894 stress="-0.011783796441228895 1.5250356014716908e-13 -1.6681249791274173e-13 1.5250356014716908e-13 -0.011783796440423567 -5.685859461439761e-13 -1.6681249791274173e-13 -5.685859461439761e-13 -0.011783796442692314" free_energy=-45145.45844203894 pbc="T T T"
In      -3.70090664       2.61693619       5.60981305        0      -0.46524459       0.32897760      -0.56980592
In       6.46133991       1.28690599       1.15183993        1       0.46524459      -0.32897760       0.56980592
In       0.94047337      -0.66501510       4.53266643        2       0.46524459      -0.32897760       0.56980592
In      -1.38021664      -1.95192108       3.38082649        3      -0.00000000      -0.00000000      -0.00000000
In      -0.94047337       3.59289673       2.84225318        4      -0.46524459       0.32897760       0.56980592
In       4.58039317      -2.30599074       5.07123974        5      -0.46524459      -0.65795521       0.00000000
In      -0.94047337       1.59785143       5.07123974        6      -0.46524459      -0.65795521       0.00000000
In      -1.81995990       6.20983291       1.69041324        7       0.46524459       0.65795521      -0.00000000
In       3.70090664       0.31094545       3.91939980        8       0.46524459      -0.32897760      -0.56980592
In      -1.38021664       3.90384217      -0.00000000        9      -0.00000000      -0.00000000       0.00000000
In       3.70090664       6.16670870       0.53857331       10       0.46524459      -0.32897760      -0.56980592
In      -0.94047337      -2.26286653       6.22307967       11      -0.46524459       0.32897760       0.56980592
In       3.70090664       2.30599074       1.69041324       12       0.46524459       0.65795521      -0.00000000
In       1.81995990       4.56885727       2.22898655       13      -0.46524459       0.32897760      -0.56980592
In       4.14064991       0.00000000      -0.00000000       14       0.00000000       0.00000000       0.00000000
In       1.38021663       1.95192109       3.38082649       15      -0.00000000       0.00000000       0.00000000
O        0.80173851       3.87017504       4.13869896       16      -0.74313725       0.06439077       0.24312752
O       -1.95869476       3.60105201       4.72146009       17      -0.74313725       0.17835923      -0.17732780
O       -0.04996881       2.25137895       0.29750942       18      -0.01884553      -0.33379236       0.70974477
O       -0.80173852      -0.33645729       2.09850607       19       0.74313725       0.24274999       0.06579972
O        4.04800264       4.41206661       1.80099664       20       0.41587111       0.16702134      -0.64394505
O        1.47286390       2.59824554       1.34063360       21      -0.41587111       0.64118345      -0.17732780
O        1.47286390       5.71766324       0.46036305       22      -0.41587111      -0.47416210      -0.46661725
O       -2.13927670       5.15241465       3.67833591       23       0.30842061       0.12903186       0.70974477
O        2.81040208       1.65246323       6.46414356       24       0.01884553       0.33379236      -0.70974477
O        4.89970996      -1.24857248       3.08331707       25      -0.30842061      -0.12903186      -0.70974477
O        5.57083535       3.33526128       1.57982984       26       0.01884553       0.44776082       0.64394505
O        3.38158985       2.56124611       3.84118954       27       0.30842061       0.55014108      -0.46661725
O        0.62115658       3.99786576       6.00378051       28       0.30842061      -0.67917293      -0.24312752
O        2.13927669      -0.09402358       0.75787247       29      -0.30842061       0.67917293       0.24312752
O       -2.81040208       0.56858089       5.18182314       30      -0.01884553      -0.44776082      -0.64394505
O        4.71912803       0.30279016       2.04019289       31       0.74313725      -0.17835923       0.17732780
O        1.28756937       1.30559663       5.42101938       32       0.41587111      -0.64118345       0.17732780
O        2.81040208      -1.08388233       5.47933256       33       0.01884553      -0.78155319       0.06579972
O        1.95869475       0.03366713       2.62295402       34       0.74313725      -0.06439077      -0.24312752
O        1.28756937      -1.81382107       6.30128993       35       0.41587111       0.47416210       0.46661725
O       -0.62115658       1.34259606       2.92046344       36      -0.30842061      -0.55014108       0.46661725
O       -1.28756937      -0.50822444       4.96065634       37      -0.41587111      -0.16702134       0.64394505
O       -0.04996881       4.98772451       1.28232042       38      -0.01884553       0.78155319      -0.06579972
O        3.56217179       4.24029947       4.66314691       39      -0.74313725      -0.24274999      -0.06579972
40