40
Lattice="8.105048168657024 6.352533448637847e-10 2.5477182711259057e-14 -2.7016827234845984 7.641512695656243 -1.1002866038453132e-09 -2.7016827225862383 -3.820756347192879 6.617744118513127" Properties=species:S:1:pos:R:3:spacegroup_kinds:I:1:forces:R:3 spacegroup="P 1" unit_cell=conventional occupancy="_JSON {\"0\": {\"In\": 1}, \"1\": {\"In\": 1}, \"2\": {\"In\": 1}, \"3\": {\"In\": 1}, \"4\": {\"In\": 1}, \"5\": {\"In\": 1}, \"6\": {\"In\": 1}, \"7\": {\"In\": 1}, \"8\": {\"In\": 1}, \"9\": {\"In\": 1}, \"10\": {\"In\": 1}, \"11\": {\"In\": 1}, \"12\": {\"In\": 1}, \"13\": {\"In\": 1}, \"14\": {\"In\": 1}, \"15\": {\"In\": 1}, \"16\": {\"O\": 1}, \"17\": {\"O\": 1}, \"18\": {\"O\": 1}, \"19\": {\"O\": 1}, \"20\": {\"O\": 1}, \"21\": {\"O\": 1}, \"22\": {\"O\": 1}, \"23\": {\"O\": 1}, \"24\": {\"O\": 1}, \"25\": {\"O\": 1}, \"26\": {\"O\": 1}, \"27\": {\"O\": 1}, \"28\": {\"O\": 1}, \"29\": {\"O\": 1}, \"30\": {\"O\": 1}, \"31\": {\"O\": 1}, \"32\": {\"O\": 1}, \"33\": {\"O\": 1}, \"34\": {\"O\": 1}, \"35\": {\"O\": 1}, \"36\": {\"O\": 1}, \"37\": {\"O\": 1}, \"38\": {\"O\": 1}, \"39\": {\"O\": 1}}" n_minim_iter=8 energy=-45146.12503011029 stress="-0.09253812767389012 2.2277955691515177e-13 9.862249712198596e-13 2.2277955691515177e-13 -0.09253812767369145 6.844437160323042e-13 9.862249712198596e-13 6.844437160323042e-13 -0.09253812767230465" free_energy=-45146.12503011029 pbc="T T T"
In      -3.62778301       2.56522997       5.48350754        0       0.00000950      -0.00000672       0.00001163
In       6.32946573       1.25552639       1.13423657        1      -0.00000950       0.00000672      -0.00001163
In       0.92610028      -0.65485179       4.44310863        2      -0.00000950       0.00000672      -0.00001163
In      -1.35084136      -1.91037817       3.30887206        3       0.00000000      -0.00000000       0.00000000
In      -0.92610028       3.52041905       2.78867260        4       0.00000950      -0.00000672      -0.00001163
In       4.47726516      -2.26489266       4.96330809        5       0.00000950       0.00001343      -0.00000000
In      -0.92610028       1.55586368       4.96330809        6       0.00000950       0.00001343       0.00000000
In      -1.77558244       6.08564902       1.65443603        7      -0.00000950      -0.00001343       0.00000000
In       3.62778300       0.30033730       3.82907152        8      -0.00000950       0.00000672       0.00001163
In      -1.35084136       3.82075635      -0.00000000        9       0.00000000       0.00000000       0.00000000
In       3.62778300       6.03147182       0.52019946       10      -0.00000950       0.00000672       0.00001163
In      -0.92610028      -2.21071547       6.09754466       11       0.00000950      -0.00000672      -0.00001163
In       3.62778300       2.26489267       1.65443603       12      -0.00000950      -0.00001343       0.00000000
In       1.77558244       4.47560814       2.17463549       13       0.00000950      -0.00000672       0.00001163
In       4.05252408       0.00000000      -0.00000000       14       0.00000000       0.00000000       0.00000000
In       1.35084136       1.91037818       3.30887206       15       0.00000000      -0.00000000       0.00000000
O        0.66558102       3.75154247       4.09050421       16      -0.00112995       0.00210357      -0.00001874
O       -2.03610170       3.57708750       4.63243298       17      -0.00112995      -0.00106801      -0.00181238
O       -0.07312832       2.18905571       0.41883045       18       0.00059968      -0.00229105       0.00030599
O       -0.66558102      -0.31288272       2.10519308       19       0.00112995       0.00103556      -0.00183111
O        4.05121100       4.37545095       1.68636263       20      -0.00063028      -0.00085890      -0.00213710
O        1.35215444       2.63767077       1.32356093       21       0.00063028       0.00142133      -0.00181238
O        1.35215444       5.55853653       0.36280170       22       0.00063028      -0.00228023      -0.00032472
O       -2.08823763       5.07039533       3.72770251       23       0.00235992       0.00019829       0.00030599
O        2.77481104       1.63170064       6.19891367       24      -0.00059968       0.00229105      -0.00030599
O        4.78992035      -1.24963898       2.89004161       25      -0.00235992      -0.00019829      -0.00030599
O        5.47649376       3.36762384       1.62250942       26      -0.00059968      -0.00088053       0.00213710
O        3.31512782       2.60346558       3.67167376       27       0.00235992       0.00016584      -0.00032472
O        0.61344510       3.78840814       5.83611196       28       0.00235992      -0.00036414       0.00001874
O        2.08823762       0.03234821       0.78163215       29      -0.00235992       0.00036414      -0.00001874
O       -2.77481104       0.45313251       4.99523469       30       0.00059968       0.00088053      -0.00213710
O        4.73778442       0.24366885       1.98531113       31       0.00112995       0.00106801       0.00181238
O        1.34952828       1.18308558       5.29418319       32      -0.00063028      -0.00142133       0.00181238
O        2.77481104      -1.17856812       5.41406514       33      -0.00059968      -0.00141052      -0.00183111
O        2.03610170       0.06921388       2.52723990       34       0.00112995      -0.00210357       0.00001874
O        1.34952828      -1.73778018       6.25494241       35      -0.00063028       0.00228023       0.00032472
O       -0.61344510       1.21729077       2.94607035       36      -0.00235992      -0.00016584       0.00032472
O       -1.34952828      -0.55469459       4.93138148       37       0.00063028       0.00085890       0.00213710
O       -0.07312832       4.99932448       1.20367897       38       0.00059968       0.00141052       0.00183111
O        3.36726374       4.13363907       4.51255103       39      -0.00112995      -0.00103556       0.00183111
