40
Lattice="8.691920725111979 6.812455450352728e-10 1.0563816257429617e-14 -2.897306909012944 8.194821448123008 -1.1799611097534742e-09 -2.8973069080495235 -4.097410723380254 7.096923554338753" Properties=species:S:1:pos:R:3:spacegroup_kinds:I:1:forces:R:3 spacegroup="P 1" unit_cell=conventional occupancy="_JSON {\"0\": {\"In\": 1}, \"1\": {\"In\": 1}, \"2\": {\"In\": 1}, \"3\": {\"In\": 1}, \"4\": {\"In\": 1}, \"5\": {\"In\": 1}, \"6\": {\"In\": 1}, \"7\": {\"In\": 1}, \"8\": {\"In\": 1}, \"9\": {\"In\": 1}, \"10\": {\"In\": 1}, \"11\": {\"In\": 1}, \"12\": {\"In\": 1}, \"13\": {\"In\": 1}, \"14\": {\"In\": 1}, \"15\": {\"In\": 1}, \"16\": {\"O\": 1}, \"17\": {\"O\": 1}, \"18\": {\"O\": 1}, \"19\": {\"O\": 1}, \"20\": {\"O\": 1}, \"21\": {\"O\": 1}, \"22\": {\"O\": 1}, \"23\": {\"O\": 1}, \"24\": {\"O\": 1}, \"25\": {\"O\": 1}, \"26\": {\"O\": 1}, \"27\": {\"O\": 1}, \"28\": {\"O\": 1}, \"29\": {\"O\": 1}, \"30\": {\"O\": 1}, \"31\": {\"O\": 1}, \"32\": {\"O\": 1}, \"33\": {\"O\": 1}, \"34\": {\"O\": 1}, \"35\": {\"O\": 1}, \"36\": {\"O\": 1}, \"37\": {\"O\": 1}, \"38\": {\"O\": 1}, \"39\": {\"O\": 1}}" n_minim_iter=5 energy=-45151.503327661645 stress="-0.030785289272246257 2.7448747746725296e-13 9.321423721414482e-13 2.7448747746725296e-13 -0.030785289272962025 9.607072403699323e-14 9.321423721414482e-13 9.607072403699323e-14 -0.030785289271649932" free_energy=-45151.503327661645 pbc="T T T"
In      -4.14892193       2.93373083       5.56401447        0      -0.00212966       0.00150590      -0.00260829
In       7.04622884       1.16367989       1.53290908        1       0.00212966      -0.00150590       0.00260829
In       1.25161502      -0.88502547       5.08137086        2       0.00212966      -0.00150590       0.00260829
In      -1.44865346      -2.04870536       3.54846177        3      -0.00000000      -0.00000000       0.00000000
In      -1.25161503       3.95808352       3.30713997        4      -0.00212966       0.00150590       0.00260829
In       4.54299879      -2.79440362       5.32269266        5      -0.00212966      -0.00301179      -0.00000000
In      -1.25161502       1.30300710       5.32269266        6      -0.00212966      -0.00301179      -0.00000000
In      -1.64569189       6.89181435       1.77423089        7       0.00212966       0.00301179       0.00000000
In       4.14892193       0.13932721       3.78978358        8       0.00212966      -0.00150590      -0.00260829
In      -1.44865346       4.09741073      -0.00000000        9       0.00000000      -0.00000000       0.00000000
In       4.14892193       6.28544330       0.24132180       10       0.00212966      -0.00150590      -0.00260829
In      -1.25161502      -2.18803257       6.85560174       11      -0.00212966       0.00150590       0.00260829
In       4.14892193       2.79440362       1.77423089       12       0.00212966       0.00301179      -0.00000000
In       1.64569188       4.98243620       2.01555269       13      -0.00212966       0.00150590      -0.00260829
In       4.34596036       0.00000000      -0.00000000       14      -0.00000000       0.00000000       0.00000000
In       1.44865345       2.04870536       3.54846177       15       0.00000000      -0.00000000       0.00000000
O        0.84324949       4.09456650       3.87827919       16      -0.00401293       0.00831222      -0.00078336
O       -2.05405742       3.36011042       5.16024713       17      -0.00401293      -0.00483452      -0.00680692
O       -0.41673180       2.20234637       0.06862973       18       0.00194117      -0.00904470       0.00048533
O       -0.84324949      -0.74014453       1.94160277       19       0.00401293       0.00347770      -0.00759027
O        3.85262829       4.87717866       1.87297303       20      -0.00322038      -0.00319750      -0.00807560
O        1.94198553       2.86525246       1.61178535       21       0.00322038       0.00539493      -0.00680692
O        1.94198553       6.10933692       0.26118768       22       0.00322038      -0.00859243      -0.00126869
O       -2.21530267       5.80489914       3.61709151       23       0.00917448       0.00118475       0.00048533
O        3.31403870       1.89506436       7.02829382       24      -0.00194117       0.00904470      -0.00048533
O        5.11260958      -1.70748841       3.47983204       25      -0.00917448      -0.00118475      -0.00048533
O        6.21134561       3.20931364       1.67548874       26      -0.00194117      -0.00410204       0.00807560
O        3.57931115       2.27874893       3.80964945       27       0.00917448      -0.00017206      -0.00126869
O        0.68200424       4.20858411       6.76710613       28       0.00917448      -0.00101268       0.00078336
O        2.21530267      -0.11117338       0.32981741       29      -0.00917448       0.00101268      -0.00078336
O       -3.31403871       0.88809708       5.42143481       30       0.00194117       0.00410204      -0.00807560
O        4.95136432       0.73730031       1.93667642       31       0.00401293       0.00483452       0.00680692
O        0.95532138       1.23215827       5.48513820       32      -0.00322038      -0.00539493       0.00680692
O        3.31403870      -1.00696727       5.49006455       33      -0.00194117      -0.00494266      -0.00759027
O        2.05405742       0.00284423       3.21864436       34       0.00401293      -0.00831222       0.00078336
O        0.95532138      -2.01192619       6.83573587       35      -0.00322038       0.00859243       0.00126869
O       -0.68200424       1.81866179       3.28727409       36      -0.00917448       0.00017206       0.00126869
O       -0.95532138      -0.77976793       5.22395052       37       0.00322038       0.00319750       0.00807560
O       -0.41673180       5.10437800       1.60685900       38       0.00194117       0.00494266       0.00759027
O        3.74055640       4.83755526       5.15532078       39      -0.00401293      -0.00347770       0.00759027
