40
Lattice="9.346186849404539 7.325213827924076e-10 1.6552123491523815e-14 -3.115395617158808 8.811669465689805 -1.268784684700508e-09 -3.1153956161228784 -4.4058347321123685 7.6311296078848665" Properties=species:S:1:pos:R:3:spacegroup_kinds:I:1:forces:R:3 spacegroup="P 1" unit_cell=conventional occupancy="_JSON {\"0\": {\"In\": 1}, \"1\": {\"In\": 1}, \"2\": {\"In\": 1}, \"3\": {\"In\": 1}, \"4\": {\"In\": 1}, \"5\": {\"In\": 1}, \"6\": {\"In\": 1}, \"7\": {\"In\": 1}, \"8\": {\"In\": 1}, \"9\": {\"In\": 1}, \"10\": {\"In\": 1}, \"11\": {\"In\": 1}, \"12\": {\"In\": 1}, \"13\": {\"In\": 1}, \"14\": {\"In\": 1}, \"15\": {\"In\": 1}, \"16\": {\"O\": 1}, \"17\": {\"O\": 1}, \"18\": {\"O\": 1}, \"19\": {\"O\": 1}, \"20\": {\"O\": 1}, \"21\": {\"O\": 1}, \"22\": {\"O\": 1}, \"23\": {\"O\": 1}, \"24\": {\"O\": 1}, \"25\": {\"O\": 1}, \"26\": {\"O\": 1}, \"27\": {\"O\": 1}, \"28\": {\"O\": 1}, \"29\": {\"O\": 1}, \"30\": {\"O\": 1}, \"31\": {\"O\": 1}, \"32\": {\"O\": 1}, \"33\": {\"O\": 1}, \"34\": {\"O\": 1}, \"35\": {\"O\": 1}, \"36\": {\"O\": 1}, \"37\": {\"O\": 1}, \"38\": {\"O\": 1}, \"39\": {\"O\": 1}}" n_minim_iter=6 energy=-45149.79871475023 stress="0.05846899231528899 4.1978233849195777e-13 2.682003213057649e-13 4.1978233849195777e-13 0.058468992314336936 -3.204711779807362e-13 2.682003213057649e-13 -3.204711779807362e-13 0.05846899231403352" free_energy=-45149.79871475023 pbc="T T T"
In      -4.43083176       3.13307118       6.02005594        0      -0.00241584       0.00170826      -0.00295879
In       7.54622737       1.27276355       1.61107366        1       0.00241584      -0.00170826       0.00295879
In       1.31543614      -0.93015381       5.42663847        2       0.00241584      -0.00170826       0.00295879
In      -1.55769781      -2.20291736       3.81556480        3      -0.00000000      -0.00000000      -0.00000000
In      -1.31543614       4.23452987       3.51885606        4      -0.00241584       0.00170826       0.00295879
In       4.91535509      -2.96176631       5.72334720        5      -0.00241584      -0.00341651      -0.00000000
In      -1.31543614       1.44406842       5.72334720        6      -0.00241584      -0.00341651       0.00000000
In      -1.79995948       7.36760105       1.90778240        7       0.00241584       0.00341651       0.00000000
In       4.43083175       0.17130487       4.11227354        8       0.00241584      -0.00170826      -0.00295879
In      -1.55769781       4.40583473      -0.00000000        9      -0.00000000      -0.00000000      -0.00000000
In       4.43083175       6.78005697       0.29670873       10       0.00241584      -0.00170826      -0.00295879
In      -1.31543614      -2.37422223       7.33442087       11      -0.00241584       0.00170826       0.00295879
In       4.43083175       2.96176632       1.90778240       12       0.00241584       0.00341651       0.00000000
In       1.79995947       5.33598855       2.20449113       13      -0.00241584       0.00170826      -0.00295879
In       4.67309342       0.00000000      -0.00000000       14       0.00000000       0.00000000       0.00000000
In       1.55769781       2.20291737       3.81556480       15      -0.00000000       0.00000000       0.00000000
O        0.97335082       4.41039610       4.12317553       16       0.00040951      -0.00166993      -0.00045575
O       -2.14204479       3.56849407       5.56559158       17       0.00040951       0.00044027       0.00167408
O       -0.46070158       2.37960488      -0.00632155       18      -0.00102283       0.00145309      -0.00008017
O       -0.97335083      -0.83277929       2.05763750       19      -0.00040951      -0.00122966       0.00121833
O        4.07842340       5.23496429       2.06395904       20       0.00027859       0.00118337       0.00129850
O        2.15236783       3.03295854       1.75002677       21      -0.00027859      -0.00053285       0.00167408
O        2.15236783       6.60784048       0.31393227       22      -0.00027859       0.00171622      -0.00037558
O       -2.39708019       6.24990408       3.80924326       23      -0.00171093       0.00047997      -0.00008017
O        3.57609719       2.02622986       7.63745115       24       0.00102283      -0.00145309       0.00008017
O        5.51247580      -1.84406935       3.82188634       25       0.00171093      -0.00047997       0.00008017
O        6.69149281       3.38724519       1.75160575       26       0.00102283       0.00065711      -0.00129850
O        3.83371104       2.37686676       4.12949707       27      -0.00171093      -0.00030942      -0.00037558
O        0.71831543       4.59073336       7.32351888       28      -0.00171093      -0.00017055       0.00045575
O        2.39708018      -0.18489862       0.30761072       29       0.00171093       0.00017055      -0.00045575
O       -3.57609719       1.01858955       5.87952385       30      -0.00102283      -0.00065711       0.00129850
O        5.25744041       0.83734067       2.06553802       31      -0.00040951      -0.00044027      -0.00167408
O        0.96302779       1.37287619       5.88110283       32       0.00027859       0.00053285      -0.00167408
O        3.57609719      -1.00764031       5.87320231       33       0.00102283       0.00079598       0.00121833
O        2.14204479      -0.00456137       3.50795407       34      -0.00040951       0.00166993       0.00045575
O        0.96302779      -2.20200574       7.31719734       35       0.00027859      -0.00171622       0.00037558
O       -0.71831543       2.02896798       3.50163253       36       0.00171093       0.00030942       0.00037558
O       -0.96302779      -0.82912955       5.56717056       37      -0.00027859      -0.00118337      -0.00129850
O       -0.46070158       5.41347504       1.75792730       38      -0.00102283      -0.00079598      -0.00121833
O        4.08874644       5.23861403       5.57349210       39       0.00040951       0.00122966      -0.00121833
