10
Lattice="5.879400224635128 0.005453128565367571 0.0037653086471755603 3.2307141862745454 4.912215649241707 0.003765308647175088 3.2307141862745454 1.74394980866923 4.592223407789181" Properties=species:S:1:pos:R:3:spacegroup_kinds:I:1:forces:R:3 spacegroup="P 1" unit_cell=conventional occupancy="_JSON {\"0\": {\"In\": 1}, \"1\": {\"In\": 1}, \"2\": {\"In\": 1}, \"3\": {\"In\": 1}, \"4\": {\"O\": 1}, \"5\": {\"O\": 1}, \"6\": {\"O\": 1}, \"7\": {\"O\": 1}, \"8\": {\"O\": 1}, \"9\": {\"O\": 1}}" n_minim_iter=4 energy=-11287.680201198045 stress="-1.557764140152702e-05 1.2269913478854627e-05 8.472202569192856e-06 1.2269913478854627e-05 -3.1684649664533463e-05 4.5733223626684355e-06 8.472202569192856e-06 4.5733223626684355e-06 -3.515017355510056e-05" free_energy=-11287.680201198045 pbc="T T T"
In      10.57842315       5.71026652       3.94285879        0       0.00210234       0.00113485       0.00078360
In       7.93281975       4.28216137       2.95677225        1      -0.00210234      -0.00113485      -0.00078360
In       4.40800886       2.37945722       1.64298178        2       0.00210234       0.00113485       0.00078360
In       1.76240545       0.95135208       0.65689524        3      -0.00210234      -0.00113485      -0.00078360
O        6.02490727       2.31305576       0.21780571        4      -0.00000000       0.00171275      -0.00248050
O        7.10110422       5.12304778       1.15370382        5      -0.00143187       0.00265257      -0.00000000
O        8.17942450       2.18622193       2.51391741        6       0.00143187      -0.00093982      -0.00248050
O        4.16140411       4.47539667       2.08583662        7      -0.00143187       0.00093982       0.00248050
O        6.31592134       4.34856283       4.38194832        8      -0.00000000      -0.00171275       0.00248050
O        5.23972438       1.53857082       3.44605021        9       0.00143187      -0.00265257       0.00000000
