10
Lattice="5.06861030736521 -0.28995746229788494 -0.20021155324252546 2.5388513195390017 4.396489480841065 -0.2002115532425296 2.5388513195390003 1.3704800293879709 4.182222962761152" Properties=species:S:1:pos:R:3:spacegroup_kinds:I:1:forces:R:3 spacegroup="P 1" unit_cell=conventional occupancy="_JSON {\"0\": {\"In\": 1}, \"1\": {\"In\": 1}, \"2\": {\"In\": 1}, \"3\": {\"In\": 1}, \"4\": {\"O\": 1}, \"5\": {\"O\": 1}, \"6\": {\"O\": 1}, \"7\": {\"O\": 1}, \"8\": {\"O\": 1}, \"9\": {\"O\": 1}}" n_minim_iter=6 energy=-11281.704847984984 stress="-0.4519083045899303 5.478221368017719e-05 3.782634827688734e-05 5.478221368017719e-05 -0.4519802185090684 2.0418783507874777e-05 3.782634827688734e-05 2.0418783507874777e-05 -0.45199569124018474" free_energy=-11281.704847984984 pbc="T T T"
In       8.84196373       4.77292019       3.29563432        0      -0.00394387      -0.00212891      -0.00146998
In       6.37750568       3.44259788       2.37706546        1       0.00394387       0.00212891       0.00146998
In       3.76880726       2.03441416       1.40473439        2      -0.00394387      -0.00212891      -0.00146998
In       1.30434921       0.70409186       0.48616553        3       0.00394387       0.00212891       0.00146998
O        5.07088338       1.86620122      -0.08432996        4       0.00000000       0.00189416      -0.00274323
O        5.80365492       4.41668529       0.74523841        5      -0.00158353       0.00293353       0.00000000
O        6.87696316       1.55727496       2.00678152        6       0.00158353      -0.00103937      -0.00274323
O        3.26934977       3.91973709       1.77501834        7      -0.00158353       0.00103937       0.00274323
O        5.07542955       3.61081083       3.86612982        8      -0.00000000      -0.00189416       0.00274323
O        4.34265801       1.06032676       3.03656144        9       0.00158353      -0.00293353       0.00000000
