10
Lattice="6.2783459073697525 0.08149782638923174 0.05627310391658748 3.513198144196342 5.204008842028235 0.05627310391659031 3.5131981441963416 1.8964355489624332 4.846483972816172" Properties=species:S:1:pos:R:3:spacegroup_kinds:I:1:forces:R:3 spacegroup="P 1" unit_cell=conventional occupancy="_JSON {\"0\": {\"In\": 1}, \"1\": {\"In\": 1}, \"2\": {\"In\": 1}, \"3\": {\"In\": 1}, \"4\": {\"O\": 1}, \"5\": {\"O\": 1}, \"6\": {\"O\": 1}, \"7\": {\"O\": 1}, \"8\": {\"O\": 1}, \"9\": {\"O\": 1}}" n_minim_iter=1 energy=-11286.312198689026 stress="0.1016211281139606 -0.000308033234093656 -0.00021269262015145054 -0.000308033234093656 0.1020254906900284 -0.00011481215329982708 -0.00021269262015145054 -0.00011481215329982708 0.10211249183295447" free_energy=-11286.312198689026 pbc="T T T"
In      11.32356571       6.11249684       4.22059317        0      -0.04404240      -0.02377423      -0.01641577
In       8.63354760       4.66041650       3.21795210        1       0.04404240       0.02377423       0.01641577
In       4.67119461       2.52152573       1.74107808        2      -0.04404240      -0.02377423      -0.01641577
In       1.98117650       1.06944539       0.73843701        3       0.04404240       0.02377423       0.01641577
O        6.46535851       2.50162839       0.30423377        4      -0.00000000       0.03506293      -0.05078008
O        7.66568495       5.46874898       1.29603065        5      -0.02931278       0.05430272      -0.00000000
O        8.77823021       2.41933607       2.72747576        6       0.02931278      -0.01923980      -0.05078008
O        4.52651200       4.76260616       2.23155442        7      -0.02931278       0.01923980       0.05078008
O        6.83938370       4.68031384       4.65479641        8       0.00000000      -0.03506293       0.05078008
O        5.63905725       1.71319325       3.66299953        9       0.02931278      -0.05430272       0.00000000
10
Lattice="6.286481390686941 0.08971067352785808 0.06194395945911031 3.5245282427725257 5.20630357800012 0.06194395945911314 3.5245282427725257 1.9025515722640565 4.846620628364248" Properties=species:S:1:pos:R:3:spacegroup_kinds:I:1:forces:R:3 spacegroup="P 1" unit_cell=conventional occupancy="_JSON {\"0\": {\"In\": 1}, \"1\": {\"In\": 1}, \"2\": {\"In\": 1}, \"3\": {\"In\": 1}, \"4\": {\"O\": 1}, \"5\": {\"O\": 1}, \"6\": {\"O\": 1}, \"7\": {\"O\": 1}, \"8\": {\"O\": 1}, \"9\": {\"O\": 1}}" n_minim_iter=2 energy=-11286.312808725437 stress="0.10238140267150628 0.0007610280830694222 0.0005254791973890017 0.0007610280830694222 0.10138238294916362 0.00028365534446109784 0.0005254791973890017 0.00028365534446109784 0.10116743759477892" free_energy=-11286.312808725437 pbc="T T T"
In      11.34857064       6.12599458       4.22991318        0      -0.03868790      -0.02088385      -0.01442001
In       8.65473619       4.67185416       3.22584965        1       0.03868790       0.02088385       0.01442001
In       4.68080170       2.52671167       1.74465890        2      -0.03868790      -0.02088385      -0.01442001
In       1.98696725       1.07257125       0.74059538        3       0.03868790       0.02088385       0.01442001
O        6.47712517       2.51007800       0.30966755        4       0.00000000       0.02577514      -0.03732899
O        7.68296009       5.47844874       1.30457110        5      -0.02154815       0.03991852      -0.00000000
O        8.79581850       2.43055364       2.73297786        6       0.02154815      -0.01414338      -0.03732899
O        4.53971939       4.76801220       2.23753069        7      -0.02154815       0.01414338       0.03732899
O        6.85841272       4.68848783       4.66084100        8      -0.00000000      -0.02577514       0.03732899
O        5.65257780       1.72011710       3.66593745        9       0.02154815      -0.03991852      -0.00000000
10
Lattice="6.279676388422365 0.08284210433966668 0.05720130895160657 3.515052031283934 5.204383496143172 0.05720130895160938 3.5150520312839357 1.8974362831175737 4.846505454054723" Properties=species:S:1:pos:R:3:spacegroup_kinds:I:1:forces:R:3 spacegroup="P 1" unit_cell=conventional occupancy="_JSON {\"0\": {\"In\": 1}, \"1\": {\"In\": 1}, \"2\": {\"In\": 1}, \"3\": {\"In\": 1}, \"4\": {\"O\": 1}, \"5\": {\"O\": 1}, \"6\": {\"O\": 1}, \"7\": {\"O\": 1}, \"8\": {\"O\": 1}, \"9\": {\"O\": 1}}" n_minim_iter=3 energy=-11286.314647280959 stress="0.10051545619614399 4.128271018563355e-06 2.8505128827697852e-06 4.128271018563355e-06 0.10051003691540576 1.5387158454497603e-06 2.8505128827697852e-06 1.5387158454497603e-06 0.10050887092333803" free_energy=-11286.314647280959 pbc="T T T"
In      11.32136649       6.11130970       4.21977347        0       0.00046108       0.00024889       0.00017186
In       8.64330419       4.66568314       3.22158864        1      -0.00046108      -0.00024889      -0.00017186
In       4.66647627       2.51897876       1.73931943        2       0.00046108       0.00024889       0.00017186
In       1.98841397       1.07335220       0.74113461        3      -0.00046108      -0.00024889      -0.00017186
O        6.46728331       2.50779781       0.29819057        4      -0.00000000      -0.00011626       0.00016837
O        7.66450935       5.47774913       1.29742833        5       0.00009719      -0.00018005      -0.00000000
O        8.78510930       2.41854510       2.72144329        6      -0.00009719       0.00006379       0.00016837
O        4.52467116       4.76611680       2.23946478        7       0.00009719      -0.00006379      -0.00016837
O        6.84249715       4.67686408       4.66271751        8      -0.00000000       0.00011626      -0.00016837
O        5.64527111       1.70691276       3.66347975        9      -0.00009719       0.00018005      -0.00000000
