10
Lattice="5.752461068837152 -0.022841029456362343 -0.01577140987811036 3.1374058412286403 4.821619504745071 -0.015771409878110265 3.137405841228642 1.693581666794787 4.5144262674014515" Properties=species:S:1:pos:R:3:spacegroup_kinds:I:1:forces:R:3 spacegroup="P 1" unit_cell=conventional occupancy="_JSON {\"0\": {\"In\": 1}, \"1\": {\"In\": 1}, \"2\": {\"In\": 1}, \"3\": {\"In\": 1}, \"4\": {\"O\": 1}, \"5\": {\"O\": 1}, \"6\": {\"O\": 1}, \"7\": {\"O\": 1}, \"8\": {\"O\": 1}, \"9\": {\"O\": 1}}" n_minim_iter=5 energy=-11287.50766454754 stress="-0.054111087083384565 2.00322998182966e-05 1.3832021378197729e-05 2.00322998182966e-05 -0.05413738396209894 7.466568796738313e-06 1.3832021378197729e-05 7.466568796738313e-06 -0.05414304189958563" free_energy=-11287.50766454754 pbc="T T T"
In      10.32748932       5.57481163       3.84932909        0       0.00096687       0.00052192       0.00036038
In       7.71341982       4.16372859       2.87499608        1      -0.00096687      -0.00052192      -0.00036038
In       4.31385294       2.32863156       1.60788737        2       0.00096687       0.00052192       0.00036038
In       1.69978344       0.91754852       0.63355436        3      -0.00096687      -0.00052192      -0.00036038
O        5.88304873       2.26019974       0.17359779        4      -0.00000000      -0.00120416       0.00174393
O        6.90957716       5.02687218       1.10494945        5       0.00100668      -0.00186491       0.00000000
O        7.99392614       2.10259767       2.43081092        6      -0.00100668       0.00066075       0.00174393
O        4.03334663       4.38976249       2.05207253        7       0.00100668      -0.00066075      -0.00174393
O        6.14422403       4.23216042       4.30928567        8      -0.00000000       0.00120416      -0.00174393
O        5.11769560       1.46548797       3.37793400        9      -0.00100668       0.00186491      -0.00000000
