10
Lattice="6.402043085784747 0.07597542706015956 0.05245996478045891 3.576456734888132 5.310450561038542 0.05245996478046335 3.5764567348881346 1.9305827377178804 4.947371777213135" Properties=species:S:1:pos:R:3:spacegroup_kinds:I:1:forces:R:3 spacegroup="P 1" unit_cell=conventional occupancy="_JSON {\"0\": {\"In\": 1}, \"1\": {\"In\": 1}, \"2\": {\"In\": 1}, \"3\": {\"In\": 1}, \"4\": {\"O\": 1}, \"5\": {\"O\": 1}, \"6\": {\"O\": 1}, \"7\": {\"O\": 1}, \"8\": {\"O\": 1}, \"9\": {\"O\": 1}}" n_minim_iter=1 energy=-11285.216288609441 stress="0.12020957597078433 0.0003315951044930015 0.00022896176016584064 0.0003315951044930015 0.11977428316498069 0.00012359428740877078 0.00022896176016584064 0.00012359428740877078 0.11968062719018058" free_energy=-11285.216288609441 pbc="T T T"
In      11.52235080       6.21980167       4.29468565        0      -0.01282782      -0.00692450      -0.00478127
In       8.81008404       4.75571143       3.28375192        1       0.01282782       0.00692450       0.00478127
In       4.74487252       2.56129730       1.76853980        2      -0.01282782      -0.00692450      -0.00478127
In       2.03260577       1.09720707       0.75760606        3       0.01282782       0.00692450       0.00478127
O        6.58976069       2.56495858       0.27882808        4       0.00000000       0.03826223      -0.05541348
O        7.79469276       5.60303734       1.31553289        5      -0.03198742       0.05925755      -0.00000000
O        8.96128535       2.44967779       2.75251396        6       0.03198742      -0.02099532      -0.05541348
O        4.59367122       4.86733095       2.29977775        7      -0.03198742       0.02099532       0.05541348
O        6.96519588       4.75205016       4.77346364        8      -0.00000000      -0.03826223       0.05541348
O        5.76026380       1.71397140       3.73675882        9       0.03198742      -0.05925755      -0.00000000
10
Lattice="6.391961204987369 0.0657565747374641 0.04540399084666518 3.5623815751589274 5.307629365936637 0.04540399084666964 3.5623815751589287 1.9229849216619082 4.947233570350067" Properties=species:S:1:pos:R:3:spacegroup_kinds:I:1:forces:R:3 spacegroup="P 1" unit_cell=conventional occupancy="_JSON {\"0\": {\"In\": 1}, \"1\": {\"In\": 1}, \"2\": {\"In\": 1}, \"3\": {\"In\": 1}, \"4\": {\"O\": 1}, \"5\": {\"O\": 1}, \"6\": {\"O\": 1}, \"7\": {\"O\": 1}, \"8\": {\"O\": 1}, \"9\": {\"O\": 1}}" n_minim_iter=2 energy=-11285.216902799952 stress="0.1189882013308251 -0.0005994668102131083 -0.00041392340860716683 -0.0005994668102131083 0.11977513571533702 -0.00022343717433492442 -0.00041392340860716683 -0.00022343717433492442 0.11994444957971377" free_energy=-11285.216902799952 pbc="T T T"
In      11.48947913       6.20205743       4.28243350        0      -0.00874637      -0.00472132      -0.00326000
In       8.78560742       4.74249887       3.27462883        1       0.00874637       0.00472132       0.00326000
In       4.73111695       2.55387200       1.76341273        2      -0.00874637      -0.00472132      -0.00326000
In       2.02724524       1.09431344       0.75560805        3       0.00874637       0.00472132       0.00326000
O        6.57516170       2.55679155       0.26869351        4      -0.00000000       0.03460673      -0.05011938
O        7.77129902       5.59461305       1.30491438        5      -0.02893140       0.05359620       0.00000000
O        8.94140594       2.43445665       2.74231030        6       0.02893140      -0.01898947      -0.05011938
O        4.57531842       4.86191422       2.29573126        7      -0.02893140       0.01898947       0.05011938
O        6.94156267       4.73957933       4.76934804        8      -0.00000000      -0.03460673       0.05011938
O        5.74542534       1.70175782       3.73312718        9       0.02893140      -0.05359620      -0.00000000
10
Lattice="6.395702489300501 0.06955167424869746 0.04802445373053948 3.5676072217051473 5.3086746442659924 0.048024453730543926 3.567607221705149 1.925805742313011 4.947282594485884" Properties=species:S:1:pos:R:3:spacegroup_kinds:I:1:forces:R:3 spacegroup="P 1" unit_cell=conventional occupancy="_JSON {\"0\": {\"In\": 1}, \"1\": {\"In\": 1}, \"2\": {\"In\": 1}, \"3\": {\"In\": 1}, \"4\": {\"O\": 1}, \"5\": {\"O\": 1}, \"6\": {\"O\": 1}, \"7\": {\"O\": 1}, \"8\": {\"O\": 1}, \"9\": {\"O\": 1}}" n_minim_iter=3 energy=-11285.218816808614 stress="0.11850193344821804 1.4685906901836984e-05 1.0140412047234126e-05 1.4685906901836984e-05 0.11848265490847741 5.473826750769501e-06 1.0140412047234126e-05 5.473826750769501e-06 0.11847850700991448" free_energy=-11285.218816808614 pbc="T T T"
In      11.49989027       6.20767740       4.28631402        0       0.00211195       0.00114004       0.00078718
In       8.79648514       4.74837070       3.27868324        1      -0.00211195      -0.00114004      -0.00078718
In       4.73443181       2.55566137       1.76464826        2       0.00211195       0.00114004       0.00078718
In       2.03102667       1.09635467       0.75701749        3      -0.00211195      -0.00114004      -0.00078718
O        6.58058048       2.56566673       0.26399468        4      -0.00000000      -0.00016316       0.00023630
O        7.77509850       5.60678868       1.30885733        5       0.00013640      -0.00025269       0.00000000
O        8.95366969       2.43690210       2.73763598        6      -0.00013640       0.00008953       0.00023630
O        4.57724725       4.86712997       2.30569553        7       0.00013640      -0.00008953      -0.00023630
O        6.95033646       4.73836534       4.77933683        8       0.00000000       0.00016316      -0.00023630
O        5.75581845       1.69724339       3.73447418        9      -0.00013640       0.00025269      -0.00000000
