10
Lattice="5.690151985386527 -0.034495346206014424 -0.023818551827611903 3.0934724190397036 4.775923778532153 -0.02381855182760812 3.0934724190397054 1.6698662655543786 4.47454600120766" Properties=species:S:1:pos:R:3:spacegroup_kinds:I:1:forces:R:3 spacegroup="P 1" unit_cell=conventional occupancy="_JSON {\"0\": {\"In\": 1}, \"1\": {\"In\": 1}, \"2\": {\"In\": 1}, \"3\": {\"In\": 1}, \"4\": {\"O\": 1}, \"5\": {\"O\": 1}, \"6\": {\"O\": 1}, \"7\": {\"O\": 1}, \"8\": {\"O\": 1}, \"9\": {\"O\": 1}}" n_minim_iter=5 energy=-11287.276265463855 stress="-0.0862772837031125 1.5997565964031526e-05 1.1046094348845786e-05 1.5997565964031526e-05 -0.08629828409018177 5.962716790908243e-06 1.1046094348845786e-05 5.962716790908243e-06 -0.08630280245435247" free_energy=-11287.276265463855 pbc="T T T"
In      10.20648212       5.50949156       3.80422650        0       0.00090692       0.00048956       0.00033803
In       7.60916313       4.10745050       2.83613685        1      -0.00090692      -0.00048956      -0.00033803
In       4.26793371       2.30384421       1.59077205        2       0.00090692       0.00048956       0.00033803
In       1.67061471       0.90180315       0.62268240        3      -0.00090692      -0.00048956      -0.00033803
O        5.81435020       2.23446334       0.15506336        4       0.00000000       0.00002482      -0.00003595
O        6.81861336       4.97848389       1.08290867        5      -0.00002075       0.00003845       0.00000000
O        7.90355946       2.06445048       2.39233636        6       0.00002075      -0.00001362      -0.00003595
O        3.97353737       4.34684423       2.03457254        7      -0.00002075       0.00001362       0.00003595
O        6.06274663       4.17683137       4.27184554        8       0.00000000      -0.00002482       0.00003595
O        5.05848347       1.43281082       3.34400023        9       0.00002075      -0.00003845      -0.00000000
