10
Lattice="6.228723430188764 0.07608681377647976 0.05253687574288065 3.481445573401873 5.165493344536767 0.05253687574287998 3.4814455734018708 1.8792954101048958 4.811790766162338" Properties=species:S:1:pos:R:3:spacegroup_kinds:I:1:forces:R:3 spacegroup="P 1" unit_cell=conventional occupancy="_JSON {\"0\": {\"In\": 1}, \"1\": {\"In\": 1}, \"2\": {\"In\": 1}, \"3\": {\"In\": 1}, \"4\": {\"O\": 1}, \"5\": {\"O\": 1}, \"6\": {\"O\": 1}, \"7\": {\"O\": 1}, \"8\": {\"O\": 1}, \"9\": {\"O\": 1}}" n_minim_iter=1 energy=-11286.630723229333 stress="0.09204569189120884 -0.0007221966672585352 -0.0004986666500053834 -0.0007221966672585352 0.0929937366876748 -0.0002691818463806409 -0.0004986666500053834 -0.0002691818463806409 0.09319771446720014" free_energy=-11286.630723229333 pbc="T T T"
In      11.23490594       6.06463802       4.18754733        0      -0.05306605      -0.02864522      -0.01977912
In       8.55251594       4.61667535       3.18774945        1       0.05306605       0.02864522       0.01977912
In       4.63909865       2.50420023       1.72911507        2      -0.05306605      -0.02864522      -0.01977912
In       1.95670865       1.05623756       0.72931719        3       0.05306605       0.02864522       0.01977912
O        6.41226536       2.47618560       0.30264360        4       0.00000000       0.02609002      -0.03778501
O        7.60296099       5.41994916       1.28175301        5      -0.02181139       0.04040619       0.00000000
O        8.70301531       2.39689312       2.70853898        6       0.02181139      -0.01431616      -0.03778501
O        4.48859928       4.72398246       2.20832554        7      -0.02181139       0.01431616       0.03778501
O        6.77934922       4.64468998       4.61422092        8       0.00000000      -0.02609002       0.03778501
O        5.58865359       1.70092642       3.63511151        9       0.02181139      -0.04040619       0.00000000
10
Lattice="6.238407893457295 0.0858731827036457 0.05929422596930584 3.4949411031762416 5.1682196096902855 0.0592942259693052 3.494941103176239 1.8865803400649308 4.811946005484788" Properties=species:S:1:pos:R:3:spacegroup_kinds:I:1:forces:R:3 spacegroup="P 1" unit_cell=conventional occupancy="_JSON {\"0\": {\"In\": 1}, \"1\": {\"In\": 1}, \"2\": {\"In\": 1}, \"3\": {\"In\": 1}, \"4\": {\"O\": 1}, \"5\": {\"O\": 1}, \"6\": {\"O\": 1}, \"7\": {\"O\": 1}, \"8\": {\"O\": 1}, \"9\": {\"O\": 1}}" n_minim_iter=2 energy=-11286.631217642313 stress="0.09304576786766075 0.0005459910619730847 0.0003769991557787474 0.0005459910619730847 0.09232903237351071 0.000203505344805425 0.0003769991557787474 0.000203505344805425 0.09217482223957055" free_energy=-11286.631217642313 pbc="T T T"
In      11.26538120       6.08108866       4.19890626        0      -0.05487939      -0.02962407      -0.02045500
In       8.57705396       4.62992105       3.19689543        1       0.05487939       0.02962407       0.02045500
In       4.65123615       2.51075209       1.73363904        2      -0.05487939      -0.02962407      -0.02045500
In       1.96290891       1.05958449       0.73162820        3       0.05487939       0.02962407       0.02045500
O        6.42627648       2.48548770       0.31022252        4       0.00000000       0.02016853      -0.02920918
O        7.62417172       5.43031781       1.29192784        5      -0.01686099       0.03123544      -0.00000000
O        8.72332234       2.41067474       2.71619552        6       0.01686099      -0.01106691      -0.02920918
O        4.50496777       4.72999841       2.21433894        7      -0.01686099       0.01106691       0.02920918
O        6.80201363       4.65518545       4.62031194        8      -0.00000000      -0.02016853       0.02920918
O        5.60411839       1.71035533       3.63860662        9       0.01686099      -0.03123544       0.00000000
10
Lattice="6.22931988779263 0.0766902412454544 0.05295353393086168 3.4822773310917223 5.165660872232694 0.05295353393086104 3.48227733109172 1.8797443955553073 4.811799801638679" Properties=species:S:1:pos:R:3:spacegroup_kinds:I:1:forces:R:3 spacegroup="P 1" unit_cell=conventional occupancy="_JSON {\"0\": {\"In\": 1}, \"1\": {\"In\": 1}, \"2\": {\"In\": 1}, \"3\": {\"In\": 1}, \"4\": {\"O\": 1}, \"5\": {\"O\": 1}, \"6\": {\"O\": 1}, \"7\": {\"O\": 1}, \"8\": {\"O\": 1}, \"9\": {\"O\": 1}}" n_minim_iter=3 energy=-11286.632664273708 stress="0.0911727862974009 -0.000721516538510864 -0.0004981970306911953 -0.000721516538510864 0.09211993827305823 -0.00026892834438034974 -0.0004981970306911953 -0.00026892834438034974 0.0923237239561142" free_energy=-11286.632664273708 pbc="T T T"
In      11.23109688       6.06258188       4.18612759        0      -0.01653622      -0.00892631      -0.00616349
In       8.55971495       4.62056140       3.19043272        1       0.01653622       0.00892631       0.00616349
In       4.63415961       2.50153412       1.72727416        2      -0.01653622      -0.00892631      -0.00616349
In       1.96277768       1.05951365       0.73157928        3       0.01653622       0.00892631       0.00616349
O        6.41312859       2.47914101       0.29966099        4      -0.00000000       0.00725120      -0.01050159
O        7.60227656       5.42427712       1.28238025        5      -0.00606204       0.01123009      -0.00000000
O        8.70625794       2.39643553       2.70556089        6       0.00606204      -0.00397889      -0.01050159
O        4.48761662       4.72565999       2.21214598        7      -0.00606204       0.00397889       0.01050159
O        6.78074597       4.64295451       4.61804589        8       0.00000000      -0.00725120       0.01050159
O        5.59159800       1.69781840       3.63532662        9       0.00606204      -0.01123009       0.00000000
10
Lattice="6.233499048543315 0.08091567918539219 0.055871139452652784 3.4881030150768835 5.166836081349984 0.055871139452652145 3.488103015076882 1.8828891183272725 4.811865048382854" Properties=species:S:1:pos:R:3:spacegroup_kinds:I:1:forces:R:3 spacegroup="P 1" unit_cell=conventional occupancy="_JSON {\"0\": {\"In\": 1}, \"1\": {\"In\": 1}, \"2\": {\"In\": 1}, \"3\": {\"In\": 1}, \"4\": {\"O\": 1}, \"5\": {\"O\": 1}, \"6\": {\"O\": 1}, \"7\": {\"O\": 1}, \"8\": {\"O\": 1}, \"9\": {\"O\": 1}}" n_minim_iter=4 energy=-11286.63306156103 stress="0.0913786865769023 -0.0001848780156942652 -0.0001276556714581104 -0.0001848780156942652 0.09162138035852398 -6.890893838291461e-05 -0.0001276556714581104 -6.890893838291461e-05 0.0916735974471103" free_energy=-11286.63306156103 pbc="T T T"
In      11.24268033       6.06883466       4.19044505        0      -0.00686961      -0.00370824      -0.00256049
In       8.57187730       4.62712667       3.19496594        1       0.00686961       0.00370824       0.00256049
In       4.63782779       2.50351422       1.72864139        2      -0.00686961      -0.00370824      -0.00256049
In       1.96702476       1.06180623       0.73316228        3       0.00686961       0.00370824       0.00256049
O        6.41917580       2.48375900       0.30206060        4      -0.00000000      -0.00012243       0.00017731
O        7.61092819       5.42968516       1.28677297        5       0.00010235      -0.00018961      -0.00000000
O        8.71552642       2.40205451       2.70799313        6      -0.00010235       0.00006718       0.00017731
O        4.49417867       4.72858638       2.21561421        7       0.00010235      -0.00006718      -0.00017731
O        6.79052929       4.64688189       4.62154673        8      -0.00000000       0.00012243      -0.00017731
O        5.59877690       1.70095573       3.63683436        9      -0.00010235       0.00018961      -0.00000000
