10
Lattice="5.927992512730358 0.005498197787424349 0.003796428311693266 3.2574155143853627 4.9528143138833345 0.003796428311692822 3.2574155143853627 1.7583632706362182 4.630177388519049" Properties=species:S:1:pos:R:3:spacegroup_kinds:I:1:forces:R:3 spacegroup="P 1" unit_cell=conventional occupancy="_JSON {\"0\": {\"In\": 1}, \"1\": {\"In\": 1}, \"2\": {\"In\": 1}, \"3\": {\"In\": 1}, \"4\": {\"O\": 1}, \"5\": {\"O\": 1}, \"6\": {\"O\": 1}, \"7\": {\"O\": 1}, \"8\": {\"O\": 1}, \"9\": {\"O\": 1}}" n_minim_iter=1 energy=-11287.639498793753 stress="0.02302657391294665 -0.0009003633552515248 -0.000621688244910534 -0.0009003633552515248 0.02420850237246439 -0.00033558929444069184 -0.000621688244910534 -0.00033558929444069184 0.024462801686428916" free_energy=-11287.639498793753 pbc="T T T"
In      10.66585210       5.75746094       3.97544588        0      -0.02473968      -0.01335456      -0.00922113
In       7.99838322       4.31755274       2.98120950        1       0.02473968       0.01335456       0.00922113
In       4.44444033       2.39912305       1.65656075        2      -0.02473968      -0.01335456      -0.00922113
In       1.77697145       0.95921485       0.66232437        3       0.02473968       0.01335456       0.00922113
O        6.07470215       2.33217280       0.21960583        4       0.00000000      -0.03154184       0.04568064
O        7.15979370       5.16538894       1.16323899        5       0.02636913      -0.04884953       0.00000000
O        8.24702611       2.20429070       2.53469453        6      -0.02636913       0.01730770       0.04568064
O        4.19579744       4.51238509       2.10307572        7       0.02636913      -0.01730770      -0.04568064
O        6.36812140       4.38450300       4.41816441        8       0.00000000       0.03154184      -0.04568064
O        5.28302986       1.55128686       3.47453126        9      -0.02636913       0.04884953      -0.00000000
10
Lattice="5.9380637119390345 0.01585840222523085 0.010950003894695208 3.271602983966453 4.955549016130314 0.010950003894694773 3.2716029839664524 1.766021711907984 4.630200132491579" Properties=species:S:1:pos:R:3:spacegroup_kinds:I:1:forces:R:3 spacegroup="P 1" unit_cell=conventional occupancy="_JSON {\"0\": {\"In\": 1}, \"1\": {\"In\": 1}, \"2\": {\"In\": 1}, \"3\": {\"In\": 1}, \"4\": {\"O\": 1}, \"5\": {\"O\": 1}, \"6\": {\"O\": 1}, \"7\": {\"O\": 1}, \"8\": {\"O\": 1}, \"9\": {\"O\": 1}}" n_minim_iter=2 energy=-11287.640117471998 stress="0.02377249468119801 0.0003645013547886973 0.0002516830639964772 0.0003645013547886973 0.023294005055461937 0.0001358593193708446 0.0002516830639964772 0.0001358593193708446 0.023191055013819236" free_energy=-11287.640117471998 pbc="T T T"
In      10.69845320       5.77505912       3.98759717        0      -0.04581051      -0.02472866      -0.01707479
In       8.02345133       4.33108459       2.99055305        1       0.04581051       0.02472866       0.01707479
In       4.45781836       2.40634455       1.66154710        2      -0.04581051      -0.02472866      -0.01707479
In       1.78281649       0.96237002       0.66450298        3       0.04581051       0.02472866       0.01707479
O        6.08934928       2.34108907       0.22886821        4      -0.00000000      -0.02926335       0.04238081
O        7.18274858       5.17487572       1.17397504        5       0.02446431      -0.04532079       0.00000000
O        8.26755296       2.21928520       2.54396827        6      -0.02446431       0.01605744       0.04238081
O        4.21371673       4.51814394       2.10813187        7       0.02446431      -0.01605744      -0.04238081
O        6.39192041       4.39634008       4.42323194        8      -0.00000000       0.02926335      -0.04238081
O        5.29852111       1.56255342       3.47812510        9      -0.02446431       0.04532079      -0.00000000
10
Lattice="5.938112469936525 0.01590848900528948 0.010984588112507687 3.2716716113426734 4.955562294348898 0.010984588112507262 3.2716716113426743 1.7660587571842696 4.630200295939829" Properties=species:S:1:pos:R:3:spacegroup_kinds:I:1:forces:R:3 spacegroup="P 1" unit_cell=conventional occupancy="_JSON {\"0\": {\"In\": 1}, \"1\": {\"In\": 1}, \"2\": {\"In\": 1}, \"3\": {\"In\": 1}, \"4\": {\"O\": 1}, \"5\": {\"O\": 1}, \"6\": {\"O\": 1}, \"7\": {\"O\": 1}, \"8\": {\"O\": 1}, \"9\": {\"O\": 1}}" n_minim_iter=3 energy=-11287.642536356456 stress="0.02145102059716467 -0.0005839291989383448 -0.0004031949070304911 -0.0005839291989383448 0.022217558389024093 -0.00021764589505755683 -0.0004031949070304911 -0.00021764589505755683 0.022382483798644114" free_energy=-11287.642536356456 pbc="T T T"
In      10.69135598       5.77122802       3.98495185        0      -0.02486116      -0.01342013      -0.00926641
In       8.03082757       4.33506631       2.99330237        1       0.02486116       0.01342013       0.00926641
In       4.45062813       2.40246325       1.65886711        2      -0.02486116      -0.01342013      -0.00926641
In       1.79009972       0.96630154       0.66721763        3       0.02486116       0.01342013       0.00926641
O        6.08942016       2.33571471       0.23675890        4       0.00000000       0.01027480      -0.01488053
O        7.18738869       5.16653146       1.17402696        5      -0.00858978       0.01591280       0.00000000
O        8.26312324       2.22233041       2.55185905        6       0.00858978      -0.00563801      -0.01488053
O        4.21833246       4.51519914       2.10031043        7      -0.00858978       0.00563801       0.01488053
O        6.39203554       4.40181485       4.41541057        8       0.00000000      -0.01027480       0.01488053
O        5.29406701       1.57099810       3.47814252        9       0.00858978      -0.01591280      -0.00000000
10
Lattice="5.943083570165227 0.021011525328182186 0.014508162985741153 3.278665526443483 4.956918011413503 0.01450816298574074 3.2786655264434836 1.7698340948336744 4.630219642245184" Properties=species:S:1:pos:R:3:spacegroup_kinds:I:1:forces:R:3 spacegroup="P 1" unit_cell=conventional occupancy="_JSON {\"0\": {\"In\": 1}, \"1\": {\"In\": 1}, \"2\": {\"In\": 1}, \"3\": {\"In\": 1}, \"4\": {\"O\": 1}, \"5\": {\"O\": 1}, \"6\": {\"O\": 1}, \"7\": {\"O\": 1}, \"8\": {\"O\": 1}, \"9\": {\"O\": 1}}" n_minim_iter=4 energy=-11287.642827127605 stress="0.021492817427962083 -0.00013604782555036584 -9.393911221482655e-05 -0.00013604782555036584 0.021671410654610847 -5.0708631866573885e-05 -9.393911221482655e-05 -5.0708631866573885e-05 0.021709836106279547" free_energy=-11287.642827127605 pbc="T T T"
In      10.70633259       5.77931244       3.99053403        0      -0.03074051      -0.01659383      -0.01145780
In       8.04428936       4.34233302       2.99831993        1       0.03074051       0.01659383       0.01145780
In       4.45612528       2.40543062       1.66091604        2      -0.03074051      -0.01659383      -0.01145780
In       1.79408205       0.96845121       0.66870195        3       0.03074051       0.01659383       0.01145780
O        6.09664545       2.33983741       0.24171723        4      -0.00000000       0.01247461      -0.01806642
O        7.19893635       5.17079025       1.17931716        5      -0.01042884       0.01931970       0.00000000
O        8.27302007       2.22986989       2.55682705        6       0.01042884      -0.00684509      -0.01806642
O        4.22739457       4.51789375       2.10240892        7      -0.01042884       0.00684509       0.01806642
O        6.40376919       4.40792623       4.41751874        8       0.00000000      -0.01247461       0.01806642
O        5.30147828       1.57697340       3.47991882        9       0.01042884      -0.01931970       0.00000000
10
Lattice="5.952476259544555 0.03063447100079955 0.02115267175131956 3.291864330855243 4.9594900260508705 0.02115267175131921 3.2918643308552418 1.776958851497802 4.630270617804526" Properties=species:S:1:pos:R:3:spacegroup_kinds:I:1:forces:R:3 spacegroup="P 1" unit_cell=conventional occupancy="_JSON {\"0\": {\"In\": 1}, \"1\": {\"In\": 1}, \"2\": {\"In\": 1}, \"3\": {\"In\": 1}, \"4\": {\"O\": 1}, \"5\": {\"O\": 1}, \"6\": {\"O\": 1}, \"7\": {\"O\": 1}, \"8\": {\"O\": 1}, \"9\": {\"O\": 1}}" n_minim_iter=5 energy=-11287.643153232199 stress="0.02148824193909163 0.0006198672111737897 0.0004280095988118954 0.0006198672111737897 0.02067452746055028 0.00023104094456119435 0.0004280095988118954 0.00023104094456119435 0.020499451691187037" free_energy=-11287.643153232199 pbc="T T T"
In      10.73290319       5.79365533       4.00043759        0      -0.03227206      -0.01742056      -0.01202865
In       8.07140420       4.35696970       3.00842635        1       0.03227206       0.01742056       0.01202865
In       4.46480073       2.41011366       1.66414961        2      -0.03227206      -0.01742056      -0.01202865
In       1.80330174       0.97342803       0.67213837        3       0.03227206       0.01742056       0.01202865
O        6.11028936       2.34778443       0.25082838        4       0.00000000       0.01263968      -0.01830548
O        7.22059618       5.17909353       1.18929666        5      -0.01056683       0.01957534       0.00000000
O        8.29184688       2.24400342       2.56596369        6       0.01056683      -0.00693567      -0.01830548
O        4.24435805       4.52307994       2.10661228        7      -0.01056683       0.00693567       0.01830548
O        6.42591557       4.41929893       4.42174759        8      -0.00000000      -0.01263968       0.01830548
O        5.31560875       1.58798983       3.48327930        9       0.01056683      -0.01957534      -0.00000000
10
Lattice="5.949954019026299 0.02805283279968676 0.01937008685055913 3.288322059975359 4.958798021681745 0.019370086850558806 3.288322059975356 1.7750467223935082 4.630255085135103" Properties=species:S:1:pos:R:3:spacegroup_kinds:I:1:forces:R:3 spacegroup="P 1" unit_cell=conventional occupancy="_JSON {\"0\": {\"In\": 1}, \"1\": {\"In\": 1}, \"2\": {\"In\": 1}, \"3\": {\"In\": 1}, \"4\": {\"O\": 1}, \"5\": {\"O\": 1}, \"6\": {\"O\": 1}, \"7\": {\"O\": 1}, \"8\": {\"O\": 1}, \"9\": {\"O\": 1}}" n_minim_iter=6 energy=-11287.643668037315 stress="0.020535816923049934 -0.00020963182618483273 -0.00014474782977270205 -0.00020963182618483273 0.020811005622157323 -7.813533942922675e-05 -0.00014474782977270205 -7.813533942922675e-05 0.0208702141952721" free_energy=-11287.643668037315 pbc="T T T"
In      10.72080144       5.78712277       3.99592695        0      -0.00138751      -0.00074898      -0.00051716
In       8.06909578       4.35572361       3.00756594        1       0.00138751       0.00074898       0.00051716
In       4.45750237       2.40617398       1.66142932        2      -0.00138751      -0.00074898      -0.00051716
In       1.80579671       0.97477482       0.67306831        3       0.00138751       0.00074898       0.00051716
O        6.10662655       2.34605124       0.24780500        4       0.00000000       0.00229034      -0.00331700
O        7.21444823       5.17748298       1.18661890        5      -0.00191474       0.00354710      -0.00000000
O        8.28712693       2.23999144       2.56293254        6       0.00191474      -0.00125676      -0.00331700
O        4.23947122       4.52190614       2.10606272        7      -0.00191474       0.00125676       0.00331700
O        6.41997160       4.41584635       4.42119027        8       0.00000000      -0.00229034       0.00331700
O        5.31214992       1.58441460       3.48237636        9       0.00191474      -0.00354710       0.00000000
