10
Lattice="6.084790552279071 0.06885645596243634 0.04754441527306555 3.3964218437802693 5.049132196301121 0.04754441527306519 3.396421843780269 1.8333993300257982 4.704746890514851" Properties=species:S:1:pos:R:3:spacegroup_kinds:I:1:forces:R:3 spacegroup="P 1" unit_cell=conventional occupancy="_JSON {\"0\": {\"In\": 1}, \"1\": {\"In\": 1}, \"2\": {\"In\": 1}, \"3\": {\"In\": 1}, \"4\": {\"O\": 1}, \"5\": {\"O\": 1}, \"6\": {\"O\": 1}, \"7\": {\"O\": 1}, \"8\": {\"O\": 1}, \"9\": {\"O\": 1}}" n_minim_iter=6 energy=-11287.380468157104 stress="0.05629920921831703 -0.00019156035822156812 -0.00013226973566495627 -0.00019156035822156812 0.056550675071206195 -7.139962463954399e-05 -0.00013226973566495627 -7.139962463954399e-05 0.056604779524898535" free_energy=-11287.380468157104 pbc="T T T"
In      10.98606700       5.93031397       4.09479846        0       0.00555836       0.00300042       0.00207175
In       8.33038437       4.49676802       3.10495513        1      -0.00555836      -0.00300042      -0.00207175
In       4.54724988       2.45461997       1.69488060        2       0.00555836       0.00300042       0.00207175
In       1.89156725       1.02107403       0.70503727        3      -0.00555836      -0.00300042      -0.00207175
O        6.26180384       2.41478603       0.29321140        4       0.00000000      -0.00343000       0.00496752
O        7.42287253       5.29191185       1.24750335        5       0.00286750      -0.00531212       0.00000000
O        8.49715700       2.33641518       2.64558485        6      -0.00286750       0.00188212       0.00496752
O        4.38047725       4.61497281       2.15425088        7       0.00286750      -0.00188212      -0.00496752
O        6.61583041       4.53660196       4.50662433        8      -0.00000000       0.00343000      -0.00496752
O        5.45476172       1.65947615       3.55233238        9      -0.00286750       0.00531212      -0.00000000
