10
Lattice="5.569561800806396 -0.05074013842003851 -0.03503535258003245 3.0137212230878645 4.684023655379896 -0.035035352580027344 3.0137212230878676 1.6268163159450175 4.392581673032834" Properties=species:S:1:pos:R:3:spacegroup_kinds:I:1:forces:R:3 spacegroup="P 1" unit_cell=conventional occupancy="_JSON {\"0\": {\"In\": 1}, \"1\": {\"In\": 1}, \"2\": {\"In\": 1}, \"3\": {\"In\": 1}, \"4\": {\"O\": 1}, \"5\": {\"O\": 1}, \"6\": {\"O\": 1}, \"7\": {\"O\": 1}, \"8\": {\"O\": 1}, \"9\": {\"O\": 1}}" n_minim_iter=1 energy=-11286.45789368028 stress="-0.1620241402147519 0.0030083896234567456 0.002077250760892149 0.0030083896234567456 -0.16597332505301976 0.0011213065778655383 0.002077250760892149 0.0011213065778655383 -0.16682301691926965" free_energy=-11286.45789368028 pbc="T T T"
In       9.97783958       5.38606959       3.71900537        0       0.03742006       0.02019947       0.01394745
In       7.41766680       4.00408017       2.76476109        1      -0.03742006      -0.02019947      -0.01394745
In       4.17933746       2.25601968       1.55774988        2       0.03742006       0.02019947       0.01394745
In       1.61916467       0.87403025       0.60350560        3      -0.03742006      -0.02019947      -0.01394745
O        5.68403197       2.18338157       0.13082943        4       0.00000000       0.03517826      -0.05094711
O        6.65273387       4.87862029       1.04559239        5      -0.02940920       0.05448135       0.00000000
O        7.72905129       1.99983616       2.32712027        6       0.02940920      -0.01930308      -0.05094711
O        3.86795297       4.26026368       1.99539070        7      -0.02940920       0.01930308       0.05094711
O        5.91297229       4.07671827       4.19168154        8       0.00000000      -0.03517826       0.05094711
O        4.94427039       1.38147955       3.27691858        9       0.02940920      -0.05448135      -0.00000000
10
Lattice="5.556253345378017 -0.06470316592340548 -0.044676626863034745 2.9947454222535206 4.680559538516364 -0.0446766268630296 2.9947454222535237 1.61657311821029 4.392758239200537" Properties=species:S:1:pos:R:3:spacegroup_kinds:I:1:forces:R:3 spacegroup="P 1" unit_cell=conventional occupancy="_JSON {\"0\": {\"In\": 1}, \"1\": {\"In\": 1}, \"2\": {\"In\": 1}, \"3\": {\"In\": 1}, \"4\": {\"O\": 1}, \"5\": {\"O\": 1}, \"6\": {\"O\": 1}, \"7\": {\"O\": 1}, \"8\": {\"O\": 1}, \"9\": {\"O\": 1}}" n_minim_iter=2 energy=-11286.460140739264 stress="-0.16404348263074495 -9.565279537204662e-06 -6.604691056891653e-06 -9.565279537204662e-06 -0.16403092605959332 -3.5652331784861012e-06 -6.604691056891653e-06 -3.5652331784861012e-06 -0.1640282244341617" free_energy=-11286.460140739264 pbc="T T T"
In       9.93400434       5.36240719       3.70266681        0       0.07773811       0.04196328       0.02897506
In       7.38461195       3.98623706       2.75244067        1      -0.07773811      -0.04196328      -0.02897506
In       4.16113225       2.24619244       1.55096432        2       0.07773811       0.04196328       0.02897506
In       1.61173986       0.87002231       0.60073818        3      -0.07773811      -0.04196328      -0.02897506
O        5.66456272       2.17116343       0.11879784        4       0.00000000       0.01970616      -0.02853956
O        6.62237143       4.86559247       1.03117462        5      -0.01647445       0.03051937       0.00000000
O        7.70149944       1.97989309       2.31517696        6       0.01647445      -0.01081320      -0.02853956
O        3.84424476       4.25253642       1.98822803        7      -0.01647445       0.01081320       0.02853956
O        5.88118147       4.06126607       4.18460715        8       0.00000000      -0.01970616       0.02853956
O        4.92337276       1.36683703       3.27223037        9       0.01647445      -0.03051937       0.00000000
10
Lattice="5.544597385146183 -0.07698029706161776 -0.05315381339606644 2.9780857994000822 4.677551827710436 -0.05315381339606127 2.9780857994000853 1.6075802007274673 4.39294916053268" Properties=species:S:1:pos:R:3:spacegroup_kinds:I:1:forces:R:3 spacegroup="P 1" unit_cell=conventional occupancy="_JSON {\"0\": {\"In\": 1}, \"1\": {\"In\": 1}, \"2\": {\"In\": 1}, \"3\": {\"In\": 1}, \"4\": {\"O\": 1}, \"5\": {\"O\": 1}, \"6\": {\"O\": 1}, \"7\": {\"O\": 1}, \"8\": {\"O\": 1}, \"9\": {\"O\": 1}}" n_minim_iter=3 energy=-11286.463241968291 stress="-0.16285605276278525 -0.0016237853494425046 -0.0011212009661736217 -0.0016237853494425046 -0.16072447099246787 -0.0006052278535360471 -0.0011212009661736217 -0.0006052278535360471 -0.16026584781438205" free_energy=-11286.463241968291 pbc="T T T"
In       9.90655477       5.34758983       3.69243563        0       0.02388421       0.01289277       0.00890228
In       7.34459871       3.96463778       2.73752668        1      -0.02388421      -0.01289277      -0.00890228
In       4.15617028       2.24351396       1.54911486        2       0.02388421       0.01289277       0.00890228
In       1.59421422       0.86056192       0.59420591        3      -0.02388421      -0.01289277      -0.00890228
O        5.64749094       2.16329719       0.10408040        4       0.00000000       0.00771858      -0.01117847
O        6.59334010       4.85860480       1.01850657        5      -0.00645277       0.01195393      -0.00000000
O        7.67972758       1.96080620       2.30055498        6       0.00645277      -0.00423535      -0.01117847
O        3.82104141       4.24734554       1.98608656        7      -0.00645277       0.00423535       0.01117847
O        5.85327805       4.04485455       4.18256114        8       0.00000000      -0.00771858       0.01117847
O        4.90742889       1.34954694       3.26813497        9       0.00645277      -0.01195393      -0.00000000
10
Lattice="5.549352487998812 -0.07196633956607461 -0.04969174620138465 2.9848867216782233 4.678775849390336 -0.04969174620137949 2.9848867216782264 1.6112513602364475 4.3928671471619705" Properties=species:S:1:pos:R:3:spacegroup_kinds:I:1:forces:R:3 spacegroup="P 1" unit_cell=conventional occupancy="_JSON {\"0\": {\"In\": 1}, \"1\": {\"In\": 1}, \"2\": {\"In\": 1}, \"3\": {\"In\": 1}, \"4\": {\"O\": 1}, \"5\": {\"O\": 1}, \"6\": {\"O\": 1}, \"7\": {\"O\": 1}, \"8\": {\"O\": 1}, \"9\": {\"O\": 1}}" n_minim_iter=4 energy=-11286.463930003076 stress="-0.1617297819669548 -0.00020710994914990795 -0.00014300650945740822 -0.00020710994914990795 -0.1614579037960701 -7.719536963874684e-05 -0.00014300650945740822 -7.719536963874684e-05 -0.16139940750395462" free_energy=-11286.463930003076 pbc="T T T"
In       9.92451565       5.35728517       3.69913012        0      -0.00536718      -0.00289722      -0.00200049
In       7.35417325       3.96980615       2.74109536        1       0.00536718       0.00289722       0.00200049
In       4.16495269       2.24825473       1.55238830        2      -0.00536718      -0.00289722      -0.00200049
In       1.59461029       0.86077572       0.59435353        3       0.00536718       0.00289722       0.00200049
O        5.65445773       2.16847644       0.10723958        4       0.00000000       0.01125869      -0.01630545
O        6.60354435       4.86450304       1.02367917        5      -0.00941232       0.01743657       0.00000000
O        7.69025784       1.96751905       2.30367316        6       0.00941232      -0.00617789      -0.01630545
O        3.82886810       4.25054183       1.98981050        7      -0.00941232       0.00617789       0.01630545
O        5.86466821       4.04958444       4.18624408        8      -0.00000000      -0.01125869       0.01630545
O        4.91558159       1.35355784       3.26980449        9       0.00941232      -0.01743657       0.00000000
10
Lattice="5.550278756831404 -0.07099052266624997 -0.04901795834420758 2.9862107734150403 4.679014762701909 -0.04901795834420242 2.9862107734150416 1.611966087581534 4.3928518347776855" Properties=species:S:1:pos:R:3:spacegroup_kinds:I:1:forces:R:3 spacegroup="P 1" unit_cell=conventional occupancy="_JSON {\"0\": {\"In\": 1}, \"1\": {\"In\": 1}, \"2\": {\"In\": 1}, \"3\": {\"In\": 1}, \"4\": {\"O\": 1}, \"5\": {\"O\": 1}, \"6\": {\"O\": 1}, \"7\": {\"O\": 1}, \"8\": {\"O\": 1}, \"9\": {\"O\": 1}}" n_minim_iter=5 energy=-11286.463985637174 stress="-0.16151284205639813 2.492282794272459e-05 1.7208862587089696e-05 2.492282794272459e-05 -0.1615455588465114 9.289398534292219e-06 1.7208862587089696e-05 9.289398534292219e-06 -0.1615525980695411" free_energy=-11286.463985637174 pbc="T T T"
In       9.92803224       5.35918343       3.70044085        0      -0.00748281      -0.00403924      -0.00278904
In       7.35601823       3.97080207       2.74178303        1       0.00748281       0.00403924       0.00278904
In       4.16668209       2.24918827       1.55303289        2      -0.00748281      -0.00403924      -0.00278904
In       1.59466807       0.86080691       0.59437507        3       0.00748281       0.00403924       0.00278904
O        5.65581446       2.16970163       0.10754035        4      -0.00000000       0.00779958      -0.01129578
O        6.60534999       4.86598757       1.02468602        5      -0.00652049       0.01207938       0.00000000
O        7.69248970       1.96870681       2.30396627        6       0.00652049      -0.00427980      -0.01129578
O        3.83021061       4.25128353       1.99084965        7      -0.00652049       0.00427980       0.01129578
O        5.86688585       4.05028871       4.18727557        8      -0.00000000      -0.00779958       0.01129578
O        4.91735033       1.35400277       3.27012990        9       0.00652049      -0.01207938      -0.00000000
10
Lattice="5.550715059953079 -0.07053097941520546 -0.04870065018685028 2.9868343629182683 4.679127352865904 -0.048700650186845114 2.98683436291827 1.6123027031817196 4.392844696888267" Properties=species:S:1:pos:R:3:spacegroup_kinds:I:1:forces:R:3 spacegroup="P 1" unit_cell=conventional occupancy="_JSON {\"0\": {\"In\": 1}, \"1\": {\"In\": 1}, \"2\": {\"In\": 1}, \"3\": {\"In\": 1}, \"4\": {\"O\": 1}, \"5\": {\"O\": 1}, \"6\": {\"O\": 1}, \"7\": {\"O\": 1}, \"8\": {\"O\": 1}, \"9\": {\"O\": 1}}" n_minim_iter=6 energy=-11286.464011466061 stress="-0.16145739776342802 7.57973184725788e-05 5.233698360558026e-05 7.57973184725788e-05 -0.16155689871178228 2.82516705510014e-05 5.233698360558026e-05 2.82516705510014e-05 -0.16157830696411773" free_energy=-11286.464011466061 pbc="T T T"
In       9.92952425       5.35998882       3.70099696        0      -0.00407339      -0.00219883      -0.00151826
In       7.35705144       3.97135980       2.74216814        1       0.00407339       0.00219883       0.00151826
In       4.16733236       2.24953928       1.55327526        2      -0.00407339      -0.00219883      -0.00151826
In       1.59485954       0.86091026       0.59444644        3       0.00407339       0.00219883       0.00151826
O        5.65645348       2.17041529       0.10748410        4      -0.00000000       0.00262023      -0.00379477
O        6.60608620       4.86689839       1.02516020        5      -0.00219053       0.00405801      -0.00000000
O        7.69365513       1.96919122       2.30390645        6       0.00219053      -0.00143778      -0.00379477
O        3.83072867       4.25170787       1.99153695        7      -0.00219053       0.00143778       0.00379477
O        5.86793031       4.05048380       4.18795930        8       0.00000000      -0.00262023       0.00379477
O        4.91829760       1.35400070       3.27028320        9       0.00219053      -0.00405801       0.00000000
