10
Lattice="5.550715059953079 -0.07053097941520546 -0.04870065018685028 2.9868343629182683 4.679127352865904 -0.048700650186845114 2.98683436291827 1.6123027031817196 4.392844696888267" Properties=species:S:1:pos:R:3:spacegroup_kinds:I:1:forces:R:3 spacegroup="P 1" unit_cell=conventional occupancy="_JSON {\"0\": {\"In\": 1}, \"1\": {\"In\": 1}, \"2\": {\"In\": 1}, \"3\": {\"In\": 1}, \"4\": {\"O\": 1}, \"5\": {\"O\": 1}, \"6\": {\"O\": 1}, \"7\": {\"O\": 1}, \"8\": {\"O\": 1}, \"9\": {\"O\": 1}}" n_minim_iter=6 energy=-11286.464011466061 stress="-0.16145739776342802 7.57973184725788e-05 5.233698360558026e-05 7.57973184725788e-05 -0.16155689871178228 2.82516705510014e-05 5.233698360558026e-05 2.82516705510014e-05 -0.16157830696411773" free_energy=-11286.464011466061 pbc="T T T"
In       9.92952425       5.35998882       3.70099696        0      -0.00407339      -0.00219883      -0.00151826
In       7.35705144       3.97135980       2.74216814        1       0.00407339       0.00219883       0.00151826
In       4.16733236       2.24953928       1.55327526        2      -0.00407339      -0.00219883      -0.00151826
In       1.59485954       0.86091026       0.59444644        3       0.00407339       0.00219883       0.00151826
O        5.65645348       2.17041529       0.10748410        4      -0.00000000       0.00262023      -0.00379477
O        6.60608620       4.86689839       1.02516020        5      -0.00219053       0.00405801      -0.00000000
O        7.69365513       1.96919122       2.30390645        6       0.00219053      -0.00143778      -0.00379477
O        3.83072867       4.25170787       1.99153695        7      -0.00219053       0.00143778       0.00379477
O        5.86793031       4.05048380       4.18795930        8       0.00000000      -0.00262023       0.00379477
O        4.91829760       1.35400070       3.27028320        9       0.00219053      -0.00405801       0.00000000
