10
Lattice="5.387939127112137 -0.12757604432357797 -0.08808946591041693 2.8498256939277558 4.57434773479021 -0.08808946591041827 2.849825693927753 1.5383449872416546 4.308817895085985" Properties=species:S:1:pos:R:3:spacegroup_kinds:I:1:forces:R:3 spacegroup="P 1" unit_cell=conventional occupancy="_JSON {\"0\": {\"In\": 1}, \"1\": {\"In\": 1}, \"2\": {\"In\": 1}, \"3\": {\"In\": 1}, \"4\": {\"O\": 1}, \"5\": {\"O\": 1}, \"6\": {\"O\": 1}, \"7\": {\"O\": 1}, \"8\": {\"O\": 1}, \"9\": {\"O\": 1}}" n_minim_iter=6 energy=-11285.099517559707 stress="-0.25294712328191843 0.00013792877142729203 9.523787895524181e-05 0.00013792877142729203 -0.2531281856708662 5.1409710458911295e-05 9.523787895524181e-05 5.1409710458911295e-05 -0.25316714237909377" free_energy=-11285.099517559707 pbc="T T T"
In       9.59305208       5.17836007       3.57558486        0      -0.00059760      -0.00032259      -0.00022274
In       7.03833371       3.79931496       2.62337359        1       0.00059760       0.00032259       0.00022274
In       4.04925682       2.18580173       1.50926538        2      -0.00059760      -0.00032259      -0.00022274
In       1.49453845       0.80675662       0.55705411        3       0.00059760       0.00032259       0.00022274
O        5.46586720       2.08317095       0.04676449        4      -0.00000000       0.00016898      -0.00024473
O        6.34680849       4.72738703       0.94507028        5      -0.00014127       0.00026171      -0.00000000
O        7.43475160       1.84462143       2.20117343        6       0.00014127      -0.00009272      -0.00024473
O        3.65283893       4.14049526       1.93146553        7      -0.00014127       0.00009272       0.00024473
O        5.62172333       3.90194574       4.08587448        8       0.00000000      -0.00016898       0.00024473
O        4.74078203       1.25772966       3.18756869        9       0.00014127      -0.00026171       0.00000000
