10
Lattice="5.763851078941998 -0.011034331615149962 -0.0076190509261413715 3.153526246855825 4.8246630169459985 -0.007619050926142565 3.153526246855826 1.702283513101294 4.514383913453416" Properties=species:S:1:pos:R:3:spacegroup_kinds:I:1:forces:R:3 spacegroup="P 1" unit_cell=conventional occupancy="_JSON {\"0\": {\"In\": 1}, \"1\": {\"In\": 1}, \"2\": {\"In\": 1}, \"3\": {\"In\": 1}, \"4\": {\"O\": 1}, \"5\": {\"O\": 1}, \"6\": {\"O\": 1}, \"7\": {\"O\": 1}, \"8\": {\"O\": 1}, \"9\": {\"O\": 1}}" n_minim_iter=6 energy=-11287.638993577484 stress="-0.025430369320073854 -1.2739699030609402e-05 -8.796582929024871e-06 -1.2739699030609402e-05 -0.025413645612205705 -4.7484229965280676e-06 -8.796582929024871e-06 -4.7484229965280676e-06 -0.025410047401864356" free_energy=-11287.638993577484 pbc="T T T"
In      10.35751475       5.59101946       3.86052037        0      -0.00010579      -0.00005711      -0.00003943
In       7.74884062       4.18284885       2.88819835        1       0.00010579       0.00005711       0.00003943
In       4.32206296       2.33306336       1.61094746        2      -0.00010579      -0.00005711      -0.00003943
In       1.71338883       0.92489275       0.63862545        3       0.00010579       0.00005711       0.00003943
O        5.89965144       2.26529663       0.19143486        4      -0.00000000      -0.00008525       0.00012346
O        6.93983668       5.02981743       1.11716740        5       0.00007127      -0.00013203      -0.00000000
O        8.01299244       2.12241335       2.44862681        6      -0.00007127       0.00004678       0.00012346
O        4.05791114       4.39349885       2.05051900        7       0.00007127      -0.00004678      -0.00012346
O        6.17125214       4.25061558       4.30771096        8       0.00000000       0.00008525      -0.00012346
O        5.13106690       1.48609478       3.38197841        9      -0.00007127       0.00013203       0.00000000
