10
Lattice="6.131598472905172 0.06938614182386293 0.047910155917249675 3.422549192406407 5.087973201105573 0.047910155917249314 3.4225491924064064 1.8475029560386362 4.740938673473532" Properties=species:S:1:pos:R:3:spacegroup_kinds:I:1:forces:R:3 spacegroup="P 1" unit_cell=conventional occupancy="_JSON {\"0\": {\"In\": 1}, \"1\": {\"In\": 1}, \"2\": {\"In\": 1}, \"3\": {\"In\": 1}, \"4\": {\"O\": 1}, \"5\": {\"O\": 1}, \"6\": {\"O\": 1}, \"7\": {\"O\": 1}, \"8\": {\"O\": 1}, \"9\": {\"O\": 1}}" n_minim_iter=6 energy=-11287.380468157104 stress="0.05629920921831703 -0.00019156035822156812 -0.00013226973566495627 -0.00019156035822156812 0.056550675071206195 -7.139962463954399e-05 -0.00013226973566495627 -7.139962463954399e-05 0.056604779524898535" free_energy=-11287.380468157104 pbc="T T T"
In      11.07057853       5.97593356       4.12629815        0       0.00555836       0.00300042       0.00207175
In       8.39446677       4.53135990       3.12884034        1      -0.00555836      -0.00300042      -0.00207175
In       4.58223010       2.47350241       1.70791865        2       0.00555836       0.00300042       0.00207175
In       1.90611834       1.02892875       0.71046084        3      -0.00555836      -0.00300042      -0.00207175
O        6.30997346       2.43336204       0.29546696        4       0.00000000      -0.00343000       0.00496752
O        7.47997379       5.33262046       1.25709990        5       0.00286750      -0.00531212       0.00000000
O        8.56252231       2.35438831       2.66593630        6      -0.00286750       0.00188212       0.00496752
O        4.41417455       4.65047400       2.17082269        7       0.00286750      -0.00188212      -0.00496752
O        6.66672341       4.57150027       4.54129203        8      -0.00000000       0.00343000      -0.00496752
O        5.49672308       1.67224185       3.57965909        9      -0.00286750       0.00531212      -0.00000000
