10
Lattice="5.2193896963224695 -0.18716124477563909 -0.12923220953299197 2.7075254145073706 4.466135271509332 -0.12923220953299244 2.7075254145073697 1.461530843135975 4.222202366296865" Properties=species:S:1:pos:R:3:spacegroup_kinds:I:1:forces:R:3 spacegroup="P 1" unit_cell=conventional occupancy="_JSON {\"0\": {\"In\": 1}, \"1\": {\"In\": 1}, \"2\": {\"In\": 1}, \"3\": {\"In\": 1}, \"4\": {\"O\": 1}, \"5\": {\"O\": 1}, \"6\": {\"O\": 1}, \"7\": {\"O\": 1}, \"8\": {\"O\": 1}, \"9\": {\"O\": 1}}" n_minim_iter=6 energy=-11284.183717475687 stress="-0.3024975600465829 7.244873886728326e-06 5.002483552524926e-06 7.244873886728326e-06 -0.3025070705660912 2.7003564597965813e-06 5.002483552524926e-06 2.7003564597965813e-06 -0.30250911681231013" free_energy=-11284.183717475687 pbc="T T T"
In       9.23929036       4.98739837       3.44372849        0      -0.00451307      -0.00243617      -0.00168214
In       6.71237043       3.62335894       2.50187843        1       0.00451307       0.00243617       0.00168214
In       3.92207010       2.11714594       1.46185952        2      -0.00451307      -0.00243617      -0.00168214
In       1.39515017       0.75310651       0.52000946        3       0.00451307       0.00243617       0.00168214
O        5.26830498       1.98876032      -0.01101383        4       0.00000000       0.00045186      -0.00065441
O        6.08099296       4.57696882       0.86170228        5      -0.00037776       0.00069981      -0.00000000
O        7.16314243       1.71717016       2.10008735        6       0.00037776      -0.00024795      -0.00065441
O        3.47129811       4.02333472       1.86365060        7      -0.00037776       0.00024795       0.00065441
O        5.36613555       3.75174456       3.97475178        8      -0.00000000      -0.00045186       0.00065441
O        4.55344758       1.16353606       3.10203567        9       0.00037776      -0.00069981       0.00000000
