10
Lattice="6.27834590736975 0.08149782638923597 0.05627310391659069 3.5131981441963416 5.204008842028239 0.05627310391659005 3.5131981441963402 1.8964355489624365 4.846483972816173" Properties=species:S:1:pos:R:3:spacegroup_kinds:I:1:forces:R:3 spacegroup="P 1" unit_cell=conventional occupancy="_JSON {\"0\": {\"In\": 1}, \"1\": {\"In\": 1}, \"2\": {\"In\": 1}, \"3\": {\"In\": 1}, \"4\": {\"O\": 1}, \"5\": {\"O\": 1}, \"6\": {\"O\": 1}, \"7\": {\"O\": 1}, \"8\": {\"O\": 1}, \"9\": {\"O\": 1}}" n_minim_iter=4 energy=-11286.63306156103 stress="0.0913786865769023 -0.0001848780156942652 -0.0001276556714581104 -0.0001848780156942652 0.09162138035852398 -6.890893838291461e-05 -0.0001276556714581104 -6.890893838291461e-05 0.0916735974471103" free_energy=-11286.63306156103 pbc="T T T"
In      11.32356571       6.11249684       4.22059317        0      -0.00686961      -0.00370824      -0.00256049
In       8.63354760       4.66041650       3.21795210        1       0.00686961       0.00370824       0.00256049
In       4.67119461       2.52152573       1.74107808        2      -0.00686961      -0.00370824      -0.00256049
In       1.98117650       1.06944539       0.73843701        3       0.00686961       0.00370824       0.00256049
O        6.46535851       2.50162839       0.30423377        4      -0.00000000      -0.00012243       0.00017731
O        7.66568495       5.46874898       1.29603065        5       0.00010235      -0.00018961      -0.00000000
O        8.77823021       2.41933607       2.72747576        6      -0.00010235       0.00006718       0.00017731
O        4.52651200       4.76260616       2.23155442        7       0.00010235      -0.00006718      -0.00017731
O        6.83938370       4.68031384       4.65479641        8      -0.00000000       0.00012243      -0.00017731
O        5.63905725       1.71319325       3.66299953        9      -0.00010235       0.00018961      -0.00000000
