10
Lattice="5.570554242402562 -0.049847723727641936 -0.034419152775117694 3.015011860604394 4.684363654064961 -0.03441915277512946 3.0150118606043974 1.6275130061875902 4.3926812923649265" Properties=species:S:1:pos:R:3:spacegroup_kinds:I:1:forces:R:3 spacegroup="P 1" unit_cell=conventional occupancy="_JSON {\"0\": {\"In\": 1}, \"1\": {\"In\": 1}, \"2\": {\"In\": 1}, \"3\": {\"In\": 1}, \"4\": {\"O\": 1}, \"5\": {\"O\": 1}, \"6\": {\"O\": 1}, \"7\": {\"O\": 1}, \"8\": {\"O\": 1}, \"9\": {\"O\": 1}}" n_minim_iter=1 energy=-11286.455073143456 stress="-0.1637469097292091 0.00218214785844523 0.001506742432619978 0.00218214785844523 -0.16661146728850934 0.000813344364629441 0.001506742432619978 0.000813344364629441 -0.167227794798764" free_energy=-11286.455073143456 pbc="T T T"
In       9.98224828       5.38844942       3.72064861        0       0.06078505       0.03281196       0.02265620
In       7.41861867       4.00459399       2.76511588        1      -0.06078505      -0.03281196      -0.02265620
In       4.18195930       2.25743495       1.55872711        2       0.06078505       0.03281196       0.02265620
In       1.61832969       0.87357953       0.60319439        3      -0.06078505      -0.03281196      -0.02265620
O        5.68542162       2.18494718       0.13054781        4       0.00000000       0.04320714      -0.06257498
O        6.65423619       4.88070551       1.04654160        5      -0.03612139       0.06691585      -0.00000000
O        7.73161890       2.00076338       2.32688846        6       0.03612139      -0.02370870      -0.06257498
O        3.86895907       4.26126556       1.99695453        7      -0.03612139       0.02370870       0.06257498
O        5.91515636       4.07708176       4.19329518        8      -0.00000000      -0.04320714       0.06257498
O        4.94634178       1.38132344       3.27730140        9       0.03612139      -0.06691585       0.00000000
10
Lattice="5.559364258349131 -0.0615810919418331 -0.04252087865005416 2.9990625175751378 4.681447127071974 -0.042520878650065964 2.999062517575139 1.6189035000163394 4.392824454303454" Properties=species:S:1:pos:R:3:spacegroup_kinds:I:1:forces:R:3 spacegroup="P 1" unit_cell=conventional occupancy="_JSON {\"0\": {\"In\": 1}, \"1\": {\"In\": 1}, \"2\": {\"In\": 1}, \"3\": {\"In\": 1}, \"4\": {\"O\": 1}, \"5\": {\"O\": 1}, \"6\": {\"O\": 1}, \"7\": {\"O\": 1}, \"8\": {\"O\": 1}, \"9\": {\"O\": 1}}" n_minim_iter=2 energy=-11286.456584411293 stress="-0.16560668048344407 -0.0003422985097560155 -0.00023635231090013046 -0.0003422985097560155 -0.16515733706306657 -0.0001275837304026506 -0.00023635231090013046 -0.0001275837304026506 -0.16506065801074382" free_energy=-11286.456584411293 pbc="T T T"
In       9.94567501       5.36870705       3.70701678        0       0.10066127       0.05433728       0.03751913
In       7.39055894       3.98944726       2.75465727        1      -0.10066127      -0.05433728      -0.03751913
In       4.16693036       2.24932228       1.55312543        2       0.10066127       0.05433728       0.03751913
In       1.61181430       0.87006249       0.60076592        3      -0.10066127      -0.05433728      -0.03751913
O        5.66905446       2.17482620       0.12022181        4      -0.00000000       0.02572240      -0.03725261
O        6.62858974       4.86998256       1.03442480        5      -0.02150406       0.03983685       0.00000000
O        7.70858170       1.98392079       2.31663403        6       0.02150406      -0.01411444      -0.03725261
O        3.84890761       4.25484876       1.99114867        7      -0.02150406       0.01411444       0.03725261
O        5.88843485       4.06394335       4.18756089        8       0.00000000      -0.02572240       0.03725261
O        4.92889957       1.36878698       3.27335790        9       0.02150406      -0.03983685       0.00000000
10
Lattice="5.553950814738894 -0.06727211864631594 -0.0464504526193512 2.9913343161070425 4.680044251902582 -0.04645045261936303 2.991334316107043 1.614731792246924 4.392904857087389" Properties=species:S:1:pos:R:3:spacegroup_kinds:I:1:forces:R:3 spacegroup="P 1" unit_cell=conventional occupancy="_JSON {\"0\": {\"In\": 1}, \"1\": {\"In\": 1}, \"2\": {\"In\": 1}, \"3\": {\"In\": 1}, \"4\": {\"O\": 1}, \"5\": {\"O\": 1}, \"6\": {\"O\": 1}, \"7\": {\"O\": 1}, \"8\": {\"O\": 1}, \"9\": {\"O\": 1}}" n_minim_iter=3 energy=-11286.460661461231 stress="-0.1637801147100597 -0.0005304793023003284 -0.00036628850365483956 -0.0005304793023003284 -0.16308374187312713 -0.00019772370123157285 -0.00036628850365483956 -0.00019772370123157285 -0.1629339128932307" free_energy=-11286.460661461231 pbc="T T T"
In       9.93595469       5.36345999       3.70339376        0       0.03935123       0.02124192       0.01466725
In       7.36897449       3.97779591       2.74661218        1      -0.03935123      -0.02124192      -0.01466725
In       4.16764496       2.24970803       1.55339178        2       0.03935123       0.02124192       0.01466725
In       1.60066477       0.86404394       0.59661020        3      -0.03935123      -0.02124192      -0.01466725
O        5.66113027       2.17231256       0.11175282        4      -0.00000000       0.01628462      -0.02358429
O        6.61416948       4.86849502       1.02855054        5      -0.01361402       0.02522035       0.00000000
O        7.69942539       1.97444549       2.30820525        6       0.01361402      -0.00893573      -0.02358429
O        3.83719407       4.25305844       1.99179870        7      -0.01361402       0.00893573       0.02358429
O        5.87548918       4.05519138       4.18825113        8      -0.00000000      -0.01628462       0.02358429
O        4.92244998       1.35900892       3.27145342        9       0.01361402      -0.02522035       0.00000000
10
Lattice="5.553140019649512 -0.06812532037802514 -0.0470395764259295 2.9901761342275965 4.67983459359466 -0.047039576425941323 2.990176134227598 1.614106601979198 4.392917529683753" Properties=species:S:1:pos:R:3:spacegroup_kinds:I:1:forces:R:3 spacegroup="P 1" unit_cell=conventional occupancy="_JSON {\"0\": {\"In\": 1}, \"1\": {\"In\": 1}, \"2\": {\"In\": 1}, \"3\": {\"In\": 1}, \"4\": {\"O\": 1}, \"5\": {\"O\": 1}, \"6\": {\"O\": 1}, \"7\": {\"O\": 1}, \"8\": {\"O\": 1}, \"9\": {\"O\": 1}}" n_minim_iter=4 energy=-11286.461601880445 stress="-0.16203530348597683 -7.390203982924632e-05 -5.1028320282246965e-05 -7.390203982924632e-05 -0.1619382905150175 -2.7545250036873135e-05 -5.1028320282246965e-05 -2.7545250036873135e-05 -0.16191741756630815" free_energy=-11286.461601880445 pbc="T T T"
In       9.93888356       5.36504101       3.70448543        0      -0.00720277      -0.00388808      -0.00268466
In       7.36135488       3.97368281       2.74377214        1       0.00720277       0.00388808       0.00268466
In       4.17213742       2.25213307       1.55506624        2      -0.00720277      -0.00388808      -0.00268466
In       1.59460873       0.86077488       0.59435295        3       0.00720277       0.00388808       0.00268466
O        5.65994309       2.17350887       0.10820530        4       0.00000000       0.00854784      -0.01237946
O        6.61069363       4.87070859       1.02767002        5      -0.00714604       0.01323823      -0.00000000
O        7.69936867       1.97216219       2.30466406        6       0.00714604      -0.00469039      -0.01237946
O        3.83412362       4.25365370       1.99417432        7      -0.00714604       0.00469039       0.01237946
O        5.87354921       4.05230702       4.19063308        8      -0.00000000      -0.00854784       0.01237946
O        4.92279866       1.35510730       3.27116836        9       0.00714604      -0.01323823      -0.00000000
10
Lattice="5.554025994271486 -0.06719301803656819 -0.04639583475983994 2.991441697263045 4.680063698134058 -0.04639583475985177 2.9914416972630473 1.6147897569369811 4.39290369038142" Properties=species:S:1:pos:R:3:spacegroup_kinds:I:1:forces:R:3 spacegroup="P 1" unit_cell=conventional occupancy="_JSON {\"0\": {\"In\": 1}, \"1\": {\"In\": 1}, \"2\": {\"In\": 1}, \"3\": {\"In\": 1}, \"4\": {\"O\": 1}, \"5\": {\"O\": 1}, \"6\": {\"O\": 1}, \"7\": {\"O\": 1}, \"8\": {\"O\": 1}, \"9\": {\"O\": 1}}" n_minim_iter=5 energy=-11286.461638524743 stress="-0.16181592839654518 6.929660431816035e-05 4.784833127903096e-05 6.929660431816035e-05 -0.16190689570316463 2.5828682090175463e-05 4.784833127903096e-05 2.5828682090175463e-05 -0.161926467888918" free_energy=-11286.461638524743 pbc="T T T"
In       9.94207036       5.36676125       3.70567323        0      -0.00503645      -0.00271869      -0.00187722
In       7.36329373       3.97472941       2.74449481        1       0.00503645       0.00271869       0.00187722
In       4.17361567       2.25293104       1.55561722        2      -0.00503645      -0.00271869      -0.00187722
In       1.59483904       0.86089919       0.59443879        3       0.00503645       0.00271869       0.00187722
O        5.66124035       2.17482155       0.10828743        4      -0.00000000       0.00147959      -0.00214283
O        6.61230148       4.87234730       1.02863217        5      -0.00123695       0.00229148       0.00000000
O        7.70162091       1.97321958       2.30473927        6       0.00123695      -0.00081189      -0.00214283
O        3.83528849       4.25444086       1.99537275        7      -0.00123695       0.00081189       0.00214283
O        5.87566905       4.05283889       4.19182460        8      -0.00000000      -0.00147959       0.00214283
O        4.92460791       1.35531314       3.27147985        9       0.00123695      -0.00229148       0.00000000
