10
Lattice="5.186961605770441 -0.22302286427222626 -0.1539941538689059 2.6597509201129363 4.458703280179476 -0.15399415386892246 2.6597509201129346 1.4357420188839474 4.224025804291461" Properties=species:S:1:pos:R:3:spacegroup_kinds:I:1:forces:R:3 spacegroup="P 1" unit_cell=conventional occupancy="_JSON {\"0\": {\"In\": 1}, \"1\": {\"In\": 1}, \"2\": {\"In\": 1}, \"3\": {\"In\": 1}, \"4\": {\"O\": 1}, \"5\": {\"O\": 1}, \"6\": {\"O\": 1}, \"7\": {\"O\": 1}, \"8\": {\"O\": 1}, \"9\": {\"O\": 1}}" n_minim_iter=5 energy=-11283.070079227431 stress="-0.3775769059365497 1.1756063102873327e-05 8.117397021973977e-06 1.1756063102873327e-05 -0.3775923384012715 4.381796612821603e-06 8.117397021973977e-06 4.381796612821603e-06 -0.37759565879327334" free_energy=-11283.070079227431 pbc="T T T"
In       9.14742169       4.93780737       3.40948660        0      -0.00129843      -0.00070090      -0.00048396
In       6.61227347       3.56932628       2.46456964        1       0.00129843       0.00070090       0.00048396
In       3.89418997       2.10209615       1.45146785        2      -0.00129843      -0.00070090      -0.00048396
In       1.35904174       0.73361506       0.50655089        3       0.00129843       0.00070090       0.00048396
O        5.22009666       1.95884524      -0.04297589        4       0.00000000       0.00097515      -0.00141227
O        6.00447797       4.54623847       0.82501522        5      -0.00081523       0.00151024       0.00000000
O        7.09546626       1.66617360       2.06903701        6       0.00081523      -0.00053509      -0.00141227
O        3.41099717       4.00524884       1.84700048        7      -0.00081523       0.00053509       0.00141227
O        5.28636678       3.71257719       3.95901339        8       0.00000000      -0.00097515       0.00141227
O        4.50198546       1.12518396       3.09102227        9       0.00081523      -0.00151024       0.00000000
