10
Lattice="6.403304738322836 0.0770928727418302 0.053231545321351756 3.5780832213586238 5.310892141993391 0.05323154532135708 3.5780832213586153 1.93146072029555 4.947511336749007" Properties=species:S:1:pos:R:3:spacegroup_kinds:I:1:forces:R:3 spacegroup="P 1" unit_cell=conventional occupancy="_JSON {\"0\": {\"In\": 1}, \"1\": {\"In\": 1}, \"2\": {\"In\": 1}, \"3\": {\"In\": 1}, \"4\": {\"O\": 1}, \"5\": {\"O\": 1}, \"6\": {\"O\": 1}, \"7\": {\"O\": 1}, \"8\": {\"O\": 1}, \"9\": {\"O\": 1}}" n_minim_iter=3 energy=-11285.214405281517 stress="0.11920921086826827 8.490191898656792e-05 5.862358197577188e-05 8.490191898656792e-05 0.11909775809280271 3.1645196186030555e-05 5.862358197577188e-05 3.1645196186030555e-05 0.11907377832984264" free_energy=-11285.214405281517 pbc="T T T"
In      11.52276337       6.22002437       4.29483943        0      -0.00227506      -0.00122808      -0.00084798
In       8.81644341       4.75914424       3.28612222        1       0.00227506       0.00122808       0.00084798
In       4.74302778       2.56030151       1.76785221        2      -0.00227506      -0.00122808      -0.00084798
In       2.03670782       1.09942137       0.75913501        3       0.00227506       0.00122808       0.00084798
O        6.59152017       2.57208474       0.27100556        4       0.00000000       0.00052200      -0.00075598
O        7.79228441       5.61365368       1.31672515        5      -0.00043639       0.00080843       0.00000000
O        8.96883915       2.44801537       2.74476123        6       0.00043639      -0.00028643      -0.00075598
O        4.59063204       4.87143038       2.30921320        7      -0.00043639       0.00028643       0.00075598
O        6.96795102       4.74736100       4.78296887        8      -0.00000000      -0.00052200       0.00075598
O        5.76718678       1.70579206       3.73724928        9       0.00043639      -0.00080843      -0.00000000
