10
Lattice="5.762662667829546 -0.012413348623013028 -0.00857124279216329 3.151721274622818 4.824426196089053 -0.00857124279216823 3.1517212746228185 1.7013091833404757 4.514499822836928" Properties=species:S:1:pos:R:3:spacegroup_kinds:I:1:forces:R:3 spacegroup="P 1" unit_cell=conventional occupancy="_JSON {\"0\": {\"In\": 1}, \"1\": {\"In\": 1}, \"2\": {\"In\": 1}, \"3\": {\"In\": 1}, \"4\": {\"O\": 1}, \"5\": {\"O\": 1}, \"6\": {\"O\": 1}, \"7\": {\"O\": 1}, \"8\": {\"O\": 1}, \"9\": {\"O\": 1}}" n_minim_iter=1 energy=-11287.504027004148 stress="-0.05526748700751427 0.0011043738596511004 0.0007625546317797693 0.0011043738596511004 -0.05671722492408981 0.00041162941899819817 0.0007625546317797693 0.00041162941899819817 -0.057029145121873535" free_energy=-11287.504027004148 pbc="T T T"
In      10.35267010       5.58840430       3.85871464        0       0.00076300       0.00041187       0.00028439
In       7.74648773       4.18157876       2.88732137        1      -0.00076300      -0.00041187      -0.00028439
In       4.31961749       2.33174329       1.61003597        2       0.00076300       0.00041187       0.00028439
In       1.71343512       0.92491774       0.63864270        3      -0.00076300      -0.00041187      -0.00028439
O        5.89785764       2.26361880       0.19100517        4       0.00000000       0.05381358      -0.07793581
O        6.93742529       5.02783420       1.11576809        5      -0.04498842       0.08334227      -0.00000000
O        8.01001127       2.12077613       2.44825508        6       0.04498842      -0.02952869      -0.07793581
O        4.05609396       4.39254591       2.04910226        7      -0.04498842       0.02952869       0.07793581
O        6.16824758       4.24970324       4.30635217        8       0.00000000      -0.05381358       0.07793581
O        5.12867994       1.48548784       3.38158925        9       0.04498842      -0.08334227       0.00000000
10
Lattice="5.7516354834293155 -0.023847786114050785 -0.016466561203328525 3.1361111708946607 4.821481740599608 -0.016466561203333493 3.13611117089466 1.6928827996245526 4.514543736559503" Properties=species:S:1:pos:R:3:spacegroup_kinds:I:1:forces:R:3 spacegroup="P 1" unit_cell=conventional occupancy="_JSON {\"0\": {\"In\": 1}, \"1\": {\"In\": 1}, \"2\": {\"In\": 1}, \"3\": {\"In\": 1}, \"4\": {\"O\": 1}, \"5\": {\"O\": 1}, \"6\": {\"O\": 1}, \"7\": {\"O\": 1}, \"8\": {\"O\": 1}, \"9\": {\"O\": 1}}" n_minim_iter=2 energy=-11287.504829663365 stress="-0.05653822846342474 -0.0008958660622737756 -0.0006185829274131498 -0.0008958660622737756 -0.05536220370778688 -0.00033391303454330845 -0.0006185829274131498 -0.00033391303454330845 -0.055109174611924376" free_energy=-11287.504829663365 pbc="T T T"
In      10.31643287       5.56884333       3.84520806        0       0.03749095       0.02023773       0.01397387
In       7.71935388       4.16693181       2.87720786        1      -0.03749095      -0.02023773      -0.01397387
In       4.30450396       2.32358495       1.60440276        2       0.03749095       0.02023773       0.01397387
In       1.70742496       0.92167344       0.63640256        3      -0.03749095      -0.02023773      -0.01397387
O        5.88178220       2.25409638       0.18037477        4      -0.00000000       0.04041485      -0.05853103
O        6.91195964       5.01787999       1.10393609        5      -0.03378702       0.06259137      -0.00000000
O        7.98771594       2.10410396       2.43764664        6       0.03378702      -0.02217651      -0.05853103
O        4.03614190       4.38641281       2.04396398        7      -0.03378702       0.02217651       0.05853103
O        6.14207563       4.23642038       4.30123585        8       0.00000000      -0.04041485       0.05853103
O        5.11189820       1.47263677       3.37767452        9       0.03378702      -0.06259137       0.00000000
10
Lattice="5.760064289908223 -0.015104376025838659 -0.010429359399572468 3.1480457755685816 4.823730564716047 -0.01042935939957743 3.148045775568581 1.699325137243291 4.514507659805925" Properties=species:S:1:pos:R:3:spacegroup_kinds:I:1:forces:R:3 spacegroup="P 1" unit_cell=conventional occupancy="_JSON {\"0\": {\"In\": 1}, \"1\": {\"In\": 1}, \"2\": {\"In\": 1}, \"3\": {\"In\": 1}, \"4\": {\"O\": 1}, \"5\": {\"O\": 1}, \"6\": {\"O\": 1}, \"7\": {\"O\": 1}, \"8\": {\"O\": 1}, \"9\": {\"O\": 1}}" n_minim_iter=3 energy=-11287.506311902194 stress="-0.05450840282271557 0.000736581184914557 0.000508598958082797 0.000736581184914557 -0.055475330518900245 0.00027454333753216094 0.000508598958082797 0.00027454333753216094 -0.055683371072268235" free_energy=-11287.506311902194 pbc="T T T"
In      10.34552038       5.58454486       3.85604975        0       0.02722933       0.01469848       0.01014909
In       7.73871339       4.17738214       2.88442367        1      -0.02722933      -0.01469848      -0.01014909
In       4.31744246       2.33056920       1.60922528        2       0.02722933       0.01469848       0.01014909
In       1.71063547       0.92340648       0.63759920        3      -0.02722933      -0.01469848      -0.01014909
O        5.89407111       2.26444664       0.18405691        4       0.00000000       0.00984639      -0.01426009
O        6.92886160       5.03024354       1.11298288        5      -0.00823163       0.01524932      -0.00000000
O        8.00732640       2.11516660       2.44131074        6       0.00823163      -0.00540293      -0.01426009
O        4.04882945       4.39278474       2.05233820        7      -0.00823163       0.00540293       0.01426009
O        6.16208474       4.24350470       4.30959203        8       0.00000000      -0.00984639       0.01426009
O        5.12729426       1.47770780       3.38066607        9       0.00823163      -0.01524932       0.00000000
10
Lattice="5.756830849377003 -0.018455956953223888 -0.012743578933610384 3.1434695777470565 4.822866477984279 -0.012743578933615343 3.143469577747057 1.6968548910824928 4.514519569331599" Properties=species:S:1:pos:R:3:spacegroup_kinds:I:1:forces:R:3 spacegroup="P 1" unit_cell=conventional occupancy="_JSON {\"0\": {\"In\": 1}, \"1\": {\"In\": 1}, \"2\": {\"In\": 1}, \"3\": {\"In\": 1}, \"4\": {\"O\": 1}, \"5\": {\"O\": 1}, \"6\": {\"O\": 1}, \"7\": {\"O\": 1}, \"8\": {\"O\": 1}, \"9\": {\"O\": 1}}" n_minim_iter=4 energy=-11287.506708301098 stress="-0.05458596108338496 0.0002464821768819833 0.00017019247998084963 0.0002464821768819833 -0.054909524118479054 9.187044266404855e-05 0.00017019247998084963 9.187044266404855e-05 -0.054979140732664356" free_energy=-11287.506708301098 pbc="T T T"
In      10.33575447       5.57927319       3.85240973        0       0.03552253       0.01917517       0.01324019
In       7.72990055       4.17262494       2.88113889        1      -0.03552253      -0.01917517      -0.01324019
In       4.31386947       2.32864048       1.60789353        2       0.03552253       0.01917517       0.01324019
In       1.70801555       0.92199224       0.63662268        3      -0.03552253      -0.01917517      -0.01324019
O        5.88935793       2.26234341       0.17994398        4       0.00000000      -0.00125558       0.00181841
O        6.92082029       5.02839091       1.10951453        5       0.00104967      -0.00194455      -0.00000000
O        8.00136515       2.10990157       2.43720376        6      -0.00104967       0.00068897       0.00181841
O        4.04240487       4.39136385       2.05182865        7       0.00104967      -0.00068897      -0.00181841
O        6.15441208       4.23892201       4.30908844        8      -0.00000000       0.00125558      -0.00181841
O        5.12294972       1.47287452       3.37951789        9      -0.00104967       0.00194455       0.00000000
10
Lattice="5.75390181770913 -0.021494741216806102 -0.014841816766702308 3.1393219152893246 4.822085240217195 -0.014841816766707266 3.1393219152893255 1.6946159696761005 4.514532429694596" Properties=species:S:1:pos:R:3:spacegroup_kinds:I:1:forces:R:3 spacegroup="P 1" unit_cell=conventional occupancy="_JSON {\"0\": {\"In\": 1}, \"1\": {\"In\": 1}, \"2\": {\"In\": 1}, \"3\": {\"In\": 1}, \"4\": {\"O\": 1}, \"5\": {\"O\": 1}, \"6\": {\"O\": 1}, \"7\": {\"O\": 1}, \"8\": {\"O\": 1}, \"9\": {\"O\": 1}}" n_minim_iter=5 energy=-11287.506956467647 stress="-0.05459057300438915 -0.0001102101383517937 -7.609855239660716e-05 -0.0001102101383517937 -0.05444589752621898 -4.107824080790208e-05 -7.609855239660716e-05 -4.107824080790208e-05 -0.05441476968981531" free_energy=-11287.506956467647 pbc="T T T"
In      10.32757711       5.57485903       3.84936182        0       0.03427926       0.01850405       0.01277679
In       7.72124137       4.16795069       2.87791138        1      -0.03427926      -0.01850405      -0.01277679
In       4.31130429       2.32725579       1.60693742        2       0.03427926       0.01850405       0.01277679
In       1.70496854       0.92034745       0.63548698        3      -0.03427926      -0.01850405      -0.01277679
O        5.88508733       2.26036244       0.17632372        4      -0.00000000      -0.00790517       0.01144871
O        6.91359541       5.02659720       1.10637038        5       0.00660876      -0.01224291       0.00000000
O        7.99590115       2.10517009       2.43358993        6      -0.00660876       0.00433774       0.01144871
O        4.03664450       4.39003639       2.05125887        7       0.00660876      -0.00433774      -0.01144871
O        6.14745833       4.23484404       4.30852508        8       0.00000000       0.00790517      -0.01144871
O        5.11895025       1.46860928       3.37847842        9      -0.00660876       0.01224291      -0.00000000
10
Lattice="5.7519479934294075 -0.023523226400041387 -0.016242457281509137 3.136553985497778 4.821564907512377 -0.0162424572815141 3.136553985497779 1.6931218323578312 4.5145421069657345" Properties=species:S:1:pos:R:3:spacegroup_kinds:I:1:forces:R:3 spacegroup="P 1" unit_cell=conventional occupancy="_JSON {\"0\": {\"In\": 1}, \"1\": {\"In\": 1}, \"2\": {\"In\": 1}, \"3\": {\"In\": 1}, \"4\": {\"O\": 1}, \"5\": {\"O\": 1}, \"6\": {\"O\": 1}, \"7\": {\"O\": 1}, \"8\": {\"O\": 1}, \"9\": {\"O\": 1}}" n_minim_iter=6 energy=-11287.507144276295 stress="-0.05450053793818141 -0.00024367851809950622 -0.00016825659300531451 -0.00024367851809950622 -0.05418065533333113 -9.082544510150227e-05 -0.00016825659300531451 -9.082544510150227e-05 -0.05411183058579576" free_energy=-11287.507144276295 pbc="T T T"
In      10.32291455       5.57234216       3.84762396        0       0.02338055       0.01262090       0.00871455
In       7.71466941       4.16440312       2.87546184        1      -0.02338055      -0.01262090      -0.00871455
In       4.31038657       2.32676040       1.60659536        2       0.02338055       0.01262090       0.00871455
In       1.70214143       0.91882137       0.63443324        3      -0.02338055      -0.01262090      -0.00871455
O        5.88223799       2.25897370       0.17400405        4      -0.00000000      -0.00867405       0.01256224
O        6.90883021       5.02529742       1.10427184        5       0.00725155      -0.01343369       0.00000000
O        7.99219976       2.10204892       2.43127510        6      -0.00725155       0.00475964       0.01256224
O        4.03285621       4.38911460       2.05078209        7       0.00725155      -0.00475964      -0.01256224
O        6.14281798       4.23218982       4.30805315        8      -0.00000000       0.00867405      -0.01256224
O        5.11622576       1.46586610       3.37778535        9      -0.00725155       0.01343369      -0.00000000
10
Lattice="5.751209280801674 -0.024290470198876413 -0.016772228343316292 3.135507218100172 4.821368343506174 -0.01677222834332126 3.1355072181001726 1.6925567839822953 4.514545995380107" Properties=species:S:1:pos:R:3:spacegroup_kinds:I:1:forces:R:3 spacegroup="P 1" unit_cell=conventional occupancy="_JSON {\"0\": {\"In\": 1}, \"1\": {\"In\": 1}, \"2\": {\"In\": 1}, \"3\": {\"In\": 1}, \"4\": {\"O\": 1}, \"5\": {\"O\": 1}, \"6\": {\"O\": 1}, \"7\": {\"O\": 1}, \"8\": {\"O\": 1}, \"9\": {\"O\": 1}}" n_minim_iter=7 energy=-11287.507262735073 stress="-0.05434954217891984 -0.0001607840509893206 -0.00011101912824829247 -0.0001607840509893206 -0.054138477119212595 -5.992847919657901e-05 -0.00011101912824829247 -5.992847919657901e-05 -0.054093065148457166" free_energy=-11287.507262735073 pbc="T T T"
In      10.32214749       5.57192810       3.84733805        0       0.00669923       0.00361627       0.00249698
In       7.71118810       4.16252390       2.87416426        1      -0.00669923      -0.00361627      -0.00249698
In       4.31103563       2.32711077       1.60683728        2       0.00669923       0.00361627       0.00249698
In       1.70007624       0.91770657       0.63366349        3      -0.00669923      -0.00361627      -0.00249698
O        5.88116057       2.25835762       0.17325837        4      -0.00000000      -0.00429973       0.00622711
O        6.90710421       5.02466523       1.10347816        5       0.00359460      -0.00665909       0.00000000
O        7.99072415       2.10091839       2.43053137        6      -0.00359460       0.00235936       0.00622711
O        4.03149957       4.38871628       2.05047017        7       0.00359460      -0.00235936      -0.00622711
O        6.14106315       4.23127705       4.30774317        8      -0.00000000       0.00429973      -0.00622711
O        5.11511951       1.46496944       3.37752338        9      -0.00359460       0.00665909       0.00000000
