10
Lattice="5.06822420853463 -0.29054670195025945 -0.20061841494250982 2.5381468513889045 4.396490028963472 -0.20061841494252558 2.5381468513889063 1.370099755236598 4.18236762897404" Properties=species:S:1:pos:R:3:spacegroup_kinds:I:1:forces:R:3 spacegroup="P 1" unit_cell=conventional occupancy="_JSON {\"0\": {\"In\": 1}, \"1\": {\"In\": 1}, \"2\": {\"In\": 1}, \"3\": {\"In\": 1}, \"4\": {\"O\": 1}, \"5\": {\"O\": 1}, \"6\": {\"O\": 1}, \"7\": {\"O\": 1}, \"8\": {\"O\": 1}, \"9\": {\"O\": 1}}" n_minim_iter=4 energy=-11281.700507346519 stress="-0.45580656679143344 0.00048787014337945165 0.0003368674782855388 0.00048787014337945165 -0.45644700556933304 0.00018184213818356272 0.0003368674782855388 0.00018184213818356272 -0.4565847999853681" free_energy=-11281.700507346519 pbc="T T T"
In       8.84325690       4.77361824       3.29611632        0       0.00738179       0.00398471       0.00275139
In       6.37351996       3.44044638       2.37557988        1      -0.00738179      -0.00398471      -0.00275139
In       3.77099794       2.03559670       1.40555092        2       0.00738179       0.00398471       0.00275139
In       1.30126100       0.70242484       0.48501448        3      -0.00738179      -0.00398471      -0.00275139
O        5.07024158       1.86817957      -0.08834333        4      -0.00000000      -0.00143219       0.00207417
O        5.80055815       4.42004407       0.74466428        5       0.00119731      -0.00221806       0.00000000
O        6.87807185       1.55516781       2.00284048        6      -0.00119731       0.00078587       0.00207417
O        3.26644605       3.92087527       1.77829031        7       0.00119731      -0.00078587      -0.00207417
O        5.07427632       3.60786351       3.86947413        8       0.00000000       0.00143219      -0.00207417
O        4.34395975       1.05599901       3.03646651        9      -0.00119731       0.00221806       0.00000000
