10
Lattice="6.278989970803001 0.08199258592551566 0.05661472842404555 3.5139651773112677 5.2042757969034685 0.05661472842404783 3.5139651773112615 1.896849595881127 4.846612570478" Properties=species:S:1:pos:R:3:spacegroup_kinds:I:1:forces:R:3 spacegroup="P 1" unit_cell=conventional occupancy="_JSON {\"0\": {\"In\": 1}, \"1\": {\"In\": 1}, \"2\": {\"In\": 1}, \"3\": {\"In\": 1}, \"4\": {\"O\": 1}, \"5\": {\"O\": 1}, \"6\": {\"O\": 1}, \"7\": {\"O\": 1}, \"8\": {\"O\": 1}, \"9\": {\"O\": 1}}" n_minim_iter=1 energy=-11286.309936400256 stress="0.10190012624598686 -0.00019499051691272665 -0.00013463821193268686 -0.00019499051691272665 0.10215609495002557 -7.267813552508707e-05 -0.00013463821193268686 -7.267813552508707e-05 0.1022111682209625" free_energy=-11286.309936400256 pbc="T T T"
In      11.32700019       6.11435078       4.22187330        0      -0.04935324      -0.02664104      -0.01839526
In       8.63338031       4.66032620       3.21788975        1       0.04935324       0.02664104       0.01839526
In       4.67354002       2.52279180       1.74195228        2      -0.04935324      -0.02664104      -0.01839526
In       1.97992015       1.06876721       0.73796874        3       0.04935324       0.02664104       0.01839526
O        6.46622507       2.50268469       0.30386172        4      -0.00000000       0.03397638      -0.04920648
O        7.66650450       5.47022135       1.29657524        5      -0.02840442       0.05261997       0.00000000
O        8.77991082       2.41980183       2.72716800        6       0.02840442      -0.01864358      -0.04920648
O        4.52700952       4.76331616       2.23267403        7      -0.02840442       0.01864358       0.04920648
O        6.84069526       4.68043330       4.65598031        8      -0.00000000      -0.03397638       0.04920648
O        5.64041583       1.71289664       3.66326679        9       0.02840442      -0.05261997      -0.00000000
10
Lattice="6.287804695827038 0.09088929393273373 0.06275778028673716 3.5262397017461815 5.20676313293059 0.06275778028673946 3.526239701746175 1.9034754232696078 4.846762029895865" Properties=species:S:1:pos:R:3:spacegroup_kinds:I:1:forces:R:3 spacegroup="P 1" unit_cell=conventional occupancy="_JSON {\"0\": {\"In\": 1}, \"1\": {\"In\": 1}, \"2\": {\"In\": 1}, \"3\": {\"In\": 1}, \"4\": {\"O\": 1}, \"5\": {\"O\": 1}, \"6\": {\"O\": 1}, \"7\": {\"O\": 1}, \"8\": {\"O\": 1}, \"9\": {\"O\": 1}}" n_minim_iter=2 energy=-11286.310861542495 stress="0.10248585521458914 0.0009724137514233941 0.0006714380310527265 0.0009724137514233941 0.10120934448121466 0.00036244438789401705 0.0006714380310527265 0.00036244438789401705 0.10093469519721289" free_energy=-11286.310861542495 pbc="T T T"
In      11.35308906       6.12843364       4.23159731        0      -0.03340501      -0.01803213      -0.01245093
In       8.65733710       4.67325815       3.22681908        1       0.03340501       0.01803213       0.01245093
In       4.68294701       2.52786971       1.74545851        2      -0.03340501      -0.01803213      -0.01245093
In       1.98719505       1.07269422       0.74068029        3       0.03340501       0.01803213       0.01245093
O        6.47897338       2.51238711       0.30895363        4      -0.00000000       0.01885639      -0.02730888
O        7.68476173       5.48157986       1.30582718        5      -0.01576404       0.02920331       0.00000000
O        8.79942473       2.43165315       2.73233464        6       0.01576404      -0.01034692      -0.02730888
O        4.54085938       4.76947471       2.23994295        7      -0.01576404       0.01034692       0.02730888
O        6.86131073       4.68874075       4.66332397        8      -0.00000000      -0.01885639       0.02730888
O        5.65552238       1.71954800       3.66645042        9       0.01576404      -0.02920331       0.00000000
10
Lattice="6.282486094302423 0.08552357327375812 0.05905282557067134 3.5188354996782545 5.205261043683876 0.05905282557067365 3.5188354996782483 1.8994786114084508 4.846670070667352" Properties=species:S:1:pos:R:3:spacegroup_kinds:I:1:forces:R:3 spacegroup="P 1" unit_cell=conventional occupancy="_JSON {\"0\": {\"In\": 1}, \"1\": {\"In\": 1}, \"2\": {\"In\": 1}, \"3\": {\"In\": 1}, \"4\": {\"O\": 1}, \"5\": {\"O\": 1}, \"6\": {\"O\": 1}, \"7\": {\"O\": 1}, \"8\": {\"O\": 1}, \"9\": {\"O\": 1}}" n_minim_iter=3 energy=-11286.31205774875 stress="0.101363419255597 0.00039373504958860187 0.00027186851867454286 0.00039373504958860187 0.10084655386216987 0.00014675549235664676 0.00027186851867454286 0.00014675549235664676 0.10073534703306107" free_energy=-11286.31205774875 pbc="T T T"
In      11.33336872       6.11778854       4.22424702        0      -0.01627376      -0.00878463      -0.00606566
In       8.64686693       4.66760631       3.22291657        1       0.01627376       0.00878463       0.00606566
In       4.67329017       2.52265693       1.74185916        2      -0.01627376      -0.00878463      -0.00606566
In       1.98678838       1.07247470       0.74052871        3       0.01627376       0.00878463       0.00606566
O        6.47128233       2.50921293       0.30200355        4       0.00000000       0.00621508      -0.00900103
O        7.67150860       5.47887545       1.30024676        5      -0.00519584       0.00962544       0.00000000
O        8.78989155       2.42303491       2.72533859        6       0.00519584      -0.00341035      -0.00900103
O        4.53026555       4.76722833       2.23943714        7      -0.00519584       0.00341035       0.00900103
O        6.84887478       4.68105031       4.66277218        8       0.00000000      -0.00621508       0.00900103
O        5.64864850       1.71138779       3.66452897        9       0.00519584      -0.00962544       0.00000000
10
Lattice="6.278879709641721 0.0818811748661732 0.056537800653114645 3.5138115344022705 5.204244751705055 0.056537800653116956 3.5138115344022642 1.896766658949444 4.846610795189773" Properties=species:S:1:pos:R:3:spacegroup_kinds:I:1:forces:R:3 spacegroup="P 1" unit_cell=conventional occupancy="_JSON {\"0\": {\"In\": 1}, \"1\": {\"In\": 1}, \"2\": {\"In\": 1}, \"3\": {\"In\": 1}, \"4\": {\"O\": 1}, \"5\": {\"O\": 1}, \"6\": {\"O\": 1}, \"7\": {\"O\": 1}, \"8\": {\"O\": 1}, \"9\": {\"O\": 1}}" n_minim_iter=4 energy=-11286.31228839237 stress="0.10058864583671534 -4.265842052519947e-06 -2.9455040145028563e-06 -4.265842052519947e-06 0.1005942457094946 -1.5899923187774184e-06 -2.9455040145028563e-06 -1.5899923187774184e-06 0.10059545055686203" free_energy=-11286.31228839237 pbc="T T T"
In      11.31994840       6.11054421       4.21924491        0      -0.00408878      -0.00220714      -0.00152400
In       8.63980577       4.66379468       3.22028469        1       0.00408878       0.00220714       0.00152400
In       4.66669701       2.51909792       1.73940171        2      -0.00408878      -0.00220714      -0.00152400
In       1.98655439       1.07234839       0.74044149        3       0.00408878       0.00220714       0.00152400
O        6.46606555       2.50701405       0.29735205        4       0.00000000      -0.00211629       0.00306493
O        7.66255512       5.47697229       1.29645940        5       0.00176923      -0.00327755       0.00000000
O        8.78338752       2.41721121       2.72065744        6      -0.00176923       0.00116126       0.00306493
O        4.52311526       4.76568139       2.23902896        7       0.00176923      -0.00116126      -0.00306493
O        6.84043723       4.67587855       4.66233435        8       0.00000000       0.00211629      -0.00306493
O        5.64394767       1.70592031       3.66322700        9      -0.00176923       0.00327755      -0.00000000
