10
Lattice="6.278879709641721 0.0818811748661732 0.056537800653114645 3.5138115344022705 5.204244751705055 0.056537800653116956 3.5138115344022642 1.896766658949444 4.846610795189773" Properties=species:S:1:pos:R:3:spacegroup_kinds:I:1:forces:R:3 spacegroup="P 1" unit_cell=conventional occupancy="_JSON {\"0\": {\"In\": 1}, \"1\": {\"In\": 1}, \"2\": {\"In\": 1}, \"3\": {\"In\": 1}, \"4\": {\"O\": 1}, \"5\": {\"O\": 1}, \"6\": {\"O\": 1}, \"7\": {\"O\": 1}, \"8\": {\"O\": 1}, \"9\": {\"O\": 1}}" n_minim_iter=4 energy=-11286.31228839237 stress="0.10058864583671534 -4.265842052519947e-06 -2.9455040145028563e-06 -4.265842052519947e-06 0.1005942457094946 -1.5899923187774184e-06 -2.9455040145028563e-06 -1.5899923187774184e-06 0.10059545055686203" free_energy=-11286.31228839237 pbc="T T T"
In      11.31994840       6.11054421       4.21924491        0      -0.00408878      -0.00220714      -0.00152400
In       8.63980577       4.66379468       3.22028469        1       0.00408878       0.00220714       0.00152400
In       4.66669701       2.51909792       1.73940171        2      -0.00408878      -0.00220714      -0.00152400
In       1.98655439       1.07234839       0.74044149        3       0.00408878       0.00220714       0.00152400
O        6.46606555       2.50701405       0.29735205        4       0.00000000      -0.00211629       0.00306493
O        7.66255512       5.47697229       1.29645940        5       0.00176923      -0.00327755       0.00000000
O        8.78338752       2.41721121       2.72065744        6      -0.00176923       0.00116126       0.00306493
O        4.52311526       4.76568139       2.23902896        7       0.00176923      -0.00116126      -0.00306493
O        6.84043723       4.67587855       4.66233435        8       0.00000000       0.00211629      -0.00306493
O        5.64394767       1.70592031       3.66322700        9      -0.00176923       0.00327755      -0.00000000
