10
Lattice="5.953055262595579 0.031075878467414112 0.021457457404372965 3.2925510613209004 4.959731865568339 0.021457457404368496 3.2925510613209017 1.7773295507906368 4.630388781592603" Properties=species:S:1:pos:R:3:spacegroup_kinds:I:1:forces:R:3 spacegroup="P 1" unit_cell=conventional occupancy="_JSON {\"0\": {\"In\": 1}, \"1\": {\"In\": 1}, \"2\": {\"In\": 1}, \"3\": {\"In\": 1}, \"4\": {\"O\": 1}, \"5\": {\"O\": 1}, \"6\": {\"O\": 1}, \"7\": {\"O\": 1}, \"8\": {\"O\": 1}, \"9\": {\"O\": 1}}" n_minim_iter=6 energy=-11287.643202455374 stress="0.02094771034717566 -4.970796199833978e-05 -3.4322649324767384e-05 -4.970796199833978e-05 0.02101296317448959 -1.8527475506396892e-05 -3.4322649324767384e-05 -1.8527475506396892e-05 0.021027002729167184" free_energy=-11287.643202455374 pbc="T T T"
In      10.73078812       5.79251361       3.99964925        0       0.00014847       0.00008015       0.00005534
In       8.07644797       4.35969234       3.01030630        1      -0.00014847      -0.00008015      -0.00005534
In       4.46170943       2.40844496       1.66299740        2       0.00014847       0.00008015       0.00005534
In       1.80736927       0.97562369       0.67365445        3      -0.00014847      -0.00008015      -0.00005534
O        6.11106698       2.34977202       0.24898540        4      -0.00000000      -0.00017731       0.00025679
O        7.22046032       5.18202698       1.18978338        5       0.00014823      -0.00027461      -0.00000000
O        8.29422471       2.24384801       2.56417979        6      -0.00014823       0.00009730       0.00025679
O        4.24393269       4.52428929       2.10912391        7       0.00014823      -0.00009730      -0.00025679
O        6.42709041       4.41836529       4.42431830        8       0.00000000       0.00017731      -0.00025679
O        5.31769708       1.58611032       3.48352032        9      -0.00014823       0.00027461      -0.00000000
