10
Lattice="6.361441212589451 0.07770167242332188 0.053651912946584814 3.5556207498143975 5.275559964081369 0.05365191294658993 3.5556207498143877 1.9193354066054003 4.914322238043816" Properties=species:S:1:pos:R:3:spacegroup_kinds:I:1:forces:R:3 spacegroup="P 1" unit_cell=conventional occupancy="_JSON {\"0\": {\"In\": 1}, \"1\": {\"In\": 1}, \"2\": {\"In\": 1}, \"3\": {\"In\": 1}, \"4\": {\"O\": 1}, \"5\": {\"O\": 1}, \"6\": {\"O\": 1}, \"7\": {\"O\": 1}, \"8\": {\"O\": 1}, \"9\": {\"O\": 1}}" n_minim_iter=3 energy=-11285.600011162227 stress="0.11375179079036915 6.694036286600509e-06 4.6221379584425375e-06 6.694036286600509e-06 0.11374300336956239 2.4950448174505217e-06 4.6221379584425375e-06 2.4950448174505217e-06 0.11374111269994146" free_energy=-11285.600011162227 pbc="T T T"
In      11.45173254       6.18168171       4.26836435        0       0.00118248       0.00063831       0.00044074
In       8.75729153       4.72721387       3.26407475        1      -0.00118248      -0.00063831      -0.00044074
In       4.71539119       2.54538319       1.75755132        2       0.00118248       0.00063831       0.00044074
In       2.02095018       1.09091535       0.75326172        3      -0.00118248      -0.00063831      -0.00044074
O        6.54889129       2.54947905       0.27934611        4      -0.00000000      -0.00034332       0.00049721
O        7.74778582       5.56723735       1.30905843        5       0.00028701      -0.00053170       0.00000000
O        8.90561751       2.43668948       2.73650723        6      -0.00028701       0.00018838       0.00049721
O        4.56706521       4.83590757       2.28511884        7       0.00028701      -0.00018838      -0.00049721
O        6.92379143       4.72311801       4.74227996        8       0.00000000       0.00034332      -0.00049721
O        5.72489691       1.70535970       3.71256764        9      -0.00028701       0.00053170       0.00000000
