10
Lattice="6.234138511366424 0.08140690460434274 0.05621032370175033 3.4888645691968114 5.167101129339584 0.05621032370175054 3.488864569196807 1.883300207667014 4.811992727458593" Properties=species:S:1:pos:R:3:spacegroup_kinds:I:1:forces:R:3 spacegroup="P 1" unit_cell=conventional occupancy="_JSON {\"0\": {\"In\": 1}, \"1\": {\"In\": 1}, \"2\": {\"In\": 1}, \"3\": {\"In\": 1}, \"4\": {\"O\": 1}, \"5\": {\"O\": 1}, \"6\": {\"O\": 1}, \"7\": {\"O\": 1}, \"8\": {\"O\": 1}, \"9\": {\"O\": 1}}" n_minim_iter=3 energy=-11286.631137855842 stress="0.09155285455731646 -4.678387491670065e-05 -3.230360867280785e-05 -4.678387491670065e-05 0.09161426886646377 -1.7437590550320707e-05 -3.230360867280785e-05 -1.7437590550320707e-05 0.09162748253947747" free_energy=-11286.631137855842 pbc="T T T"
In      11.24609028       6.07067536       4.19171603        0      -0.00664059      -0.00358461      -0.00247512
In       8.57171120       4.62703701       3.19490404        1       0.00664059       0.00358461       0.00247512
In       4.64015646       2.50477124       1.72950934        2      -0.00664059      -0.00358461      -0.00247512
In       1.96577738       1.06113289       0.73269735        3       0.00664059       0.00358461       0.00247512
O        6.42003617       2.48480776       0.30169120        4       0.00000000      -0.00418406       0.00605959
O        7.61174189       5.43114701       1.28731367        5       0.00349790      -0.00647995      -0.00000000
O        8.71719503       2.40251694       2.70768757        6      -0.00349790       0.00229589       0.00605959
O        4.49467263       4.72929131       2.21672581        7       0.00349790      -0.00229589      -0.00605959
O        6.79183149       4.64700049       4.62272218        8      -0.00000000       0.00418406      -0.00605959
O        5.60012577       1.70066125       3.63709971        9      -0.00349790       0.00647995       0.00000000
