10
Lattice="5.480622164877485 -0.08765324859644569 -0.06052333645484713 2.9340585577531657 4.6299247062788496 -0.060523336454859945 2.934058557753167 1.5838141554448246 4.351022705190069" Properties=species:S:1:pos:R:3:spacegroup_kinds:I:1:forces:R:3 spacegroup="P 1" unit_cell=conventional occupancy="_JSON {\"0\": {\"In\": 1}, \"1\": {\"In\": 1}, \"2\": {\"In\": 1}, \"3\": {\"In\": 1}, \"4\": {\"O\": 1}, \"5\": {\"O\": 1}, \"6\": {\"O\": 1}, \"7\": {\"O\": 1}, \"8\": {\"O\": 1}, \"9\": {\"O\": 1}}" n_minim_iter=5 energy=-11285.852820272903 stress="-0.2063270171523448 -0.00011608104332452406 -8.015232918857096e-05 -0.00011608104332452406 -0.20617463479673973 -4.326648257433027e-05 -8.015232918857096e-05 -4.326648257433027e-05 -0.20614184877763905" free_energy=-11285.852820272903 pbc="T T T"
In       9.79732186       5.28862555       3.65172163        0      -0.00750844      -0.00405308      -0.00279860
In       7.22578707       3.90050288       2.69324243        1       0.00750844       0.00405308       0.00279860
In       4.12295222       2.22558274       1.53673361        2      -0.00750844      -0.00405308      -0.00279860
In       1.55141743       0.83746007       0.57825441        3       0.00750844       0.00405308       0.00279860
O        5.57749591       2.13964037       0.08304863        4      -0.00000000       0.00564697      -0.00817825
O        6.49949543       4.81233950       0.99697067        5      -0.00472089       0.00874558      -0.00000000
O        7.58955494       1.92186508       2.25855999        6       0.00472089      -0.00309861      -0.00817825
O        3.75918435       4.20422055       1.97141605        7      -0.00472089       0.00309861       0.00817825
O        5.77124338       3.98644526       4.14692740        8      -0.00000000      -0.00564697       0.00817825
O        4.84924386       1.31374612       3.23300536        9       0.00472089      -0.00874558       0.00000000
