10
Lattice="5.38496737018169 -0.13091207871400168 -0.09039295077914469 2.8454060845970353 4.573693886128897 -0.09039295077915724 2.8454060845970366 1.5359592680470104 4.309022601062097" Properties=species:S:1:pos:R:3:spacegroup_kinds:I:1:forces:R:3 spacegroup="P 1" unit_cell=conventional occupancy="_JSON {\"0\": {\"In\": 1}, \"1\": {\"In\": 1}, \"2\": {\"In\": 1}, \"3\": {\"In\": 1}, \"4\": {\"O\": 1}, \"5\": {\"O\": 1}, \"6\": {\"O\": 1}, \"7\": {\"O\": 1}, \"8\": {\"O\": 1}, \"9\": {\"O\": 1}}" n_minim_iter=6 energy=-11285.092709700888 stress="-0.25144618398727736 -2.2133509828576684e-05 -1.5282877069909508e-05 -2.2133509828576684e-05 -0.2514171288013971 -8.249746069114195e-06 -1.5282877069909508e-05 -8.249746069114195e-06 -0.25141087739563733" free_energy=-11285.092709700888 pbc="T T T"
In       9.59190255       5.17773955       3.57515640        0       0.00205020       0.00110670       0.00076416
In       7.02176677       3.79037207       2.61719865        1      -0.00205020      -0.00110670      -0.00076416
In       4.05401278       2.18836901       1.51103805        2       0.00205020       0.00110670       0.00076416
In       1.48387700       0.80100153       0.55308030        3      -0.00205020      -0.00110670      -0.00076416
O        5.46142857       2.08456998       0.03776193        4      -0.00000000      -0.00075772       0.00109737
O        6.33626349       4.73101671       0.94166623        5       0.00063346      -0.00117349      -0.00000000
O        7.43199975       1.83760909       2.19227323        6      -0.00063346       0.00041578       0.00109737
O        3.64377980       4.14113200       1.93596347        7       0.00063346      -0.00041578      -0.00109737
O        5.61435097       3.89417111       4.09047477        8       0.00000000       0.00075772      -0.00109737
O        4.73951606       1.24772438       3.18657048        9      -0.00063346       0.00117349       0.00000000
