10
Lattice="6.135331892428113 0.07301410100351231 0.05041521075081555 3.427630793219932 5.089103617982383 0.05041521075081244 3.427630793219932 1.850246020344401 4.741108202966489" Properties=species:S:1:pos:R:3:spacegroup_kinds:I:1:forces:R:3 spacegroup="P 1" unit_cell=conventional occupancy="_JSON {\"0\": {\"In\": 1}, \"1\": {\"In\": 1}, \"2\": {\"In\": 1}, \"3\": {\"In\": 1}, \"4\": {\"O\": 1}, \"5\": {\"O\": 1}, \"6\": {\"O\": 1}, \"7\": {\"O\": 1}, \"8\": {\"O\": 1}, \"9\": {\"O\": 1}}" n_minim_iter=1 energy=-11287.1671162563 stress="0.0707760808304859 -0.0003920404289905011 -0.0002706984076861992 -0.0003920404289905011 0.07129072165598598 -0.0001461238629715194 -0.0002706984076861992 -0.0001461238629715194 0.07140144985445798" free_energy=-11287.1671162563 pbc="T T T"
In      11.08513853       5.98379309       4.13172504        0      -0.05583662      -0.03014079      -0.02081179
In       8.40075170       4.53475253       3.13118290        1       0.05583662       0.03014079       0.02081179
In       4.58984179       2.47761122       1.71075573        2      -0.05583662      -0.03014079      -0.02081179
In       1.90545496       1.02857066       0.71021358        3       0.05583662       0.03014079       0.02081179
O        6.31531432       2.43793925       0.29672853        4      -0.00000000       0.00297927      -0.00431475
O        7.48711319       5.33825008       1.26089987        5      -0.00249069       0.00461407       0.00000000
O        8.57114625       2.35896199       2.66728263        6       0.00249069      -0.00163479      -0.00431475
O        4.41944724       4.65340176       2.17465600        7      -0.00249069       0.00163479       0.00431475
O        6.67527917       4.57442450       4.54521010        8       0.00000000      -0.00297927       0.00431475
O        5.50348030       1.67411367       3.58103876        9       0.00249069      -0.00461407       0.00000000
10
Lattice="6.144749439523259 0.08253562152387754 0.05698968687398724 3.440758445670451 5.0917520679908606 0.05698968687398415 3.440758445670451 1.8573323689532082 4.7412554684954324" Properties=species:S:1:pos:R:3:spacegroup_kinds:I:1:forces:R:3 spacegroup="P 1" unit_cell=conventional occupancy="_JSON {\"0\": {\"In\": 1}, \"1\": {\"In\": 1}, \"2\": {\"In\": 1}, \"3\": {\"In\": 1}, \"4\": {\"O\": 1}, \"5\": {\"O\": 1}, \"6\": {\"O\": 1}, \"7\": {\"O\": 1}, \"8\": {\"O\": 1}, \"9\": {\"O\": 1}}" n_minim_iter=2 energy=-11287.167567176757 stress="0.0714551730859057 0.000488350233847535 0.00033719897416086003 0.000488350233847535 0.07081410408149175 0.00018202108008200175 0.00033719897416086003 0.00018202108008200175 0.07067617406796939" free_energy=-11287.167567176757 pbc="T T T"
In      11.11405749       5.99940364       4.14250391        0      -0.05825574      -0.03144664      -0.02171346
In       8.42534202       4.54802646       3.14034836        1       0.05825574       0.03144664       0.02171346
In       4.60092433       2.48359361       1.71488649        2      -0.05825574      -0.03144664      -0.02171346
In       1.91220885       1.03221643       0.71273094        3       0.05825574       0.03144664       0.02171346
O        6.32894131       2.44670658       0.30450931        4       0.00000000       0.00116264      -0.00168380
O        7.50797909       5.34789853       1.27079840        5      -0.00097197       0.00180061       0.00000000
O        8.59066197       2.37252310       2.67513705        6       0.00097197      -0.00063797      -0.00168380
O        4.43560437       4.65909697       2.18009780        7      -0.00097197       0.00063797       0.00168380
O        6.69732503       4.58491349       4.55072554        8       0.00000000      -0.00116264       0.00168380
O        5.51828725       1.68372154       3.58443645        9       0.00097197      -0.00180061       0.00000000
10
Lattice="6.145582906586042 0.08337718236255884 0.057570772807507276 3.4419193363123837 5.091987067793892 0.057570772807504174 3.4419193363123832 1.857959021419554 4.741269341346003" Properties=species:S:1:pos:R:3:spacegroup_kinds:I:1:forces:R:3 spacegroup="P 1" unit_cell=conventional occupancy="_JSON {\"0\": {\"In\": 1}, \"1\": {\"In\": 1}, \"2\": {\"In\": 1}, \"3\": {\"In\": 1}, \"4\": {\"O\": 1}, \"5\": {\"O\": 1}, \"6\": {\"O\": 1}, \"7\": {\"O\": 1}, \"8\": {\"O\": 1}, \"9\": {\"O\": 1}}" n_minim_iter=3 energy=-11287.169260271166 stress="0.07019686343322065 8.70536879707169e-05 6.0109348449699314e-05 8.70536879707169e-05 0.07008258597981319 3.244721753556043e-05 6.0109348449699314e-05 3.244721753556043e-05 0.07005799846974146" free_energy=-11287.169260271166 pbc="T T T"
In      11.10753036       5.99588027       4.14007107        0      -0.00711397      -0.00384014      -0.00265157
In       8.43660202       4.55410465       3.14454526        1       0.00711397       0.00384014       0.00265157
In       4.59281957       2.47921864       1.71186563        2      -0.00711397      -0.00384014      -0.00265157
In       1.92189123       1.03744301       0.71633982        3       0.00711397       0.00384014       0.00265157
O        6.33014685       2.44782624       0.30469839        4      -0.00000000      -0.00722865       0.01046893
O        7.50953679       5.34928553       1.27167350        5       0.00604319      -0.01119517       0.00000000
O        8.59267625       2.37353317       2.67533306        6      -0.00604319       0.00396652       0.01046893
O        4.43674534       4.65979011       2.18107784        7       0.00604319      -0.00396652      -0.01046893
O        6.69927474       4.58549705       4.55171251        8      -0.00000000       0.00722865      -0.01046893
O        5.51988480       1.68403776       3.58473739        9      -0.00604319       0.01119517       0.00000000
10
Lattice="6.145263128353543 0.08305432000014183 0.05734784088311121 3.441473952465757 5.0918968932286965 0.057347840883108125 3.441473952465756 1.8577186018004461 4.741264002631639" Properties=species:S:1:pos:R:3:spacegroup_kinds:I:1:forces:R:3 spacegroup="P 1" unit_cell=conventional occupancy="_JSON {\"0\": {\"In\": 1}, \"1\": {\"In\": 1}, \"2\": {\"In\": 1}, \"3\": {\"In\": 1}, \"4\": {\"O\": 1}, \"5\": {\"O\": 1}, \"6\": {\"O\": 1}, \"7\": {\"O\": 1}, \"8\": {\"O\": 1}, \"9\": {\"O\": 1}}" n_minim_iter=4 energy=-11287.169296274154 stress="0.07001288186441912 -1.8076146391774332e-06 -1.2481327408445799e-06 -1.8076146391774332e-06 0.0700152547633632 -6.737460063027942e-07 -1.2481327408445799e-06 -6.737460063027942e-07 0.07001576530727223" free_energy=-11287.169296274154 pbc="T T T"
In      11.10541362       5.99473765       4.13928211        0      -0.00069290      -0.00037403      -0.00025826
In       8.43690294       4.55426708       3.14465742        1       0.00069290       0.00037403       0.00025826
In       4.59130811       2.47840274       1.71130227        2      -0.00069290      -0.00037403      -0.00025826
In       1.92279742       1.03793218       0.71667758        3       0.00069290       0.00037403       0.00025826
O        6.32968433       2.44745546       0.30454070        4      -0.00000000      -0.00724401       0.01049118
O        7.50889001       5.34884444       1.27133776        5       0.00605603      -0.01121896      -0.00000000
O        8.59195260       2.37311339       2.67517271        6      -0.00605603       0.00397495       0.01049118
O        4.43625844       4.65955643       2.18078698        7       0.00605603      -0.00397495      -0.01049118
O        6.69852672       4.58521436       4.55141898        8      -0.00000000       0.00724401      -0.01049118
O        5.51932104       1.68382539       3.58462192        9      -0.00605603       0.01121896       0.00000000
10
Lattice="6.144997537269332 0.08278614730974533 0.05716267140874759 3.4411040231296277 5.091822009971848 0.05716267140874449 3.4411040231296273 1.8575189127664533 4.74125958379746" Properties=species:S:1:pos:R:3:spacegroup_kinds:I:1:forces:R:3 spacegroup="P 1" unit_cell=conventional occupancy="_JSON {\"0\": {\"In\": 1}, \"1\": {\"In\": 1}, \"2\": {\"In\": 1}, \"3\": {\"In\": 1}, \"4\": {\"O\": 1}, \"5\": {\"O\": 1}, \"6\": {\"O\": 1}, \"7\": {\"O\": 1}, \"8\": {\"O\": 1}, \"9\": {\"O\": 1}}" n_minim_iter=5 energy=-11287.169330617542 stress="0.0698566193340922 -8.733608204524154e-05 -6.0304337544070586e-05 -8.733608204524154e-05 0.06997126749246049 -3.255247328999322e-05 -6.0304337544070586e-05 -3.255247328999322e-05 0.06999593476241546" free_energy=-11287.169330617542 pbc="T T T"
In      11.10345523       5.99368050       4.13855216        0       0.00497225       0.00268403       0.00185329
In       8.43735315       4.55451011       3.14482523        1      -0.00497225      -0.00268403      -0.00185329
In       4.58985244       2.47761697       1.71075970        2       0.00497225       0.00268403       0.00185329
In       1.92375036       1.03844658       0.71703277        3      -0.00497225      -0.00268403      -0.00185329
O        6.32930017       2.44673248       0.30501080        4      -0.00000000      -0.00381725       0.00552835
O        7.50869977       5.34783532       1.27105891        5       0.00319124      -0.00591186      -0.00000000
O        8.59100459       2.37299247       2.67564059        6      -0.00319124       0.00209461       0.00552835
O        4.43620101       4.65913462       2.17994434        7       0.00319124      -0.00209461      -0.00552835
O        6.69790542       4.58539460       4.55057413        8      -0.00000000       0.00381725      -0.00552835
O        5.51850582       1.68429176       3.58452603        9      -0.00319124       0.00591186       0.00000000
