10
Lattice="5.214374785944919 -0.19280326269411954 -0.1331279436242258 2.7000568685197353 4.465038679917921 -0.13312794362424354 2.700056868519735 1.457499298222038 4.222557194191566" Properties=species:S:1:pos:R:3:spacegroup_kinds:I:1:forces:R:3 spacegroup="P 1" unit_cell=conventional occupancy="_JSON {\"0\": {\"In\": 1}, \"1\": {\"In\": 1}, \"2\": {\"In\": 1}, \"3\": {\"In\": 1}, \"4\": {\"O\": 1}, \"5\": {\"O\": 1}, \"6\": {\"O\": 1}, \"7\": {\"O\": 1}, \"8\": {\"O\": 1}, \"9\": {\"O\": 1}}" n_minim_iter=7 energy=-11284.18804159729 stress="-0.3002924351306413 -5.755621890108863e-06 -3.974175874264941e-06 -5.755621890108863e-06 -0.3002848795889974 -2.1452728691179084e-06 -3.974175874264941e-06 -2.1452728691179084e-06 -0.3002832539661382" free_energy=-11284.18804159729 pbc="T T T"
In       9.23135804       4.98311648       3.44077191        0       0.00003829       0.00002067       0.00001427
In       6.69037475       3.61148560       2.49368006        1      -0.00003829      -0.00002067      -0.00001427
In       3.92411378       2.11824912       1.46262125        2       0.00003829       0.00002067       0.00001427
In       1.38313049       0.74661825       0.51552941        3      -0.00003829      -0.00002067      -0.00001427
O        5.26080953       1.98791256      -0.02157811        4       0.00000000      -0.00004279       0.00006197
O        6.06586261       4.57813298       0.85594739        5       0.00003577      -0.00006627       0.00000000
O        7.15581332       1.70708062       2.08970049        6      -0.00003577       0.00002348       0.00006197
O        3.45867521       4.02265410       1.86660082        7       0.00003577      -0.00002348      -0.00006197
O        5.35367900       3.74182216       3.97787942        8       0.00000000       0.00004279      -0.00006197
O        4.54862593       1.15160175       3.10035393        9      -0.00003577       0.00006627      -0.00000000
