80
Lattice="11.758812762970885 0.0 0.0 6.452317444010323 9.830426094342354 0.0 6.452317444010323 3.4829815090918417 9.192720870539437" Properties=species:S:1:pos:R:3:initial_magmoms:R:1:forces:R:3 uid=supercell-005.xyz_R3c type=Bulk energy=-90301.43550214545 stress="0.0018592403183069301 -0.0008221767131605597 -0.0006264471724986238 -0.0008221767131605597 0.002963647685542331 -0.0003112243282996393 -0.0006264471724986238 -0.0003112243282996393 0.003233578339071329" virial="-2.076304998654833e-06 7.594973340897207e-07 5.823676941711851e-07 7.594973340897207e-07 -3.0863759697024823e-06 2.842714708936497e-07 5.823676941711851e-07 2.842714708936497e-07 -3.3559586411882534e-06" pbc="T T T"
In      10.57093864       5.70622635       3.94006911      10.00000000       0.00366209       0.00175742       0.00080017
In      16.45034502       5.70622635       3.94006911      10.00000000       0.00396433       0.00218978       0.00215970
In      13.79709736      10.62143940       3.94006911      10.00000000       0.00386267       0.00222602       0.00096596
In      19.67650374      10.62143940       3.94006911      10.00000000       0.00347740       0.00149133       0.00148779
In      13.79709736       7.44771711       8.53642955      10.00000000       0.01047844       0.00595061      -0.00030010
In      19.67650374       7.44771711       8.53642955      10.00000000       0.00041969       0.00378245       0.00053267
In      17.02325608      12.36293015       8.53642955      10.00000000       0.00421194       0.00202539       0.00157257
In      22.90266246      12.36293015       8.53642955      10.00000000       0.00320957       0.00250264       0.00149411
In       7.92664710       4.27882935       2.95447155      10.00000000      -0.00304045      -0.00172791      -0.00134349
In      13.80605348       4.27882935       2.95447155      10.00000000      -0.00405106      -0.00165615      -0.00090721
In      11.15280582       9.19404240       2.95447155      10.00000000      -0.00340817      -0.00222815      -0.00098641
In      17.03221221       9.19404240       2.95447155      10.00000000      -0.00380153      -0.00200980      -0.00184137
In      11.15280582       6.02032010       7.55083198      10.00000000       0.00304364      -0.00211400       0.00267083
In      17.03221221       6.02032010       7.55083198      10.00000000      -0.00670310      -0.00209051       0.00055493
In      14.37896455      10.93553315       7.55083198      10.00000000      -0.00361266      -0.00254646      -0.00134684
In      20.25837093      10.93553315       7.55083198      10.00000000      -0.00329945      -0.00113352      -0.00143417
In       4.40507673       2.37787445       1.64188889      10.00000000       0.03111032       0.00002784      -0.02165394
In      10.28448311       2.37787445       1.64188889      10.00000000       0.00356624       0.00217805       0.00086127
In       7.63123545       7.29308750       1.64188889      10.00000000       0.00333292       0.00133202       0.00113767
In      13.51064183       7.29308750       1.64188889      10.00000000       0.00362556       0.00246104       0.00142938
In       7.63123545       4.11936520       6.23824933      10.00000000       0.00344766       0.00194018       0.00135094
In      13.51064183       4.11936520       6.23824933      10.00000000       0.00405540       0.00133976       0.00051685
In      10.85739417       9.03457825       6.23824933      10.00000000       0.00338174       0.00238187       0.00107141
In      16.73680055       9.03457825       6.23824933      10.00000000       0.00357463       0.00206255       0.00133364
In       1.76078518       0.95047746       0.65629133      10.00000000      -0.00347669      -0.00232057      -0.00101076
In       7.64019156       0.95047746       0.65629133      10.00000000       0.02588462      -0.02625198       0.00560249
In       4.98694390       5.86569050       0.65629133      10.00000000      -0.00321778      -0.00294975      -0.00163754
In      10.86635028       5.86569050       0.65629133      10.00000000      -0.00384039      -0.00198047      -0.00137238
In       4.98694390       2.69196821       5.25265176      10.00000000      -0.00365423      -0.00172102      -0.00091339
In      10.86635028       2.69196821       5.25265176      10.00000000      -0.00394384      -0.00240021      -0.00187663
In       8.21310263       7.60718126       5.25265176      10.00000000      -0.00370073      -0.00194614      -0.00126095
In      14.09250901       7.60718126       5.25265176      10.00000000      -0.00388399      -0.00206900      -0.00089110
O        6.03321769       2.30932705       0.21474656       4.00000000      -0.11261442       0.03172873       0.00136645
O       11.90204053       2.30932705       0.21474656       4.00000000       0.00120953       0.00889368      -0.01296456
O        9.24879287       7.22454010       0.21474656       4.00000000       0.00027181       0.00923666      -0.01305269
O       15.12819925       7.22454010       0.21474656       4.00000000       0.00043247       0.00821101      -0.01283389
O        9.24879287       4.05081780       4.81110699       4.00000000       0.00027781       0.00893411      -0.01261391
O       15.12819925       4.05081780       4.81110699       4.00000000       0.00043454       0.00877052      -0.01366277
O       12.47495159       8.96603085       4.81110699       4.00000000       0.00016545       0.00905613      -0.01285421
O       18.35435798       8.96603085       4.81110699       4.00000000      -0.00009736       0.00879650      -0.01303452
O        7.09636398       5.12094207       1.14909010       4.00000000      -0.00762022       0.01763647       0.00124356
O       12.97577036       5.12094207       1.14909010       4.00000000      -0.00700558       0.01360433       0.00005094
O       10.32252270      10.03615511       1.14909010       4.00000000      -0.00394310       0.01773741      -0.00132549
O       16.20192908      10.03615511       1.14909010       4.00000000      -0.00826810       0.01412959       0.00024537
O       10.32252270       6.86243282       5.74545054       4.00000000      -0.00752751       0.01410210      -0.00019682
O       16.20192908       6.86243282       5.74545054       4.00000000      -0.00721126       0.01407254      -0.00060569
O       13.54868142      11.77764587       5.74545054       4.00000000      -0.00753227       0.01379914       0.00035592
O       19.42808780      11.77764587       5.74545054       4.00000000      -0.00779090       0.01379621      -0.00009695
O        8.17506304       2.18091283       2.51292678       4.00000000       0.01095299      -0.00478132      -0.00885425
O       14.05446942       2.18091283       2.51292678       4.00000000       0.00675770      -0.00456793      -0.01282742
O       11.40122176       7.09612588       2.51292678       4.00000000       0.00740468      -0.00458825      -0.01309789
O       17.28062814       7.09612588       2.51292678       4.00000000       0.00715165      -0.00500613      -0.01294128
O       11.40122176       3.92240358       7.10928721       4.00000000       0.00731700      -0.00234630      -0.00982522
O       17.28062814       3.92240358       7.10928721       4.00000000       0.00793830      -0.00492973      -0.01317158
O       14.62738048       8.83761663       7.10928721       4.00000000       0.00737756      -0.00503924      -0.01255815
O       20.50678687       8.83761663       7.10928721       4.00000000       0.00771656      -0.00537960      -0.01250448
O        4.15666079       4.47579097       2.08343366       4.00000000      -0.00604360       0.00243441       0.01055470
O       10.03606717       4.47579097       2.08343366       4.00000000      -0.00732729       0.00512388       0.01302830
O        7.38281951       9.39100402       2.08343366       4.00000000      -0.00669155       0.00475023       0.01275060
O       13.26222589       9.39100402       2.08343366       4.00000000      -0.00779688       0.00359842       0.01388813
O        7.38281951       6.21728172       6.67979410       4.00000000      -0.00692367       0.00487120       0.01353499
O       13.26222589       6.21728172       6.67979410       4.00000000      -0.00749412       0.00595527       0.00631220
O       10.60897823      11.13249477       6.67979410       4.00000000      -0.00747962       0.00447342       0.01267610
O       16.48838462      11.13249477       6.67979410       4.00000000      -0.00736331       0.00515945       0.01282438
O        6.30908968       4.34737676       4.38161388       4.00000000      -0.00001708      -0.00848476       0.01330563
O       12.18849606       4.34737676       4.38161388       4.00000000      -0.00017949      -0.00919035       0.01268660
O        9.53524840       9.26258981       4.38161388       4.00000000       0.00016540      -0.00883621       0.01249680
O       15.41465478       9.26258981       4.38161388       4.00000000       0.00016518      -0.00930975       0.01318737
O        9.53524840       6.08886751       8.97797431       4.00000000       0.01686266      -0.01049838       0.01499964
O       15.41465478       6.08886751       8.97797431       4.00000000       0.01751871      -0.00747351       0.01063070
O       12.76140712      11.00408056       8.97797431       4.00000000      -0.00017574      -0.00927109       0.01278900
O       18.64081350      11.00408056       8.97797431       4.00000000      -0.00001359      -0.00842239       0.01323025
O        5.23535984       1.53576173       3.44727032       4.00000000       0.00714731      -0.01340947      -0.00157617
O       11.11476623       1.53576173       3.44727032       4.00000000       0.00823436      -0.01406490      -0.00008193
O        8.46151857       6.45097478       3.44727032       4.00000000       0.00757548      -0.01385219       0.00027888
O       14.34092495       6.45097478       3.44727032       4.00000000       0.00745169      -0.01422984      -0.00030388
O        8.46151857       3.27725249       8.04363076       4.00000000       0.00750322      -0.01373081       0.00014079
O       14.34092495       3.27725249       8.04363076       4.00000000       0.00889147      -0.01695408      -0.00144392
O       11.68767729       8.19246553       8.04363076       4.00000000       0.00749243      -0.01971778       0.00333454
O       17.56708367       8.19246553       8.04363076       4.00000000       0.00802591      -0.01329072      -0.00025028
