80
Lattice="11.758812762970885 0.0 0.0 6.452317444010323 9.830426094342354 0.0 6.452317444010323 3.4829815090918417 9.192720870539437" Properties=species:S:1:pos:R:3:initial_magmoms:R:1:forces:R:3 uid=supercell.xyz_R3c type=Bulk energy=-90301.43609736692 stress="0.0018631277017801537 -0.000850855887392263 -0.0005875039462358036 -0.000850855887392263 0.0029800661486950007 -0.0003171366436882934 -0.0005875039462358036 -0.0003171366436882934 0.0032203834393113224" virial="-2.080625233774798e-06 7.871468388574919e-07 5.434855780915065e-07 7.871468388574919e-07 -3.114025474470254e-06 2.929119411335783e-07 5.434855780915065e-07 2.929119411335783e-07 -3.3360855596364177e-06" pbc="T T T"
In      10.57093864       5.70622635       3.94006911      10.00000000       0.00363766       0.00196363       0.00135585
In      16.45034502       5.70622635       3.94006911      10.00000000       0.00363767       0.00196362       0.00135586
In      13.79709736      10.62143940       3.94006911      10.00000000       0.00363765       0.00196361       0.00135586
In      19.67650374      10.62143940       3.94006911      10.00000000       0.00363769       0.00196361       0.00135587
In      13.79709736       7.44771711       8.53642955      10.00000000       0.00363767       0.00196356       0.00135579
In      19.67650374       7.44771711       8.53642955      10.00000000       0.00363770       0.00196358       0.00135579
In      17.02325608      12.36293015       8.53642955      10.00000000       0.00363770       0.00196364       0.00135580
In      22.90266246      12.36293015       8.53642955      10.00000000       0.00363770       0.00196363       0.00135579
In       7.92664710       4.27882935       2.95447155      10.00000000      -0.00363769      -0.00196356      -0.00135596
In      13.80605348       4.27882935       2.95447155      10.00000000      -0.00363768      -0.00196356      -0.00135596
In      11.15280582       9.19404240       2.95447155      10.00000000      -0.00363768      -0.00196359      -0.00135595
In      17.03221221       9.19404240       2.95447155      10.00000000      -0.00363775      -0.00196358      -0.00135595
In      11.15280582       6.02032010       7.55083198      10.00000000      -0.00363765      -0.00196357      -0.00135591
In      17.03221221       6.02032010       7.55083198      10.00000000      -0.00363773      -0.00196357      -0.00135590
In      14.37896455      10.93553315       7.55083198      10.00000000      -0.00363774      -0.00196356      -0.00135589
In      20.25837093      10.93553315       7.55083198      10.00000000      -0.00363773      -0.00196356      -0.00135589
In       4.40507673       2.37787445       1.64188889      10.00000000       0.00363762       0.00196359       0.00135585
In      10.28448311       2.37787445       1.64188889      10.00000000       0.00363763       0.00196358       0.00135586
In       7.63123545       7.29308750       1.64188889      10.00000000       0.00363762       0.00196359       0.00135587
In      13.51064183       7.29308750       1.64188889      10.00000000       0.00363762       0.00196359       0.00135587
In       7.63123545       4.11936520       6.23824933      10.00000000       0.00363765       0.00196361       0.00135584
In      13.51064183       4.11936520       6.23824933      10.00000000       0.00363765       0.00196362       0.00135584
In      10.85739417       9.03457825       6.23824933      10.00000000       0.00363769       0.00196359       0.00135584
In      16.73680055       9.03457825       6.23824933      10.00000000       0.00363771       0.00196358       0.00135582
In       1.76078518       0.95047746       0.65629133      10.00000000      -0.00363760      -0.00196369      -0.00135591
In       7.64019156       0.95047746       0.65629133      10.00000000      -0.00363759      -0.00196370      -0.00135591
In       4.98694390       5.86569050       0.65629133      10.00000000      -0.00363760      -0.00196362      -0.00135592
In      10.86635028       5.86569050       0.65629133      10.00000000      -0.00363759      -0.00196362      -0.00135592
In       4.98694390       2.69196821       5.25265176      10.00000000      -0.00363761      -0.00196368      -0.00135586
In      10.86635028       2.69196821       5.25265176      10.00000000      -0.00363758      -0.00196368      -0.00135587
In       8.21310263       7.60718126       5.25265176      10.00000000      -0.00363764      -0.00196372      -0.00135585
In      14.09250901       7.60718126       5.25265176      10.00000000      -0.00363767      -0.00196371      -0.00135586
O        6.02263415       2.30932705       0.21474656       4.00000000      -0.00000003       0.00893423      -0.01293907
O       11.90204053       2.30932705       0.21474656       4.00000000      -0.00000001       0.00893422      -0.01293907
O        9.24879287       7.22454010       0.21474656       4.00000000      -0.00000000       0.00893419      -0.01293908
O       15.12819925       7.22454010       0.21474656       4.00000000       0.00000001       0.00893419      -0.01293907
O        9.24879287       4.05081780       4.81110699       4.00000000      -0.00000003       0.00893425      -0.01293905
O       15.12819925       4.05081780       4.81110699       4.00000000      -0.00000001       0.00893425      -0.01293905
O       12.47495159       8.96603085       4.81110699       4.00000000       0.00000000       0.00893422      -0.01293903
O       18.35435798       8.96603085       4.81110699       4.00000000      -0.00000008       0.00893423      -0.01293901
O        7.09636398       5.12094207       1.14909010       4.00000000      -0.00746907       0.01383666       0.00000014
O       12.97577036       5.12094207       1.14909010       4.00000000      -0.00746907       0.01383665       0.00000014
O       10.32252270      10.03615511       1.14909010       4.00000000      -0.00746907       0.01383669       0.00000013
O       16.20192908      10.03615511       1.14909010       4.00000000      -0.00746905       0.01383669       0.00000015
O       10.32252270       6.86243282       5.74545054       4.00000000      -0.00746907       0.01383665       0.00000005
O       16.20192908       6.86243282       5.74545054       4.00000000      -0.00746906       0.01383666       0.00000006
O       13.54868142      11.77764587       5.74545054       4.00000000      -0.00746906       0.01383663       0.00000006
O       19.42808780      11.77764587       5.74545054       4.00000000      -0.00746905       0.01383663       0.00000006
O        8.17506304       2.18091283       2.51292678       4.00000000       0.00746908      -0.00490242      -0.01293911
O       14.05446942       2.18091283       2.51292678       4.00000000       0.00746909      -0.00490242      -0.01293912
O       11.40122176       7.09612588       2.51292678       4.00000000       0.00746908      -0.00490245      -0.01293911
O       17.28062814       7.09612588       2.51292678       4.00000000       0.00746909      -0.00490245      -0.01293911
O       11.40122176       3.92240358       7.10928721       4.00000000       0.00746906      -0.00490242      -0.01293906
O       17.28062814       3.92240358       7.10928721       4.00000000       0.00746907      -0.00490243      -0.01293906
O       14.62738048       8.83761663       7.10928721       4.00000000       0.00746908      -0.00490242      -0.01293907
O       20.50678687       8.83761663       7.10928721       4.00000000       0.00746903      -0.00490244      -0.01293905
O        4.15666079       4.47579097       2.08343366       4.00000000      -0.00746909       0.00490243       0.01293908
O       10.03606717       4.47579097       2.08343366       4.00000000      -0.00746908       0.00490243       0.01293908
O        7.38281951       9.39100402       2.08343366       4.00000000      -0.00746907       0.00490242       0.01293906
O       13.26222589       9.39100402       2.08343366       4.00000000      -0.00746907       0.00490243       0.01293907
O        7.38281951       6.21728172       6.67979410       4.00000000      -0.00746905       0.00490249       0.01293902
O       13.26222589       6.21728172       6.67979410       4.00000000      -0.00746905       0.00490249       0.01293902
O       10.60897823      11.13249477       6.67979410       4.00000000      -0.00746906       0.00490246       0.01293903
O       16.48838462      11.13249477       6.67979410       4.00000000      -0.00746911       0.00490244       0.01293905
O        6.30908968       4.34737676       4.38161388       4.00000000      -0.00000003      -0.00893424       0.01293907
O       12.18849606       4.34737676       4.38161388       4.00000000      -0.00000002      -0.00893425       0.01293906
O        9.53524840       9.26258981       4.38161388       4.00000000      -0.00000001      -0.00893425       0.01293907
O       15.41465478       9.26258981       4.38161388       4.00000000       0.00000003      -0.00893426       0.01293906
O        9.53524840       6.08886751       8.97797431       4.00000000      -0.00000003      -0.00893421       0.01293910
O       15.41465478       6.08886751       8.97797431       4.00000000       0.00000001      -0.00893422       0.01293908
O       12.76140712      11.00408056       8.97797431       4.00000000       0.00000002      -0.00893425       0.01293908
O       18.64081350      11.00408056       8.97797431       4.00000000       0.00000003      -0.00893426       0.01293908
O        5.23535984       1.53576173       3.44727032       4.00000000       0.00746910      -0.01383660       0.00000008
O       11.11476623       1.53576173       3.44727032       4.00000000       0.00746905      -0.01383660       0.00000006
O        8.46151857       6.45097478       3.44727032       4.00000000       0.00746907      -0.01383662       0.00000006
O       14.34092495       6.45097478       3.44727032       4.00000000       0.00746907      -0.01383662       0.00000006
O        8.46151857       3.27725249       8.04363076       4.00000000       0.00746906      -0.01383664       0.00000004
O       14.34092495       3.27725249       8.04363076       4.00000000       0.00746906      -0.01383664       0.00000004
O       11.68767729       8.19246553       8.04363076       4.00000000       0.00746906      -0.01383660       0.00000004
O       17.56708367       8.19246553       8.04363076       4.00000000       0.00746907      -0.01383660       0.00000003
