40
Lattice="9.208864443014479 7.217662987471843e-10 7.084668250507777e-15 -3.0696214816853127 8.682200659337035 -1.2501321611094556e-09 -3.0696214806645905 -4.341100328946758 7.519006332573293" Properties=species:S:1:pos:R:3:spacegroup_kinds:I:1:forces:R:3 spacegroup="P 1" unit_cell=conventional occupancy="_JSON {\"0\": {\"In\": 1}, \"1\": {\"In\": 1}, \"2\": {\"In\": 1}, \"3\": {\"In\": 1}, \"4\": {\"In\": 1}, \"5\": {\"In\": 1}, \"6\": {\"In\": 1}, \"7\": {\"In\": 1}, \"8\": {\"In\": 1}, \"9\": {\"In\": 1}, \"10\": {\"In\": 1}, \"11\": {\"In\": 1}, \"12\": {\"In\": 1}, \"13\": {\"In\": 1}, \"14\": {\"In\": 1}, \"15\": {\"In\": 1}, \"16\": {\"O\": 1}, \"17\": {\"O\": 1}, \"18\": {\"O\": 1}, \"19\": {\"O\": 1}, \"20\": {\"O\": 1}, \"21\": {\"O\": 1}, \"22\": {\"O\": 1}, \"23\": {\"O\": 1}, \"24\": {\"O\": 1}, \"25\": {\"O\": 1}, \"26\": {\"O\": 1}, \"27\": {\"O\": 1}, \"28\": {\"O\": 1}, \"29\": {\"O\": 1}, \"30\": {\"O\": 1}, \"31\": {\"O\": 1}, \"32\": {\"O\": 1}, \"33\": {\"O\": 1}, \"34\": {\"O\": 1}, \"35\": {\"O\": 1}, \"36\": {\"O\": 1}, \"37\": {\"O\": 1}, \"38\": {\"O\": 1}, \"39\": {\"O\": 1}}" n_minim_iter=1 energy=-45147.31677271647 stress="0.13912881085032838 7.298631223679196e-13 1.1212656573688166e-12 7.298631223679196e-13 0.13912881084528606 -7.603451519929549e-13 1.1212656573688166e-12 -7.603451519929549e-13 0.13912881084284381" free_energy=-45147.31677271647 pbc="T T T"
In      -4.35441595       3.07903704       5.94546090        0       0.05059478      -0.03577591       0.06196570
In       7.42403742       1.26206329       1.57354543        1      -0.05059478       0.03577591      -0.06196570
In       1.28479446      -0.90848687       5.33304859        2      -0.05059478       0.03577591      -0.06196570
In      -1.53481074      -2.17055016       3.75950316        3      -0.00000000      -0.00000000      -0.00000000
In      -1.28479446       4.16431213       3.45329701        4       0.05059478      -0.03577591      -0.06196570
In       4.85444850      -2.90224883       5.63925475        5       0.05059478       0.07155183      -0.00000000
In      -1.28479446       1.43885150       5.63925475        6       0.05059478       0.07155183      -0.00000000
In      -1.78482702       7.24334917       1.87975158        7      -0.05059478      -0.07155183       0.00000000
In       4.35441594       0.17678821       4.06570932        8      -0.05059478       0.03577591       0.06196570
In      -1.53481074       4.34110033      -0.00000000        9      -0.00000000      -0.00000000       0.00000000
In       4.35441594       6.68843870       0.30620615       10      -0.05059478       0.03577591       0.06196570
In      -1.28479446      -2.34733837       7.21280018       11       0.05059478      -0.03577591      -0.06196570
In       4.35441594       2.90224884       1.87975158       12      -0.05059478      -0.07155183      -0.00000000
In       1.78482702       5.24958721       2.18595773       13       0.05059478      -0.03577591       0.06196570
In       4.60443222       0.00000000      -0.00000000       14      -0.00000000       0.00000000      -0.00000000
In       1.53481074       2.17055017       3.75950316       15       0.00000000       0.00000000       0.00000000
O        1.02628882       4.34409790       4.11575361       16       0.08019676      -0.01566355      -0.03707543
O       -2.04333266       3.56284840       5.45853355       17       0.08019676      -0.02427649       0.03210274
O       -0.38882055       2.39293167      -0.03411756       18      -0.01092357       0.04015532      -0.07949642
O       -1.02628883      -0.77525436       2.05528083       19      -0.08019676      -0.03994004      -0.00497268
O        4.04019657       5.09665691       2.08939839       20      -0.04962034      -0.00595724       0.07452374
O        2.09904639       2.90940654       1.69903038       21       0.04962034      -0.06751807       0.03210274
O        2.09904639       6.52835070       0.39036800       22       0.04962034       0.06156083       0.04242099
O       -2.38568446       6.08059013       3.72538561       23      -0.04149999      -0.00308626      -0.07949642
O        3.45844202       1.94816867       7.55312389       24       0.01092357      -0.04015532       0.07949642
O        5.45530594      -1.73948980       3.79362072       25       0.04149999       0.00308626       0.07949642
O        6.52806350       3.33746933       1.67010477       26       0.01092357      -0.04876826      -0.07452374
O        3.75355850       2.35653368       4.14987117       27      -0.04149999      -0.06730278       0.04242099
O        0.68393702       4.58617719       7.16275588       28      -0.04149999       0.07038905       0.03707543
O        2.38568446      -0.24507685       0.35625044       29       0.04149999      -0.07038905      -0.03707543
O       -3.45844203       1.00363101       5.84890155       30      -0.01092357       0.04876826       0.07452374
O        5.11295414       0.77825193       2.06047278       31      -0.08019676       0.02427649      -0.03210274
O        0.97057509       1.43169380       5.81997594       32      -0.04962034       0.06751807      -0.03210274
O        3.45844202      -0.94453766       5.81478400       33       0.01092357       0.08892358      -0.00497268
O        2.04333265      -0.00299757       3.40325272       34      -0.08019676       0.01566355       0.03707543
O        0.97057509      -2.18725037       7.12863833       35      -0.04962034      -0.06156083      -0.04242099
O       -0.68393703       1.98456666       3.36913516       36       0.04149999       0.06730279      -0.04242099
O       -0.97057509      -0.75555658       5.42960794       37       0.04962034       0.00595724      -0.07452374
O       -0.38882055       5.28563799       1.70422233       38      -0.01092357      -0.08892358       0.00497268
O        4.09591030       5.11635469       5.46372550       39       0.08019676       0.03994004       0.00497268
40
Lattice="9.208864443014486 7.217662987471851e-10 7.084668250507758e-15 -3.069621481685316 8.682200659337042 -1.250132161109457e-09 -3.0696214806645936 -4.341100328946761 7.519006332573303" Properties=species:S:1:pos:R:3:spacegroup_kinds:I:1:forces:R:3 spacegroup="P 1" unit_cell=conventional occupancy="_JSON {\"0\": {\"In\": 1}, \"1\": {\"In\": 1}, \"2\": {\"In\": 1}, \"3\": {\"In\": 1}, \"4\": {\"In\": 1}, \"5\": {\"In\": 1}, \"6\": {\"In\": 1}, \"7\": {\"In\": 1}, \"8\": {\"In\": 1}, \"9\": {\"In\": 1}, \"10\": {\"In\": 1}, \"11\": {\"In\": 1}, \"12\": {\"In\": 1}, \"13\": {\"In\": 1}, \"14\": {\"In\": 1}, \"15\": {\"In\": 1}, \"16\": {\"O\": 1}, \"17\": {\"O\": 1}, \"18\": {\"O\": 1}, \"19\": {\"O\": 1}, \"20\": {\"O\": 1}, \"21\": {\"O\": 1}, \"22\": {\"O\": 1}, \"23\": {\"O\": 1}, \"24\": {\"O\": 1}, \"25\": {\"O\": 1}, \"26\": {\"O\": 1}, \"27\": {\"O\": 1}, \"28\": {\"O\": 1}, \"29\": {\"O\": 1}, \"30\": {\"O\": 1}, \"31\": {\"O\": 1}, \"32\": {\"O\": 1}, \"33\": {\"O\": 1}, \"34\": {\"O\": 1}, \"35\": {\"O\": 1}, \"36\": {\"O\": 1}, \"37\": {\"O\": 1}, \"38\": {\"O\": 1}, \"39\": {\"O\": 1}}" n_minim_iter=2 energy=-45147.34026671058 stress="0.13509067797689786 8.170415922809763e-13 2.4584303399348706e-12 8.170415922809763e-13 0.13509067797831856 1.1654935069637122e-12 2.4584303399348706e-12 1.1654935069637122e-12 0.13509067797543364" free_energy=-45147.34026671058 pbc="T T T"
In      -4.34605022       3.07312159       5.95570677        0      -0.04204695       0.02973168      -0.05149678
In       7.41567170       1.26797875       1.56329955        1       0.04204695      -0.02973168       0.05149678
In       1.27642874      -0.90257142       5.32280272        2       0.04204695      -0.02973168       0.05149678
In      -1.53481074      -2.17055016       3.75950316        3      -0.00000000      -0.00000000      -0.00000000
In      -1.27642874       4.15839667       3.44305114        4      -0.04204695       0.02973168       0.05149678
In       4.86281422      -2.89041792       5.63925475        5      -0.04204695      -0.05946336      -0.00000000
In      -1.27642874       1.45068241       5.63925475        6      -0.04204695      -0.05946336       0.00000000
In      -1.79319274       7.23151825       1.87975158        7       0.04204695       0.05946336      -0.00000000
In       4.34605022       0.18270367       4.07595519        8       0.04204695      -0.02973168      -0.05149678
In      -1.53481074       4.34110033      -0.00000000        9      -0.00000000      -0.00000000      -0.00000000
In       4.34605022       6.69435416       0.31645202       10       0.04204695      -0.02973168      -0.05149678
In      -1.27642874      -2.35325383       7.20255430       11      -0.04204695       0.02973168       0.05149678
In       4.34605022       2.89041792       1.87975158       12       0.04204695       0.05946336       0.00000000
In       1.79319274       5.24367175       2.19620361       13      -0.04204695       0.02973168      -0.05149678
In       4.60443222       0.00000000      -0.00000000       14      -0.00000000      -0.00000000       0.00000000
In       1.53481074       2.17055017       3.75950316       15      -0.00000000      -0.00000000       0.00000000
O        1.03954916       4.34150798       4.10962328       16       0.07321173       0.03548021       0.06135638
O       -2.03007232       3.55883434       5.46384166       17       0.07321173       0.03539608      -0.06140495
O       -0.39062673       2.39957125      -0.04726209       18       0.09122672       0.02265756      -0.03934119
O       -1.03954916      -0.78185834       2.05445861       19      -0.07321173       0.07087629      -0.00004857
O        4.03199197       5.09567190       2.10172070       20       0.00896784      -0.09358994       0.03929262
O        2.10725099       2.89824259       1.70433849       21      -0.00896784      -0.08082338      -0.06140495
O        2.10725099       6.53852963       0.39738220       22      -0.00896784      -0.01276656       0.10069757
O       -2.39254638       6.08007983       3.71224107       23       0.00904715      -0.09356189      -0.03934119
O        3.46024821       1.94152909       7.56626842       24      -0.09122672      -0.02265756       0.03934119
O        5.46216786      -1.73897949       3.80676525       25      -0.00904715       0.09356189       0.03934119
O        6.52986969       3.32940562       1.65778246       26      -0.09122672      -0.02274169      -0.03929262
O        3.74669658       2.34540533       4.15688537       27       0.00904715       0.01271048       0.10069757
O        0.67707510       4.59781584       7.16888621       28       0.00904715       0.08085142      -0.06135638
O        2.39254637      -0.25671550       0.35012012       29      -0.00904715      -0.08085142       0.06135638
O       -3.46024821       1.01169472       5.86122387       30       0.09122672       0.02274169       0.03929262
O        5.09969380       0.78226599       2.05516467       31      -0.07321173      -0.03539608       0.06140495
O        0.96237049       1.44285774       5.81466784       32       0.00896784       0.08082338       0.06140495
O        3.46024821      -0.92983437       5.81396178       33      -0.09122672       0.04539925      -0.00004857
O        2.03007232      -0.00040764       3.40938305       34      -0.07321173      -0.03548021      -0.06135638
O        0.96237049      -2.19742930       7.12162412       35       0.00896784       0.01276656      -0.10069757
O       -0.67707511       1.99569500       3.36212096       36      -0.00904715      -0.01271048      -0.10069757
O       -0.96237049      -0.75457156       5.41728563       37      -0.00896784       0.09358994      -0.03929262
O       -0.39062673       5.27093470       1.70504455       38       0.09122672      -0.04539925       0.00004857
O        4.10917064       5.12295868       5.46454772       39       0.07321173      -0.07087629       0.00004857
40
Lattice="9.208864443014512 7.217662987471868e-10 7.084668250507635e-15 -3.069621481685324 8.682200659337067 -1.2501321611094603e-09 -3.0696214806646016 -4.341100328946774 7.519006332573324" Properties=species:S:1:pos:R:3:spacegroup_kinds:I:1:forces:R:3 spacegroup="P 1" unit_cell=conventional occupancy="_JSON {\"0\": {\"In\": 1}, \"1\": {\"In\": 1}, \"2\": {\"In\": 1}, \"3\": {\"In\": 1}, \"4\": {\"In\": 1}, \"5\": {\"In\": 1}, \"6\": {\"In\": 1}, \"7\": {\"In\": 1}, \"8\": {\"In\": 1}, \"9\": {\"In\": 1}, \"10\": {\"In\": 1}, \"11\": {\"In\": 1}, \"12\": {\"In\": 1}, \"13\": {\"In\": 1}, \"14\": {\"In\": 1}, \"15\": {\"In\": 1}, \"16\": {\"O\": 1}, \"17\": {\"O\": 1}, \"18\": {\"O\": 1}, \"19\": {\"O\": 1}, \"20\": {\"O\": 1}, \"21\": {\"O\": 1}, \"22\": {\"O\": 1}, \"23\": {\"O\": 1}, \"24\": {\"O\": 1}, \"25\": {\"O\": 1}, \"26\": {\"O\": 1}, \"27\": {\"O\": 1}, \"28\": {\"O\": 1}, \"29\": {\"O\": 1}, \"30\": {\"O\": 1}, \"31\": {\"O\": 1}, \"32\": {\"O\": 1}, \"33\": {\"O\": 1}, \"34\": {\"O\": 1}, \"35\": {\"O\": 1}, \"36\": {\"O\": 1}, \"37\": {\"O\": 1}, \"38\": {\"O\": 1}, \"39\": {\"O\": 1}}" n_minim_iter=3 energy=-45147.383285262076 stress="0.1282326342172266 3.549636694372437e-12 2.43600407939213e-12 3.549636694372437e-12 0.12823263421934453 8.407920363432852e-13 2.43600407939213e-12 8.407920363432852e-13 0.12823263420404085" free_energy=-45147.383285262076 pbc="T T T"
In      -4.34439930       3.07195420       5.95772874        0       0.00271410      -0.00191916       0.00332408
In       7.41402078       1.26914613       1.56127759        1      -0.00271410       0.00191916      -0.00332408
In       1.27477781      -0.90140403       5.32078075        2      -0.00271410       0.00191916      -0.00332408
In      -1.53481074      -2.17055016       3.75950316        3       0.00000000       0.00000000      -0.00000000
In      -1.27477782       4.15722929       3.44102917        4       0.00271410      -0.00191916      -0.00332408
In       4.86446515      -2.88808315       5.63925475        5       0.00271410       0.00383832      -0.00000000
In      -1.27477782       1.45301718       5.63925475        6       0.00271410       0.00383832      -0.00000000
In      -1.79484367       7.22918349       1.87975158        7      -0.00271410      -0.00383832       0.00000000
In       4.34439929       0.18387105       4.07797716        8      -0.00271410       0.00191916       0.00332408
In      -1.53481074       4.34110033      -0.00000000        9      -0.00000000       0.00000000       0.00000000
In       4.34439929       6.69552154       0.31847399       10      -0.00271410       0.00191916       0.00332408
In      -1.27477782      -2.35442121       7.20053234       11       0.00271410      -0.00191916      -0.00332408
In       4.34439929       2.88808316       1.87975158       12      -0.00271410      -0.00383832       0.00000000
In       1.79484366       5.24250437       2.19822557       13       0.00271410      -0.00191916       0.00332408
In       4.60443222       0.00000000      -0.00000000       14       0.00000000       0.00000000      -0.00000000
In       1.53481074       2.17055017       3.75950316       15      -0.00000000       0.00000000      -0.00000000
O        1.08093459       4.34722353       4.11688039       16       0.01313607      -0.04320091      -0.02061057
O       -1.98868689       3.56226141       5.45526329       17       0.01313607       0.00375118       0.04771837
O       -0.36821184       2.41641252      -0.07907454       18      -0.03281488       0.03624340      -0.00855981
O       -1.08093459      -0.77271572       2.05313735       19      -0.01313607      -0.03944973       0.02710780
O        4.02142789       5.06816235       2.13221189       20      -0.00084204       0.03450773       0.03566761
O        2.11781506       2.85808168       1.69576012       21       0.00084204      -0.01363519       0.04771837
O        2.11781506       6.55118101       0.43645176       22       0.00084204       0.04814292      -0.01205076
O       -2.40095285       6.05333311       3.68042863       23      -0.04510890       0.01885703      -0.00855981
O        3.43783332       1.92468782       7.59808087       24       0.03281488      -0.03624340       0.00855981
O        5.47057433      -1.71223278       3.83857770       25       0.04510890      -0.01885703       0.00855981
O        6.50745480       3.31027587       1.62729127       26       0.03281488       0.01070869      -0.03566761
O        3.73829011       2.33122830       4.19595493       27      -0.04510890      -0.01684153      -0.01205076
O        0.66866863       4.63873958       7.16162910       28      -0.04510890      -0.00201550       0.02061057
O        2.40095285      -0.29763925       0.35737723       29       0.04510890       0.00201550      -0.02061057
O       -3.43783332       1.03082447       5.89171506       30      -0.03281488      -0.01070869       0.03566761
O        5.05830837       0.77883892       2.06374304       31      -0.01313607      -0.00375118      -0.04771837
O        0.95180641       1.48301866       5.82324620       32      -0.00084204       0.01363519      -0.04771837
O        3.43783332      -0.89386335       5.81264052       33       0.03281488       0.02553471       0.02710780
O        1.98868689      -0.00612319       3.40212593       34      -0.01313607       0.04320091       0.02061057
O        0.95180641      -2.21008067       7.08255456       35      -0.00084204      -0.04814292       0.01205076
O       -0.66866864       2.00987203       3.32305140       36       0.04510890       0.01684153       0.01205076
O       -0.95180642      -0.72706202       5.38679444       37       0.00084204      -0.03450773      -0.03566761
O       -0.36821184       5.23496368       1.70636581       38      -0.03281488      -0.02553471      -0.02710780
O        4.15055607       5.11381606       5.46586897       39       0.01313607       0.03944973      -0.02710780
40
Lattice="9.208864443014516 7.217662987471869e-10 7.084668250507641e-15 -3.0696214816853247 8.682200659337072 -1.2501321611094608e-09 -3.0696214806646025 -4.341100328946776 7.519006332573325" Properties=species:S:1:pos:R:3:spacegroup_kinds:I:1:forces:R:3 spacegroup="P 1" unit_cell=conventional occupancy="_JSON {\"0\": {\"In\": 1}, \"1\": {\"In\": 1}, \"2\": {\"In\": 1}, \"3\": {\"In\": 1}, \"4\": {\"In\": 1}, \"5\": {\"In\": 1}, \"6\": {\"In\": 1}, \"7\": {\"In\": 1}, \"8\": {\"In\": 1}, \"9\": {\"In\": 1}, \"10\": {\"In\": 1}, \"11\": {\"In\": 1}, \"12\": {\"In\": 1}, \"13\": {\"In\": 1}, \"14\": {\"In\": 1}, \"15\": {\"In\": 1}, \"16\": {\"O\": 1}, \"17\": {\"O\": 1}, \"18\": {\"O\": 1}, \"19\": {\"O\": 1}, \"20\": {\"O\": 1}, \"21\": {\"O\": 1}, \"22\": {\"O\": 1}, \"23\": {\"O\": 1}, \"24\": {\"O\": 1}, \"25\": {\"O\": 1}, \"26\": {\"O\": 1}, \"27\": {\"O\": 1}, \"28\": {\"O\": 1}, \"29\": {\"O\": 1}, \"30\": {\"O\": 1}, \"31\": {\"O\": 1}, \"32\": {\"O\": 1}, \"33\": {\"O\": 1}, \"34\": {\"O\": 1}, \"35\": {\"O\": 1}, \"36\": {\"O\": 1}, \"37\": {\"O\": 1}, \"38\": {\"O\": 1}, \"39\": {\"O\": 1}}" n_minim_iter=4 energy=-45147.38536573628 stress="0.1265207443972841 -5.411054039788213e-13 2.746919424188194e-12 -5.411054039788213e-13 0.1265207443923467 -1.1477126692859923e-12 2.746919424188194e-12 -1.1477126692859923e-12 0.12652074438769373" free_energy=-45147.38536573628 pbc="T T T"
In      -4.34251632       3.07062274       5.96003490        0      -0.01557912       0.01101610      -0.01908044
In       7.41213780       1.27047759       1.55897142        1       0.01557912      -0.01101610       0.01908044
In       1.27289484      -0.90007257       5.31847459        2       0.01557912      -0.01101610       0.01908044
In      -1.53481074      -2.17055016       3.75950316        3       0.00000000       0.00000000       0.00000000
In      -1.27289484       4.15589782       3.43872301        4      -0.01557912       0.01101610       0.01908044
In       4.86634812      -2.88542023       5.63925475        5      -0.01557912      -0.02203220      -0.00000000
In      -1.27289484       1.45568010       5.63925475        6      -0.01557912      -0.02203220      -0.00000000
In      -1.79672664       7.22652056       1.87975158        7       0.01557912       0.02203220       0.00000000
In       4.34251632       0.18520251       4.08028332        8       0.01557912      -0.01101610      -0.01908044
In      -1.53481074       4.34110033      -0.00000000        9       0.00000000      -0.00000000       0.00000000
In       4.34251632       6.69685301       0.32078015       10       0.01557912      -0.01101610      -0.01908044
In      -1.27289484      -2.35575267       7.19822617       11      -0.01557912       0.01101610       0.01908044
In       4.34251632       2.88542023       1.87975158       12       0.01557912       0.02203220       0.00000000
In       1.79672664       5.24117291       2.20053174       13      -0.01557912       0.01101610      -0.01908044
In       4.60443222       0.00000000      -0.00000000       14       0.00000000       0.00000000       0.00000000
In       1.53481074       2.17055017       3.75950316       15       0.00000000       0.00000000       0.00000000
O        1.08763314       4.34658351       4.11600487       16       0.00836773      -0.03086263       0.00017620
O       -1.98198834       3.56182319       5.45625532       17       0.00836773       0.01558391       0.02663972
O       -0.36699556       2.41985085      -0.08479689       18      -0.01161567       0.02971431       0.00216515
O       -1.08763314      -0.77379396       2.05325386       19      -0.00836773      -0.01527872       0.02681592
O        4.01878189       5.06593679       2.13805075       20       0.01190341       0.01652877       0.02465078
O        2.12046107       2.85191229       1.69675216       21      -0.01190341      -0.01308381       0.02663972
O        2.12046107       6.55512482       0.44129859       22      -0.01190341       0.02961258      -0.00198895
O       -2.40378911       6.05104028       3.67470628       23      -0.03188681       0.00104659       0.00216515
O        3.43661704       1.92124949       7.60380322       24       0.01161567      -0.02971431      -0.00216515
O        5.47341059      -1.70993995       3.84430005       25       0.03188681      -0.00104659      -0.00216515
O        6.50623852       3.30703933       1.62145241       26       0.01161567       0.01673223      -0.02465078
O        3.73545385       2.32741902       4.20080176       27      -0.03188681       0.00135178      -0.00198895
O        0.66583237       4.64484170       7.16250462       28      -0.03188681      -0.00239837      -0.00017620
O        2.40378911      -0.30374136       0.35650170       29       0.03188681       0.00239837       0.00017620
O       -3.43661704       1.03406100       5.89755391       30      -0.01161567      -0.01673223       0.02465077
O        5.05160982       0.77927714       2.06275101       31      -0.00836773      -0.01558391      -0.02663972
O        0.94916041       1.48918804       5.82225417       32       0.01190341       0.01308381      -0.02663972
O        3.43661704      -0.88718848       5.81275703       33       0.01161567       0.01298208       0.02681592
O        1.98198834      -0.00548318       3.40300146       34      -0.00836773       0.03086263      -0.00017620
O        0.94916041      -2.21402449       7.07770774       35       0.01190341      -0.02961258       0.00198895
O       -0.66583237       2.01368132       3.31820457       36       0.03188681      -0.00135178       0.00198895
O       -0.94916041      -0.72483645       5.38095558       37      -0.01190341      -0.01652877      -0.02465078
O       -0.36699556       5.22828882       1.70624930       38      -0.01161567      -0.01298208      -0.02681592
O        4.15725462       5.11489429       5.46575246       39       0.00836773       0.01527872      -0.02681592
40
Lattice="9.208864443014514 7.217662987471868e-10 7.084668250507625e-15 -3.0696214816853242 8.68220065933707 -1.2501321611094603e-09 -3.069621480664602 -4.3411003289467756 7.519006332573324" Properties=species:S:1:pos:R:3:spacegroup_kinds:I:1:forces:R:3 spacegroup="P 1" unit_cell=conventional occupancy="_JSON {\"0\": {\"In\": 1}, \"1\": {\"In\": 1}, \"2\": {\"In\": 1}, \"3\": {\"In\": 1}, \"4\": {\"In\": 1}, \"5\": {\"In\": 1}, \"6\": {\"In\": 1}, \"7\": {\"In\": 1}, \"8\": {\"In\": 1}, \"9\": {\"In\": 1}, \"10\": {\"In\": 1}, \"11\": {\"In\": 1}, \"12\": {\"In\": 1}, \"13\": {\"In\": 1}, \"14\": {\"In\": 1}, \"15\": {\"In\": 1}, \"16\": {\"O\": 1}, \"17\": {\"O\": 1}, \"18\": {\"O\": 1}, \"19\": {\"O\": 1}, \"20\": {\"O\": 1}, \"21\": {\"O\": 1}, \"22\": {\"O\": 1}, \"23\": {\"O\": 1}, \"24\": {\"O\": 1}, \"25\": {\"O\": 1}, \"26\": {\"O\": 1}, \"27\": {\"O\": 1}, \"28\": {\"O\": 1}, \"29\": {\"O\": 1}, \"30\": {\"O\": 1}, \"31\": {\"O\": 1}, \"32\": {\"O\": 1}, \"33\": {\"O\": 1}, \"34\": {\"O\": 1}, \"35\": {\"O\": 1}, \"36\": {\"O\": 1}, \"37\": {\"O\": 1}, \"38\": {\"O\": 1}, \"39\": {\"O\": 1}}" n_minim_iter=5 energy=-45147.386378269315 stress="0.12465400708298296 -1.226062541138158e-12 -3.3136118433470072e-12 -1.226062541138158e-12 0.12465400708466116 6.118572205862839e-12 -3.3136118433470072e-12 6.118572205862839e-12 0.12465400708484997" free_energy=-45147.386378269315 pbc="T T T"
In      -4.34184264       3.07014638       5.96085999        0      -0.01411776       0.00998276      -0.01729065
In       7.41146412       1.27095396       1.55814634        1       0.01411776      -0.00998276       0.01729065
In       1.27222116      -0.89959621       5.31764951        2       0.01411776      -0.00998276       0.01729065
In      -1.53481074      -2.17055016       3.75950316        3      -0.00000000       0.00000000      -0.00000000
In      -1.27222116       4.15542146       3.43789792        4      -0.01411776       0.00998276       0.01729065
In       4.86702180      -2.88446750       5.63925475        5      -0.01411776      -0.01996553      -0.00000000
In      -1.27222116       1.45663283       5.63925475        6      -0.01411776      -0.01996553      -0.00000000
In      -1.79740032       7.22556784       1.87975158        7       0.01411776       0.01996553      -0.00000000
In       4.34184264       0.18567887       4.08110840        8       0.01411776      -0.00998276      -0.01729065
In      -1.53481074       4.34110033      -0.00000000        9      -0.00000000       0.00000000       0.00000000
In       4.34184264       6.69732937       0.32160524       10       0.01411776      -0.00998276      -0.01729065
In      -1.27222116      -2.35622903       7.19740109       11      -0.01411776       0.00998276       0.01729065
In       4.34184264       2.88446751       1.87975158       12       0.01411776       0.01996553      -0.00000000
In       1.79740032       5.24069654       2.20135682       13      -0.01411776       0.00998276      -0.01729065
In       4.60443222       0.00000000      -0.00000000       14      -0.00000000       0.00000000      -0.00000000
In       1.53481074       2.17055017       3.75950316       15       0.00000000       0.00000000       0.00000000
O        1.09623230       4.34566741       4.11628567       16      -0.00023239      -0.01681466       0.00325858
O       -1.97338918       3.56252442       5.45690829       17      -0.00023239       0.01122934       0.01293264
O       -0.36433176       2.42474901      -0.09141322       18      -0.00534335       0.01484334       0.00667301
O       -1.09623230      -0.77400883       2.05418763       19       0.00023239      -0.00558532       0.01619121
O        4.01657663       5.06233172       2.14560084       20       0.01066459       0.00943798       0.00951821
O        2.12266633       2.84357119       1.69740512       21      -0.01066459      -0.00352402       0.01293264
O        2.12266633       6.55986086       0.44819572       22      -0.01066459       0.01296200      -0.00341443
O       -2.40751921       6.04689610       3.66808995       23      -0.01577555       0.00008998       0.00667301
O        3.43395324       1.91635133       7.61041954       24       0.00534335      -0.01484334      -0.00667301
O        5.47714069      -1.70579577       3.85091638       25       0.01577555      -0.00008998      -0.00667301
O        6.50357472       3.30375851       1.61390232       26       0.00534335       0.01320067      -0.00951821
O        3.73172375       2.32376120       4.20769888       27      -0.01577555       0.00573400      -0.00341443
O        0.66210227       4.65264370       7.16222382       28      -0.01577555      -0.00582399      -0.00325858
O        2.40751920      -0.31154336       0.35678250       29       0.01577555       0.00582399       0.00325858
O       -3.43395324       1.03734183       5.90510401       30      -0.00534335      -0.01320067       0.00951821
O        5.04301066       0.77857591       2.06209804       31       0.00023239      -0.01122934      -0.01293264
O        0.94695515       1.49752915       5.82160120       32       0.01066459       0.00352401      -0.01293264
O        3.43395324      -0.87900949       5.81369079       33       0.00534335       0.00164268       0.01619121
O        1.97338918      -0.00456707       3.40272066       34       0.00023239       0.01681466      -0.00325858
O        0.94695515      -2.21876053       7.07081061       35       0.01066459      -0.01296200       0.00341443
O       -0.66210228       2.01733913       3.31130744       36       0.01577555      -0.00573400       0.00341443
O       -0.94695515      -0.72123138       5.37340548       37      -0.01066459      -0.00943798      -0.00951821
O       -0.36433176       5.22010983       1.70531553       38      -0.00534335      -0.00164268      -0.01619121
O        4.16585378       5.11510916       5.46481870       39      -0.00023239       0.00558532      -0.01619121
40