40
Lattice="8.845927798066034 6.933188328355671e-10 -1.7533425144540948e-15 -2.9486426000090145 8.340020708967666 -1.2008628036897344e-09 -2.9486425990285103 -4.170010353790515 7.2226698028548775" Properties=species:S:1:pos:R:3:spacegroup_kinds:I:1:forces:R:3 spacegroup="P 1" unit_cell=conventional occupancy="_JSON {\"0\": {\"In\": 1}, \"1\": {\"In\": 1}, \"2\": {\"In\": 1}, \"3\": {\"In\": 1}, \"4\": {\"In\": 1}, \"5\": {\"In\": 1}, \"6\": {\"In\": 1}, \"7\": {\"In\": 1}, \"8\": {\"In\": 1}, \"9\": {\"In\": 1}, \"10\": {\"In\": 1}, \"11\": {\"In\": 1}, \"12\": {\"In\": 1}, \"13\": {\"In\": 1}, \"14\": {\"In\": 1}, \"15\": {\"In\": 1}, \"16\": {\"O\": 1}, \"17\": {\"O\": 1}, \"18\": {\"O\": 1}, \"19\": {\"O\": 1}, \"20\": {\"O\": 1}, \"21\": {\"O\": 1}, \"22\": {\"O\": 1}, \"23\": {\"O\": 1}, \"24\": {\"O\": 1}, \"25\": {\"O\": 1}, \"26\": {\"O\": 1}, \"27\": {\"O\": 1}, \"28\": {\"O\": 1}, \"29\": {\"O\": 1}, \"30\": {\"O\": 1}, \"31\": {\"O\": 1}, \"32\": {\"O\": 1}, \"33\": {\"O\": 1}, \"34\": {\"O\": 1}, \"35\": {\"O\": 1}, \"36\": {\"O\": 1}, \"37\": {\"O\": 1}, \"38\": {\"O\": 1}, \"39\": {\"O\": 1}}" n_minim_iter=5 energy=-45151.03717550003 stress="-0.02946322574173191 -5.553147814071506e-12 4.497013732631377e-12 -5.553147814071506e-12 -0.029463225738736654 2.100613045595533e-12 4.497013732631377e-12 2.100613045595533e-12 -0.02946322573834543" free_energy=-45151.03717550003 pbc="T T T"
In      -4.23700023       2.99601159       5.64476041        0       0.00166539      -0.00117761       0.00203968
In       7.18564282       1.17399877       1.57790939        1      -0.00166539       0.00117761      -0.00203968
In       1.28835762      -0.91100641       5.18924429        2      -0.00166539       0.00117761      -0.00203968
In      -1.47432130      -2.08500518       3.61133490        3       0.00000000      -0.00000000       0.00000000
In      -1.28835763       4.03851418       3.38357684        4       0.00166539      -0.00117761      -0.00203968
In       4.60892757      -2.86451541       5.41700235        5       0.00166539       0.00235522      -0.00000000
In      -1.28835763       1.30549494       5.41700235        6       0.00166539       0.00235522       0.00000000
In      -1.66028498       7.03452577       1.80566745        7      -0.00166539      -0.00235522       0.00000000
In       4.23700022       0.13149618       3.83909296        8      -0.00166539       0.00117761       0.00203968
In      -1.47432130       4.17001036      -0.00000000        9       0.00000000      -0.00000000       0.00000000
In       4.23700022       6.38651171       0.22775805       10      -0.00166539       0.00117761       0.00203968
In      -1.28835763      -2.21650135       6.99491174       11       0.00166539      -0.00117761      -0.00203968
In       4.23700022       2.86451542       1.80566745       12      -0.00166539      -0.00235522       0.00000000
In       1.66028497       5.08101677       2.03342550       13       0.00166539      -0.00117761       0.00203968
In       4.42296390       0.00000000      -0.00000000       14      -0.00000000       0.00000000      -0.00000000
In       1.47432130       2.08500518       3.61133490       15       0.00000000       0.00000000       0.00000000
O        0.85960212       4.16989899       3.91361366       16      -0.00173239       0.00898676      -0.00153689
O       -2.08904048       3.38934454       5.26595941       17      -0.00173239      -0.00582437      -0.00701431
O       -0.44958975       2.23007781       0.05119848       18       0.00240407      -0.00874928      -0.00194821
O       -0.85960213      -0.78077718       1.95690327       19       0.00173239       0.00316239      -0.00855121
O        3.89185149       4.98034700       1.90570479       20      -0.00491380      -0.00428719      -0.00660300
O        2.00543370       2.92478992       1.65462451       21       0.00491380       0.00357477      -0.00701431
O        2.00543370       6.22556744       0.25108027       22       0.00491380      -0.00786196       0.00041132
O       -2.25240077       5.93553354       3.66253338       23       0.00905026       0.00064985      -0.00194821
O        3.39823235       1.93993255       7.17147132       24      -0.00240407       0.00874928       0.00194821
O        5.20104337      -1.76552319       3.56013642       25      -0.00905026      -0.00064985       0.00194821
O        6.34687495       3.24438327       1.70563010       26      -0.00240407      -0.00606184       0.00660299
O        3.64488443       2.28908536       3.86241518       27       0.00905026      -0.00201213       0.00041132
O        0.69624183       4.28541216       6.92039104       28       0.00905026       0.00136228       0.00153689
O        2.25240077      -0.11540181       0.30227876       29      -0.00905026      -0.00136228      -0.00153689
O       -3.39823235       0.92562709       5.51703969       30       0.00240407       0.00606184      -0.00660299
O        5.03768307       0.78066582       1.95671038       31       0.00173239       0.00582437       0.00701431
O        0.94320890       1.24522044       5.56804528       32      -0.00491380      -0.00357477       0.00701431
O        3.39823235      -1.01430546       5.56823818       33      -0.00240407      -0.00268744      -0.00855121
O        2.08904047       0.00011137       3.30905614       34       0.00173239      -0.00898676       0.00153689
O        0.94320890      -2.05555708       6.97158952       35      -0.00491380       0.00786196      -0.00041132
O       -0.69624183       1.88092500       3.36025462       36      -0.00905026       0.00201213      -0.00041132
O       -0.94320890      -0.81033664       5.31696501       37       0.00491380       0.00428719       0.00660299
O       -0.44958975       5.18431582       1.65443162       38       0.00240407       0.00268744       0.00855121
O        3.80824472       4.95078754       5.26576652       39      -0.00173239      -0.00316239       0.00855121
