40
Lattice="8.194247661713773 6.422453200410767e-10 7.284647817113503e-16 -2.7314158878434447 7.725610784212356 -1.1124101347662923e-09 -2.731415886935172 -3.862805391463925 6.690575199620525" Properties=species:S:1:pos:R:3:spacegroup_kinds:I:1:forces:R:3 spacegroup="P 1" unit_cell=conventional occupancy="_JSON {\"0\": {\"In\": 1}, \"1\": {\"In\": 1}, \"2\": {\"In\": 1}, \"3\": {\"In\": 1}, \"4\": {\"In\": 1}, \"5\": {\"In\": 1}, \"6\": {\"In\": 1}, \"7\": {\"In\": 1}, \"8\": {\"In\": 1}, \"9\": {\"In\": 1}, \"10\": {\"In\": 1}, \"11\": {\"In\": 1}, \"12\": {\"In\": 1}, \"13\": {\"In\": 1}, \"14\": {\"In\": 1}, \"15\": {\"In\": 1}, \"16\": {\"O\": 1}, \"17\": {\"O\": 1}, \"18\": {\"O\": 1}, \"19\": {\"O\": 1}, \"20\": {\"O\": 1}, \"21\": {\"O\": 1}, \"22\": {\"O\": 1}, \"23\": {\"O\": 1}, \"24\": {\"O\": 1}, \"25\": {\"O\": 1}, \"26\": {\"O\": 1}, \"27\": {\"O\": 1}, \"28\": {\"O\": 1}, \"29\": {\"O\": 1}, \"30\": {\"O\": 1}, \"31\": {\"O\": 1}, \"32\": {\"O\": 1}, \"33\": {\"O\": 1}, \"34\": {\"O\": 1}, \"35\": {\"O\": 1}, \"36\": {\"O\": 1}, \"37\": {\"O\": 1}, \"38\": {\"O\": 1}, \"39\": {\"O\": 1}}" n_minim_iter=7 energy=-45151.03269748545 stress="0.005089832063061426 -3.0529930339849053e-12 -1.8156203838269827e-13 -3.0529930339849053e-12 0.005089832061281115 2.0369807888246543e-12 -1.8156203838269827e-13 2.0369807888246543e-12 0.0050898320506042975" free_energy=-45151.03269748545 pbc="T T T"
In      -4.03723754       2.85475804       5.09127683        0      -0.00014733       0.00010418      -0.00018044
In       6.76865342       1.00804736       1.59929836        1       0.00014733      -0.00010418       0.00018044
In       1.30582165      -0.92335534       4.94458596        2       0.00014733      -0.00010418       0.00018044
In      -1.36570794      -1.93140269       3.34528760        3       0.00000000       0.00000000      -0.00000000
In      -1.30582165       3.82045939       3.27194216        4      -0.00014733       0.00010418       0.00018045
In       4.15701013      -2.81241203       5.01793140        5      -0.00014733      -0.00020836      -0.00000000
In      -1.30582165       1.05039336       5.01793140        6      -0.00014733      -0.00020836      -0.00000000
In      -1.42559424       6.67521742       1.67264380        7       0.00014733       0.00020836       0.00000000
In       4.03723753       0.04234601       3.41863303        8       0.00014733      -0.00010418      -0.00018045
In      -1.36570795       3.86280539      -0.00000000        9       0.00000000       0.00000000      -0.00000000
In       4.03723753       5.83655410       0.07334543       10       0.00014733      -0.00010418      -0.00018044
In      -1.30582165      -1.97374870       6.61722976       11      -0.00014733       0.00010418       0.00018044
In       4.03723753       2.81241203       1.67264380       12       0.00014733       0.00020836       0.00000000
In       1.42559424       4.78616074       1.74598923       13      -0.00014733       0.00010418      -0.00018044
In       4.09712383       0.00000000      -0.00000000       14      -0.00000000       0.00000000       0.00000000
In       1.36570794       1.93140270       3.34528760       15       0.00000000      -0.00000000      -0.00000000
O        0.70875840       3.83901449       3.54064040       16      -0.00002268       0.00010177      -0.00017317
O       -2.02265749       3.07817999       4.94085852       17      -0.00002268      -0.00020086      -0.00000155
O       -0.52592941       2.01983341       0.08339336       18      -0.00010098      -0.00014549      -0.00009745
O       -0.70875840      -0.80841631       1.79092372       19       0.00002268      -0.00009909      -0.00017473
O        3.57635508       4.71936888       1.70753036       20      -0.00018181       0.00004282      -0.00007728
O        1.88647669       2.81232247       1.59557092       21       0.00018181       0.00008833      -0.00000155
O        1.88647669       5.76985181       0.11195943       22       0.00018181      -0.00004551      -0.00007572
O       -2.07962700       5.61678129       3.42868096       23       0.00010351       0.00014370      -0.00009745
O        3.25734529       1.84297199       6.60718183       24       0.00010098       0.00014549       0.00009745
O        4.81104289      -1.75397589       3.26189423       25      -0.00010351      -0.00014370       0.00009745
O        5.98876118       3.01354018       1.63775724       26       0.00010098      -0.00015714       0.00007728
O        3.38320477       2.09233687       3.45724703       27       0.00010351      -0.00015625      -0.00007572
O        0.65178888       3.87929802       6.49522239       28       0.00010351       0.00001254       0.00017317
O        2.07962700      -0.01649263       0.19535280       29      -0.00010351      -0.00001254      -0.00017317
O       -3.25734529       0.84926522       5.05281796       30      -0.00010098       0.00015714      -0.00007728
O        4.75407337       0.78462541       1.74971667       31       0.00002268       0.00020086       0.00000155
O        0.84493919       1.05048293       5.09500427       32      -0.00018181      -0.00008833       0.00000155
O        3.25734529      -0.99370676       5.13621132       33       0.00010098       0.00001165      -0.00017473
O        2.02265749       0.02379090       3.14993479       34       0.00002268      -0.00010177       0.00017317
O        0.84493919      -1.90704641       6.57861576       35      -0.00018181       0.00004551       0.00007572
O       -0.65178889       1.77046852       3.23332816       36      -0.00010351       0.00015624       0.00007572
O       -0.84493920      -0.85656349       4.98304484       37       0.00018181      -0.00004282       0.00007728
O       -0.52592941       4.85651216       1.55436387       38      -0.00010098      -0.00001165       0.00017473
O        3.44017429       4.67122170       4.89965147       39      -0.00002268       0.00009909       0.00017473
