40
Lattice="8.919682340494337 6.990997312768897e-10 -4.728473172240315e-16 -2.973227447490564 8.40955715842489 -1.2108775916364053e-09 -2.973227446501888 -4.204778578513343 7.282890134580483" Properties=species:S:1:pos:R:3:spacegroup_kinds:I:1:forces:R:3 spacegroup="P 1" unit_cell=conventional occupancy="_JSON {\"0\": {\"In\": 1}, \"1\": {\"In\": 1}, \"2\": {\"In\": 1}, \"3\": {\"In\": 1}, \"4\": {\"In\": 1}, \"5\": {\"In\": 1}, \"6\": {\"In\": 1}, \"7\": {\"In\": 1}, \"8\": {\"In\": 1}, \"9\": {\"In\": 1}, \"10\": {\"In\": 1}, \"11\": {\"In\": 1}, \"12\": {\"In\": 1}, \"13\": {\"In\": 1}, \"14\": {\"In\": 1}, \"15\": {\"In\": 1}, \"16\": {\"O\": 1}, \"17\": {\"O\": 1}, \"18\": {\"O\": 1}, \"19\": {\"O\": 1}, \"20\": {\"O\": 1}, \"21\": {\"O\": 1}, \"22\": {\"O\": 1}, \"23\": {\"O\": 1}, \"24\": {\"O\": 1}, \"25\": {\"O\": 1}, \"26\": {\"O\": 1}, \"27\": {\"O\": 1}, \"28\": {\"O\": 1}, \"29\": {\"O\": 1}, \"30\": {\"O\": 1}, \"31\": {\"O\": 1}, \"32\": {\"O\": 1}, \"33\": {\"O\": 1}, \"34\": {\"O\": 1}, \"35\": {\"O\": 1}, \"36\": {\"O\": 1}, \"37\": {\"O\": 1}, \"38\": {\"O\": 1}, \"39\": {\"O\": 1}}" n_minim_iter=1 energy=-45151.24570508228 stress="0.0003885829376695059 4.758878765901957e-13 -2.0379505784800193e-12 4.758878765901957e-13 0.0003885829463335123 4.113219950122898e-12 -2.0379505784800193e-12 4.113219950122898e-12 0.00038858293820501867" free_energy=-45151.24570508228 pbc="T T T"
In      -4.26096793       3.01295932       5.70573658        0       0.01280833      -0.00905686       0.01568693
In       7.23419537       1.19181926       1.57715355        1      -0.01280833       0.00905686      -0.01568693
In       1.28774048      -0.91057003       5.21859862        2      -0.01280833       0.00905686      -0.01568693
In      -1.48661372      -2.10238929       3.64144506        3       0.00000000      -0.00000000       0.00000000
In      -1.28774048       4.06415396       3.39787608        4       0.01280833      -0.00905686      -0.01568693
In       4.65871441      -2.87233470       5.46216760        5       0.01280833       0.01811371       0.00000000
In      -1.28774048       1.33244388       5.46216760        6       0.01280833       0.01811371       0.00000000
In      -1.68548697       7.07711328       1.82072253        7      -0.01280833      -0.01811371      -0.00000000
In       4.26096793       0.14062462       3.88501405        8      -0.01280833       0.00905686       0.01568693
In      -1.48661373       4.20477858      -0.00000000        9      -0.00000000      -0.00000000       0.00000000
In       4.26096793       6.44779249       0.24356898       10      -0.01280833       0.00905686       0.01568693
In      -1.28774048      -2.24301390       7.03932115       11       0.01280833      -0.00905686      -0.01568693
In       4.26096793       2.87233470       1.82072253       12      -0.01280833      -0.01811371      -0.00000000
In       1.68548696       5.11534861       2.06429151       13       0.01280833      -0.00905686       0.01568693
In       4.45984117       0.00000000      -0.00000000       14      -0.00000000       0.00000000      -0.00000000
In       1.48661372       2.10238929       3.64144506       15      -0.00000000       0.00000000       0.00000000
O        0.86923494       4.20407218       3.96292640       16       0.03978373       0.01701591      -0.02072405
O       -2.10399251       3.43234814       5.30203869       17       0.03978373      -0.02645551      -0.00437418
O       -0.43917542       2.25514469       0.05812474       18       0.00436150      -0.00140821      -0.04775738
O       -0.86923494      -0.77313684       1.98207496       19      -0.03978373      -0.00943960      -0.02509824
O        3.93737969       5.01147376       1.92395022       20      -0.03820374      -0.01813313       0.02265914
O        2.00907520       2.94193640       1.66059362       21       0.03820374      -0.02868996      -0.00437418
O        2.00907520       6.27431593       0.26335659       22       0.03820374       0.01055683       0.02703332
O       -2.27256261       5.96951153       3.69956981       23       0.00278151      -0.00364266      -0.04775738
O        3.41240287       1.94963389       7.22476539       24      -0.00436150       0.00140821       0.04775738
O        5.24579006      -1.76473295       3.58332032       25      -0.00278151       0.00364266       0.04775738
O        6.38563031       3.28029914       1.71749485       26      -0.00436150      -0.04206321      -0.02265914
O        3.67389228       2.32155496       3.90480166       27       0.00278151      -0.03953777       0.02703332
O        0.70066483       4.32326925       6.96140879       28       0.00278151       0.04318043       0.02072405
O        2.27256261      -0.11849066       0.32148133       29      -0.00278151      -0.04318043      -0.02072405
O       -3.41240287       0.92447944       5.56539528       30       0.00436150       0.04206321       0.02265914
O        5.07721995       0.77243044       1.98085144       31      -0.03978373       0.02645551       0.00437418
O        0.96415225       1.26284218       5.62229651       32      -0.03820374       0.02868996       0.00437418
O        3.41240287      -1.02515445       5.62352003       33      -0.00436150       0.04065500      -0.02509824
O        2.10399251       0.00070640       3.31996373       34      -0.03978373      -0.01701591       0.02072405
O        0.96415225      -2.06953735       7.01953354       35      -0.03820374      -0.01055683      -0.02703332
O       -0.70066484       1.88322362       3.37808847       36      -0.00278151       0.03953777      -0.02703332
O       -0.96415225      -0.80669517       5.35893991       37       0.03820374       0.01813313      -0.02265914
O       -0.43917542       5.22993303       1.65937010       38       0.00436150      -0.04065500       0.02509824
O        3.84246239       4.97791542       5.30081517       39       0.03978373       0.00943960       0.02509824
40
Lattice="8.918631050508594 6.99017346542982e-10 -4.566605359809165e-16 -2.972877017495239 8.408565992721035 -1.2107348438020208e-09 -2.972877016506679 -4.204282995661497 7.28203175990149" Properties=species:S:1:pos:R:3:spacegroup_kinds:I:1:forces:R:3 spacegroup="P 1" unit_cell=conventional occupancy="_JSON {\"0\": {\"In\": 1}, \"1\": {\"In\": 1}, \"2\": {\"In\": 1}, \"3\": {\"In\": 1}, \"4\": {\"In\": 1}, \"5\": {\"In\": 1}, \"6\": {\"In\": 1}, \"7\": {\"In\": 1}, \"8\": {\"In\": 1}, \"9\": {\"In\": 1}, \"10\": {\"In\": 1}, \"11\": {\"In\": 1}, \"12\": {\"In\": 1}, \"13\": {\"In\": 1}, \"14\": {\"In\": 1}, \"15\": {\"In\": 1}, \"16\": {\"O\": 1}, \"17\": {\"O\": 1}, \"18\": {\"O\": 1}, \"19\": {\"O\": 1}, \"20\": {\"O\": 1}, \"21\": {\"O\": 1}, \"22\": {\"O\": 1}, \"23\": {\"O\": 1}, \"24\": {\"O\": 1}, \"25\": {\"O\": 1}, \"26\": {\"O\": 1}, \"27\": {\"O\": 1}, \"28\": {\"O\": 1}, \"29\": {\"O\": 1}, \"30\": {\"O\": 1}, \"31\": {\"O\": 1}, \"32\": {\"O\": 1}, \"33\": {\"O\": 1}, \"34\": {\"O\": 1}, \"35\": {\"O\": 1}, \"36\": {\"O\": 1}, \"37\": {\"O\": 1}, \"38\": {\"O\": 1}, \"39\": {\"O\": 1}}" n_minim_iter=2 energy=-45151.24575961802 stress="-0.00017445118014131433 -2.9000510871892933e-12 -3.0376821843496512e-12 -2.9000510871892933e-12 -0.00017445117235608944 2.093837015062714e-12 -3.0376821843496512e-12 2.093837015062714e-12 -0.00017445117704733532" free_energy=-45151.24575961802 pbc="T T T"
In      -4.26045862       3.01259918       5.70507280        0       0.01184579      -0.00837624       0.01450807
In       7.23333563       1.19168382       1.57695895        1      -0.01184579       0.00837624      -0.01450807
In       1.28758160      -0.91045768       5.21797483        2      -0.01184579       0.00837624      -0.01450807
In      -1.48643851      -2.10214150       3.64101588        3      -0.00000000      -0.00000000       0.00000000
In      -1.28758160       4.06366993       3.39746689        4       0.01184579      -0.00837624      -0.01450807
In       4.65817244      -2.87198610       5.46152382        5       0.01184579       0.01675248      -0.00000000
In      -1.28758160       1.33229689       5.46152382        6       0.01184579       0.01675248       0.00000000
In      -1.68529542       7.07626910       1.82050794        7      -0.01184579      -0.01675248      -0.00000000
In       4.26045861       0.14061307       3.88456486        8      -0.01184579       0.00837624       0.01450807
In      -1.48643851       4.20428300      -0.00000000        9       0.00000000      -0.00000000      -0.00000000
In       4.26045861       6.44703757       0.24354898       10      -0.01184579       0.00837624       0.01450807
In      -1.28758160      -2.24275457       7.03848277       11       0.01184579      -0.00837624      -0.01450807
In       4.26045861       2.87198611       1.82050794       12      -0.01184579      -0.01675248       0.00000000
In       1.68529542       5.11474068       2.06405692       13       0.01184579      -0.00837624       0.01450807
In       4.45931552       0.00000000      -0.00000000       14       0.00000000      -0.00000000       0.00000000
In       1.48643851       2.10214150       3.64101588       15       0.00000000      -0.00000000       0.00000000
O        0.86915458       4.20358613       3.96244782       16       0.03930472       0.01683833      -0.02202979
O       -2.10372244       3.43192891       5.30141135       17       0.03930472      -0.02749753      -0.00356753
O       -0.43912124       2.25487811       0.05809138       18       0.00305199      -0.00186297      -0.04796788
O       -0.86915458      -0.77305096       1.98182741       19      -0.03930472      -0.01065919      -0.02559732
O        3.93689442       5.01087303       1.92373604       20      -0.03902649      -0.01703507       0.02237056
O        2.00885961       2.94157373       1.66039547       21       0.03902649      -0.02789101      -0.00356753
O        2.00885961       6.27358229       0.26334056       22       0.03902649       0.01085593       0.02593809
O       -2.27229322       5.96880593       3.69910725       23       0.00277376      -0.00225646      -0.04796788
O        3.41199825       1.94940489       7.22394038       24      -0.00305199       0.00186297       0.04796788
O        5.24517023      -1.76452293       3.58292450       25      -0.00277376       0.00225646       0.04796788
O        6.38487527       3.27988917       1.71727984       26      -0.00305199      -0.04247289      -0.02237056
O        3.67346081       2.32125939       3.90435644       27       0.00277376      -0.04041317       0.02593809
O        0.70058380       4.32278367       6.96059982       28       0.00277376       0.04266963       0.02202979
O        2.27229322      -0.11850067       0.32143194       29      -0.00277376      -0.04266963      -0.02202979
O       -3.41199826       0.92439384       5.56475192       30       0.00305199       0.04247289       0.02237056
O        5.07659945       0.77235409       1.98062040       31      -0.03930472       0.02749753       0.00356753
O        0.96401740       1.26270927       5.62163628       32      -0.03902649       0.02789101       0.00356753
O        3.41199825      -1.02501105       5.62284329       33      -0.00305199       0.04060991      -0.02559732
O        2.10372244       0.00069687       3.31958394       34      -0.03930472      -0.01683833       0.02202979
O        0.96401740      -2.06929929       7.01869119       35      -0.03902649      -0.01085593      -0.02593809
O       -0.70058380       1.88302361       3.37767531       36      -0.00277376       0.04041317      -0.02593809
O       -0.96401740      -0.80659003       5.35829572       37       0.03902649       0.01703508      -0.02237056
O       -0.43912124       5.22929405       1.65918846       38       0.00305199      -0.04060991       0.02559732
O        3.84203159       4.97733396       5.30020434       39       0.03930472       0.01065919       0.02559732
40
Lattice="8.918902761119273 6.990386425390267e-10 -4.578327385460193e-16 -2.972967587698818 8.408822163941473 -1.2107717288658709e-09 -2.9729675867102285 -4.204411081271695 7.282253610686129" Properties=species:S:1:pos:R:3:spacegroup_kinds:I:1:forces:R:3 spacegroup="P 1" unit_cell=conventional occupancy="_JSON {\"0\": {\"In\": 1}, \"1\": {\"In\": 1}, \"2\": {\"In\": 1}, \"3\": {\"In\": 1}, \"4\": {\"In\": 1}, \"5\": {\"In\": 1}, \"6\": {\"In\": 1}, \"7\": {\"In\": 1}, \"8\": {\"In\": 1}, \"9\": {\"In\": 1}, \"10\": {\"In\": 1}, \"11\": {\"In\": 1}, \"12\": {\"In\": 1}, \"13\": {\"In\": 1}, \"14\": {\"In\": 1}, \"15\": {\"In\": 1}, \"16\": {\"O\": 1}, \"17\": {\"O\": 1}, \"18\": {\"O\": 1}, \"19\": {\"O\": 1}, \"20\": {\"O\": 1}, \"21\": {\"O\": 1}, \"22\": {\"O\": 1}, \"23\": {\"O\": 1}, \"24\": {\"O\": 1}, \"25\": {\"O\": 1}, \"26\": {\"O\": 1}, \"27\": {\"O\": 1}, \"28\": {\"O\": 1}, \"29\": {\"O\": 1}, \"30\": {\"O\": 1}, \"31\": {\"O\": 1}, \"32\": {\"O\": 1}, \"33\": {\"O\": 1}, \"34\": {\"O\": 1}, \"35\": {\"O\": 1}, \"36\": {\"O\": 1}, \"37\": {\"O\": 1}, \"38\": {\"O\": 1}, \"39\": {\"O\": 1}}" n_minim_iter=3 energy=-45151.25022066865 stress="-9.157742672483893e-05 7.065824690253926e-12 7.636403305223948e-13 7.065824690253926e-12 -9.157743282014169e-05 -1.6980753288400447e-13 7.636403305223948e-13 -1.6980753288400447e-13 -9.157744436318426e-05" free_energy=-45151.25022066865 pbc="T T T"
In      -4.25933281       3.01180311       5.70678440        0       0.00098672      -0.00069771       0.00120848
In       7.23230039       1.19260797       1.57546921        1      -0.00098672       0.00069771      -0.00120848
In       1.28636522      -0.90959757       5.21659601        2      -0.00098672       0.00069771      -0.00120848
In      -1.48648379      -2.10220554       3.64112680        3       0.00000000      -0.00000000       0.00000000
In      -1.28636522       4.06290588       3.39603261        4       0.00098672      -0.00069771      -0.00120848
In       4.65956995      -2.87029791       5.46169021        5       0.00098672       0.00139543       0.00000000
In      -1.28636522       1.33411317       5.46169021        6       0.00098672       0.00139543      -0.00000000
In      -1.68660237       7.07470900       1.82056340        7      -0.00098672      -0.00139543       0.00000000
In       4.25933281       0.14150520       3.88622100        8      -0.00098672       0.00069772       0.00120848
In      -1.48648380       4.20441108      -0.00000000        9       0.00000000      -0.00000000       0.00000000
In       4.25933281       6.44812182       0.24509419       10      -0.00098672       0.00069771       0.00120848
In      -1.28636522      -2.24371074       7.03715941       11       0.00098672      -0.00069771      -0.00120848
In       4.25933281       2.87029792       1.82056340       12      -0.00098672      -0.00139543      -0.00000000
In       1.68660236       5.11400866       2.06565759       13       0.00098672      -0.00069772       0.00120848
In       4.45945138       0.00000000      -0.00000000       14       0.00000000      -0.00000000      -0.00000000
In       1.48648379       2.10220554       3.64112680       15       0.00000000       0.00000000      -0.00000000
O        0.87326049       4.20546096       3.96033233       16       0.02997994      -0.00242789       0.00475308
O       -2.09970709       3.42922347       5.30117822       17       0.02997994       0.00533023      -0.00027392
O       -0.43877722       2.25476870       0.05313995       18       0.01272967       0.01752802      -0.02140111
O       -0.87326050      -0.77413773       1.97925695       19      -0.02997994       0.00290234       0.00447915
O        3.93300526       5.00922918       1.92611699       20      -0.00496793      -0.01525828       0.02588026
O        2.01292991       2.93875388       1.66005141       21       0.00496793      -0.03004210      -0.00027392
O        2.01292991       6.27488638       0.26606558       22       0.00496793       0.01478383       0.02615419
O       -2.27207539       5.96871019       3.69426675       23      -0.01228235      -0.01784432      -0.02140111
O        3.41174481       1.94964239       7.22911366       24      -0.01272967      -0.01752802       0.02140111
O        5.24504297      -1.76429910       3.58798685       25       0.01228235       0.01784432       0.02140111
O        6.38471239       3.27561044       1.71500981       26      -0.01272967      -0.00976990      -0.02588026
O        3.67385978       2.31717931       3.90719238       27      -0.01228235      -0.00961175       0.02615419
O        0.70089220       4.32734375       6.96304807       28      -0.01228235       0.02745606      -0.00475308
O        2.27207539      -0.12293267       0.31920553       29       0.01228235      -0.02745606       0.00475308
O       -3.41174481       0.92880065       5.56724380       30       0.01272967       0.00976990       0.02588026
O        5.07267468       0.77518761       1.98107539       31      -0.02997994      -0.00533023       0.00027392
O        0.96003767       1.26565720       5.62220219       32      -0.00496793       0.03004210       0.00027392
O        3.41174481      -1.02084174       5.62038375       33      -0.01272967       0.02729792       0.00447915
O        2.09970709      -0.00104988       3.32192127       34      -0.02997994       0.00242789      -0.00475308
O        0.96003767      -2.07047529       7.01618803       35      -0.00496793      -0.01478383      -0.02615419
O       -0.70089220       1.88723178       3.37506122       36       0.01228235       0.00961175      -0.02615419
O       -0.96003767      -0.80481810       5.35613661       37       0.00496793       0.01525828      -0.02588026
O       -0.43877722       5.22525282       1.66186985       38       0.01272967      -0.02729792      -0.00447915
O        3.84622808       4.97854882       5.30299666       39       0.02997994      -0.00290234      -0.00447915
40
Lattice="8.919276109099316 6.990679047520274e-10 -4.583932534580557e-16 -2.973092037025526 8.409174159792702 -1.2108224114199725e-09 -2.973092036036895 -4.20458707919728 7.2825584480353545" Properties=species:S:1:pos:R:3:spacegroup_kinds:I:1:forces:R:3 spacegroup="P 1" unit_cell=conventional occupancy="_JSON {\"0\": {\"In\": 1}, \"1\": {\"In\": 1}, \"2\": {\"In\": 1}, \"3\": {\"In\": 1}, \"4\": {\"In\": 1}, \"5\": {\"In\": 1}, \"6\": {\"In\": 1}, \"7\": {\"In\": 1}, \"8\": {\"In\": 1}, \"9\": {\"In\": 1}, \"10\": {\"In\": 1}, \"11\": {\"In\": 1}, \"12\": {\"In\": 1}, \"13\": {\"In\": 1}, \"14\": {\"In\": 1}, \"15\": {\"In\": 1}, \"16\": {\"O\": 1}, \"17\": {\"O\": 1}, \"18\": {\"O\": 1}, \"19\": {\"O\": 1}, \"20\": {\"O\": 1}, \"21\": {\"O\": 1}, \"22\": {\"O\": 1}, \"23\": {\"O\": 1}, \"24\": {\"O\": 1}, \"25\": {\"O\": 1}, \"26\": {\"O\": 1}, \"27\": {\"O\": 1}, \"28\": {\"O\": 1}, \"29\": {\"O\": 1}, \"30\": {\"O\": 1}, \"31\": {\"O\": 1}, \"32\": {\"O\": 1}, \"33\": {\"O\": 1}, \"34\": {\"O\": 1}, \"35\": {\"O\": 1}, \"36\": {\"O\": 1}, \"37\": {\"O\": 1}, \"38\": {\"O\": 1}, \"39\": {\"O\": 1}}" n_minim_iter=4 energy=-45151.25162201009 stress="-2.3847423227852663e-05 -1.4651616660203461e-12 -1.3128831115648874e-12 -1.4651616660203461e-12 -2.384742598129615e-05 5.510178098248114e-12 -1.3128831115648874e-12 5.510178098248114e-12 -2.384741776941459e-05" free_energy=-45151.25162201009 pbc="T T T"
In      -4.25860510       3.01128854       5.70813292        0      -0.00484963       0.00342921      -0.00593956
In       7.23169713       1.19329854       1.57442553        1       0.00484963      -0.00342921       0.00593956
In       1.28551306      -0.90899500       5.21570475        2       0.00484963      -0.00342921       0.00593956
In      -1.48654602      -2.10229354       3.64127922        3      -0.00000000       0.00000000      -0.00000000
In      -1.28551306       4.06243531       3.39506514        4      -0.00484963       0.00342921       0.00593956
In       4.66067101      -2.86913677       5.46191883        5      -0.00484963      -0.00685841       0.00000000
In      -1.28551306       1.33545031       5.46191883        6      -0.00484963      -0.00685841      -0.00000000
In      -1.68757898       7.07372386       1.82063961        7       0.00484963       0.00685841      -0.00000000
In       4.25860510       0.14215177       3.88749330        8       0.00484963      -0.00342921      -0.00593956
In      -1.48654602       4.20458708      -0.00000000        9      -0.00000000       0.00000000       0.00000000
In       4.25860510       6.44903239       0.24621408       10       0.00484963      -0.00342921      -0.00593956
In      -1.28551306      -2.24444531       7.03634436       11      -0.00484963       0.00342920       0.00593956
In       4.25860510       2.86913678       1.82063961       12       0.00484963       0.00685841       0.00000000
In       1.68757897       5.11358208       2.06685369       13      -0.00484963       0.00342921      -0.00593956
In       4.45963805       0.00000000      -0.00000000       14       0.00000000       0.00000000       0.00000000
In       1.48654602       2.10229354       3.64127922       15       0.00000000       0.00000000      -0.00000000
O        0.87688779       4.20679953       3.95905628       16       0.02039478      -0.01543945       0.02200990
O       -2.09620425       3.42753709       5.30111427       17       0.02039478       0.02678086       0.00236601
O       -0.43822791       2.25517078       0.04915384       18       0.01749104       0.02883411      -0.00119033
O       -0.87688779      -0.77483754       1.97761210       19      -0.02039478       0.01134141       0.02437591
O        3.93024771       5.00780361       1.92845826       20       0.01845098      -0.01202864       0.02556624
O        2.01593636       2.93610150       1.65983505       21      -0.01845098      -0.02815533       0.00236601
O        2.01593636       6.27628919       0.26862321       22      -0.01845098       0.01612669       0.02320023
O       -2.27227137       5.96832227       3.69043306       23      -0.02135472      -0.02610208      -0.00119033
O        3.41131995       1.94941630       7.23340461       24      -0.01749104      -0.02883411       0.00119033
O        5.24536341      -1.76373518       3.59212538       25       0.02135472       0.02610208       0.00119033
O        6.38441198       3.27244741       1.71282096       26      -0.01749104       0.01338620      -0.02556624
O        3.67391270       2.31414119       3.90990244       27      -0.02135472       0.01202019       0.02320023
O        0.70082066       4.33129779       6.96478139       28      -0.02135472       0.01408189      -0.02200990
O        2.27227137      -0.12671070       0.31777705       29       0.02135472      -0.01408189       0.02200990
O       -3.41131995       0.93213968       5.56973749       30       0.01749104      -0.01338620       0.02556624
O        5.06929628       0.77704999       1.98144417       31      -0.02039478      -0.02678086      -0.00236601
O        0.95715567       1.26848559       5.62272340       32       0.01845098       0.02815533      -0.00236601
O        3.41131995      -1.01727662       5.61889133       33      -0.01749104       0.01544791       0.02437591
O        2.09620425      -0.00221244       3.32350217       34      -0.02039478       0.01543945      -0.02200990
O        0.95715567      -2.07170211       7.01393523       35       0.01845098      -0.01612669      -0.02320023
O       -0.70082067       1.89044589       3.37265600       36       0.02135472      -0.01202019      -0.02320023
O       -0.95715567      -0.80321652       5.35410018       37      -0.01845098       0.01202864      -0.02556624
O       -0.43822791       5.22186371       1.66366712       38       0.01749104      -0.01544791      -0.02437591
O        3.84997982       4.97942463       5.30494634       39       0.02039478      -0.01134141      -0.02437591
40
Lattice="8.920288333760727 6.991472409414285e-10 -4.574205384730092e-16 -2.973429445246071 8.410128494355565 -1.2109598243690947e-09 -2.9734294442573277 -4.205064246478632 7.283384926010595" Properties=species:S:1:pos:R:3:spacegroup_kinds:I:1:forces:R:3 spacegroup="P 1" unit_cell=conventional occupancy="_JSON {\"0\": {\"In\": 1}, \"1\": {\"In\": 1}, \"2\": {\"In\": 1}, \"3\": {\"In\": 1}, \"4\": {\"In\": 1}, \"5\": {\"In\": 1}, \"6\": {\"In\": 1}, \"7\": {\"In\": 1}, \"8\": {\"In\": 1}, \"9\": {\"In\": 1}, \"10\": {\"In\": 1}, \"11\": {\"In\": 1}, \"12\": {\"In\": 1}, \"13\": {\"In\": 1}, \"14\": {\"In\": 1}, \"15\": {\"In\": 1}, \"16\": {\"O\": 1}, \"17\": {\"O\": 1}, \"18\": {\"O\": 1}, \"19\": {\"O\": 1}, \"20\": {\"O\": 1}, \"21\": {\"O\": 1}, \"22\": {\"O\": 1}, \"23\": {\"O\": 1}, \"24\": {\"O\": 1}, \"25\": {\"O\": 1}, \"26\": {\"O\": 1}, \"27\": {\"O\": 1}, \"28\": {\"O\": 1}, \"29\": {\"O\": 1}, \"30\": {\"O\": 1}, \"31\": {\"O\": 1}, \"32\": {\"O\": 1}, \"33\": {\"O\": 1}, \"34\": {\"O\": 1}, \"35\": {\"O\": 1}, \"36\": {\"O\": 1}, \"37\": {\"O\": 1}, \"38\": {\"O\": 1}, \"39\": {\"O\": 1}}" n_minim_iter=5 energy=-45151.25270159634 stress="9.63429340363263e-05 -5.878486883040434e-12 -4.232925934582675e-12 -5.878486883040434e-12 9.6342937077244e-05 2.1315666532312418e-12 -4.232925934582675e-12 2.1315666532312418e-12 9.63429317906085e-05" free_energy=-45151.25270159634 pbc="T T T"
In      -4.25836618       3.01111960       5.70966525        0      -0.00023890       0.00016893      -0.00029259
In       7.23179562       1.19394465       1.57371967        1       0.00023890      -0.00016893       0.00029259
In       1.28493673      -0.90858747       5.21541213        2       0.00023890      -0.00016893       0.00029259
In      -1.48671472      -2.10253212       3.64169246        3      -0.00000000       0.00000000      -0.00000000
In      -1.28493673       4.06238566       3.39456590        4      -0.00023890       0.00016893       0.00029259
In       4.66192216      -2.86844101       5.46253869        5      -0.00023890      -0.00033785      -0.00000000
In      -1.28493673       1.33662323       5.46253869        6      -0.00023890      -0.00033785       0.00000000
In      -1.68849271       7.07350526       1.82084623        7       0.00023890       0.00033785      -0.00000000
In       4.25836618       0.14267859       3.88881902        8       0.00023890      -0.00016893      -0.00029259
In      -1.48671472       4.20506425      -0.00000000        9      -0.00000000      -0.00000000      -0.00000000
In       4.25836618       6.45027496       0.24712655       10       0.00023890      -0.00016893      -0.00029259
In      -1.28493673      -2.24521071       7.03625837       11      -0.00023890       0.00016893       0.00029259
In       4.25836618       2.86844102       1.82084623       12       0.00023890       0.00033785       0.00000000
In       1.68849271       5.11365173       2.06797279       13      -0.00023890       0.00016893      -0.00029259
In       4.46014417       0.00000000      -0.00000000       14      -0.00000000       0.00000000      -0.00000000
In       1.48671472       2.10253213       3.64169246       15      -0.00000000      -0.00000000       0.00000000
O        0.88221655       4.20762626       3.95924634       16       0.00266335      -0.01881126       0.02472603
O       -2.09121289       3.42752691       5.30154298       17       0.00266335       0.03081900       0.00392801
O       -0.43658156       2.25752588       0.04465930       18       0.01220879       0.02406935       0.01561874
O       -0.88221655      -0.77497532       1.97740440       19      -0.00266335       0.01200774       0.02865404
O        3.92857432       5.00582363       1.93274510       20       0.02816865      -0.00299026       0.01303530
O        2.01828456       2.93163758       1.65985052       21      -0.02816865      -0.01278403       0.00392801
O        2.01828456       6.27925030       0.27289458       22      -0.02816865       0.00979377       0.00910729
O       -2.27394299       5.96670079       3.68635176       23      -0.01862321      -0.01953368       0.01561874
O        3.41001100       1.94753838       7.23872562       24      -0.01220879      -0.02406935      -0.01561874
O        5.24737244      -1.76163654       3.59703316       25       0.01862321       0.01953368      -0.01561874
O        6.38344045       3.26997115       1.70894735       26      -0.01220879       0.02556090      -0.01303530
O        3.67291590       2.31165600       3.91458705       27      -0.01862321       0.02329306       0.00910729
O        0.69948645       4.33683595       6.96583104       28      -0.01862321      -0.00375939      -0.02472603
O        2.27394299      -0.13177170       0.31755388       29       0.01862321       0.00375939       0.02472603
O       -3.41001101       0.93509310       5.57443757       30       0.01220879      -0.02556090       0.01303530
O        5.06464234       0.77753734       1.98184194       31      -0.00266335      -0.03081900      -0.00392801
O        0.95514488       1.27342667       5.62353440       32       0.02816865       0.01278403      -0.00392801
O        3.41001100      -1.01244527       5.61909687       33      -0.01220879      -0.00149155       0.02865404
O        2.09121289      -0.00256201       3.32413858       34      -0.00266335       0.01881126      -0.02472603
O        0.95514488      -2.07418605       7.01049034       35       0.02816865      -0.00979377      -0.00910729
O       -0.69948645       1.89340825       3.36879787       36       0.01862321      -0.02329306      -0.00910729
O       -0.95514488      -0.80075938       5.35063982       37      -0.02816865       0.00299026      -0.01303530
O       -0.43658156       5.21750952       1.66428805       38       0.01220879       0.00149155      -0.02865404
O        3.85564599       4.98003958       5.30598052       39       0.00266335      -0.01200774      -0.02865404
40