40
Lattice="8.194247661713794 6.422438845837237e-10 1.0908185275581635e-14 -2.7314158878434496 7.725610784212377 -1.1124105979756834e-09 -2.7314158869351863 -3.862805391463939 6.690575199620532" Properties=species:S:1:pos:R:3:spacegroup_kinds:I:1:forces:R:3 spacegroup="P 1" unit_cell=conventional occupancy="_JSON {\"0\": {\"In\": 1}, \"1\": {\"In\": 1}, \"2\": {\"In\": 1}, \"3\": {\"In\": 1}, \"4\": {\"In\": 1}, \"5\": {\"In\": 1}, \"6\": {\"In\": 1}, \"7\": {\"In\": 1}, \"8\": {\"In\": 1}, \"9\": {\"In\": 1}, \"10\": {\"In\": 1}, \"11\": {\"In\": 1}, \"12\": {\"In\": 1}, \"13\": {\"In\": 1}, \"14\": {\"In\": 1}, \"15\": {\"In\": 1}, \"16\": {\"O\": 1}, \"17\": {\"O\": 1}, \"18\": {\"O\": 1}, \"19\": {\"O\": 1}, \"20\": {\"O\": 1}, \"21\": {\"O\": 1}, \"22\": {\"O\": 1}, \"23\": {\"O\": 1}, \"24\": {\"O\": 1}, \"25\": {\"O\": 1}, \"26\": {\"O\": 1}, \"27\": {\"O\": 1}, \"28\": {\"O\": 1}, \"29\": {\"O\": 1}, \"30\": {\"O\": 1}, \"31\": {\"O\": 1}, \"32\": {\"O\": 1}, \"33\": {\"O\": 1}, \"34\": {\"O\": 1}, \"35\": {\"O\": 1}, \"36\": {\"O\": 1}, \"37\": {\"O\": 1}, \"38\": {\"O\": 1}, \"39\": {\"O\": 1}}" n_minim_iter=7 energy=-45150.82186330542 stress="-0.04073226710614196 3.3277076315615517e-12 3.5727239408442407e-12 3.3277076315615517e-12 -0.040732267104172486 4.889785079512747e-13 3.5727239408442407e-12 4.889785079512747e-13 -0.04073226710902966" free_energy=-45150.82186330542 pbc="T T T"
In      -4.03729890       2.85480143       5.09120167        0       0.00242474      -0.00171455       0.00296968
In       6.76871479       1.00800396       1.59937352        1      -0.00242474       0.00171455      -0.00296968
In       1.30588301      -0.92339873       4.94466112        2      -0.00242474       0.00171455      -0.00296968
In      -1.36570794      -1.93140269       3.34528760        3       0.00000000       0.00000000       0.00000000
In      -1.30588302       3.82050278       3.27201732        4       0.00242474      -0.00171455      -0.00296968
In       4.15694876      -2.81249881       5.01793140        5       0.00242474       0.00342910       0.00000000
In      -1.30588302       1.05030658       5.01793140        6       0.00242474       0.00342910      -0.00000000
In      -1.42553288       6.67530421       1.67264380        7      -0.00242474      -0.00342910      -0.00000000
In       4.03729890       0.04230262       3.41855787        8      -0.00242474       0.00171455       0.00296969
In      -1.36570795       3.86280539      -0.00000000        9       0.00000000      -0.00000000      -0.00000000
In       4.03729890       5.83651070       0.07327027       10      -0.00242474       0.00171455       0.00296968
In      -1.30588301      -1.97370531       6.61730492       11       0.00242474      -0.00171455      -0.00296968
In       4.03729890       2.81249882       1.67264380       12      -0.00242474      -0.00342910       0.00000000
In       1.42553287       4.78620413       1.74591407       13       0.00242474      -0.00171455       0.00296968
In       4.09712383       0.00000000      -0.00000000       14      -0.00000000       0.00000000       0.00000000
In       1.36570794       1.93140270       3.34528760       15      -0.00000000       0.00000000      -0.00000000
O        0.73394341       3.85317414       3.52978105       16       0.00277166      -0.00007608       0.00343465
O       -1.99747248       3.06169569       4.93402558       17       0.00277166       0.00301253      -0.00165144
O       -0.51972610       2.01677121       0.05331268       18       0.00369240       0.00236147      -0.00052377
O       -0.73394341      -0.81074095       1.77323144       19      -0.00277166       0.00293645       0.00178321
O        3.55241854       4.70432644       1.71991876       20       0.00191635      -0.00323885       0.00230698
O        1.91041323       2.79407258       1.58873798       21      -0.00191635      -0.00361733      -0.00165144
O        1.91041323       5.77305925       0.13118077       22      -0.00191635       0.00037847       0.00395842
O       -2.07467216       5.61195349       3.39860028       23      -0.00099561      -0.00426839      -0.00052377
O        3.25114199       1.84603419       6.63726252       24      -0.00369240      -0.00236147       0.00052377
O        4.80608805      -1.74914809       3.29197492       25       0.00099561       0.00426839       0.00052377
O        5.98255787       2.98595844       1.62536884       26      -0.00369240       0.00072714      -0.00230698
O        3.38815961       2.06870014       3.47646837       27      -0.00099561       0.00168060       0.00395841
O        0.65674372       3.90776256       6.50608174       28      -0.00099561       0.00258779      -0.00343465
O        2.07467216      -0.04495716       0.18449345       29       0.00099561      -0.00258779       0.00343465
O       -3.25114199       0.87684696       5.06520636       30       0.00369240      -0.00072714       0.00230698
O        4.72888836       0.80110970       1.75654961       31      -0.00277166      -0.00301253       0.00165144
O        0.82100265       1.06873282       5.10183721       32       0.00191635       0.00361733       0.00165144
O        3.25114199      -0.96918723       5.11851904       33      -0.00369240       0.00163433       0.00178321
O        1.99747248       0.00963126       3.16079414       34      -0.00277166       0.00007608      -0.00343465
O        0.82100265      -1.91025386       6.55939442       35       0.00191635      -0.00037847      -0.00395842
O       -0.65674373       1.79410526       3.21410682       36       0.00099561      -0.00168060      -0.00395842
O       -0.82100265      -0.84152105       4.97065644       37      -0.00191635       0.00323885      -0.00230698
O       -0.51972610       4.83199262       1.57205616       38       0.00369240      -0.00163433      -0.00178321
O        3.46535929       4.67354635       4.91734376       39       0.00277166      -0.00293645      -0.00178321
