40
Lattice="8.692054270906432 6.812608438486502e-10 -6.652800203717389e-16 -2.8973514242777734 8.19494735630546 -1.1799727689257537e-09 -2.897351423314326 -4.097473677471474 7.097032594023326" Properties=species:S:1:pos:R:3:spacegroup_kinds:I:1:forces:R:3 spacegroup="P 1" unit_cell=conventional occupancy="_JSON {\"0\": {\"In\": 1}, \"1\": {\"In\": 1}, \"2\": {\"In\": 1}, \"3\": {\"In\": 1}, \"4\": {\"In\": 1}, \"5\": {\"In\": 1}, \"6\": {\"In\": 1}, \"7\": {\"In\": 1}, \"8\": {\"In\": 1}, \"9\": {\"In\": 1}, \"10\": {\"In\": 1}, \"11\": {\"In\": 1}, \"12\": {\"In\": 1}, \"13\": {\"In\": 1}, \"14\": {\"In\": 1}, \"15\": {\"In\": 1}, \"16\": {\"O\": 1}, \"17\": {\"O\": 1}, \"18\": {\"O\": 1}, \"19\": {\"O\": 1}, \"20\": {\"O\": 1}, \"21\": {\"O\": 1}, \"22\": {\"O\": 1}, \"23\": {\"O\": 1}, \"24\": {\"O\": 1}, \"25\": {\"O\": 1}, \"26\": {\"O\": 1}, \"27\": {\"O\": 1}, \"28\": {\"O\": 1}, \"29\": {\"O\": 1}, \"30\": {\"O\": 1}, \"31\": {\"O\": 1}, \"32\": {\"O\": 1}, \"33\": {\"O\": 1}, \"34\": {\"O\": 1}, \"35\": {\"O\": 1}, \"36\": {\"O\": 1}, \"37\": {\"O\": 1}, \"38\": {\"O\": 1}, \"39\": {\"O\": 1}}" n_minim_iter=7 energy=-45150.60894538548 stress="-0.029314353577921864 8.224087516487416e-14 -6.434839121791595e-13 8.224087516487416e-14 -0.029314353577844877 3.5727800696216556e-12 -6.434839121791595e-13 3.5727800696216556e-12 -0.02931435358142069" free_energy=-45150.60894538548 pbc="T T T"
In      -4.19797538       2.96841686       5.50410007        0       0.00004169      -0.00002948       0.00005106
In       7.09532680       1.12905682       1.59293251        1      -0.00004169       0.00002948      -0.00005106
In       1.30062395      -0.91968001       5.14144881        2      -0.00004169       0.00002948      -0.00005106
In      -1.44867571      -2.04873684       3.54851629        3      -0.00000000       0.00000000       0.00000000
In      -1.30062395       3.99278528       3.36719066        4       0.00004169      -0.00002948      -0.00005106
In       4.49407889      -2.86372845       5.32277444        5       0.00004169       0.00005896      -0.00000000
In      -1.30062395       1.23374523       5.32277444        6       0.00004169       0.00005896       0.00000000
In      -1.59672747       6.96120213       1.77425815        7      -0.00004169      -0.00005896       0.00000000
In       4.19797538       0.10468840       3.72984193        8      -0.00004169       0.00002948       0.00005106
In      -1.44867571       4.09747368      -0.00000000        9      -0.00000000      -0.00000000      -0.00000000
In       4.19797537       6.25089892       0.18132563       10      -0.00004169       0.00002948       0.00005106
In      -1.30062395      -2.15342524       6.91570696       11       0.00004169      -0.00002948      -0.00005106
In       4.19797538       2.86372846       1.77425815       12      -0.00004169      -0.00005896       0.00000000
In       1.59672747       5.01715370       1.95558378       13       0.00004169      -0.00002948       0.00005106
In       4.34602713       0.00000000      -0.00000000       14       0.00000000       0.00000000       0.00000000
In       1.44867571       2.04873684       3.54851629       15       0.00000000      -0.00000000       0.00000000
O        0.81616802       4.09514136       3.81473878       16      -0.00104564      -0.00013314       0.00309324
O       -2.08118340       3.30482686       5.19168304       17      -0.00104564       0.00274540      -0.00143132
O       -0.47745751       2.17082141       0.05880551       18       0.00211431       0.00051097       0.00243882
O       -0.81616803      -0.79497914       1.90938924       19       0.00104564       0.00261226       0.00166192
O        3.80954844       4.92640420       1.85058373       20       0.00293693      -0.00120420      -0.00077690
O        1.98515440       2.90928641       1.64316675       21      -0.00293693       0.00007071      -0.00143132
O        1.98515440       6.11459146       0.20741698       22      -0.00293693      -0.00127491       0.00065442
O       -2.20582256       5.87275464       3.60732180       23       0.00022302      -0.00216372       0.00243882
O        3.37480893       1.92665227       7.03822708       24      -0.00211431      -0.00051097      -0.00243882
O        5.10317398      -1.77528096       3.48971079       25      -0.00022302       0.00216372      -0.00243882
O        6.27216036       3.18507461       1.69793256       26      -0.00211431       0.00236756       0.00077690
O        3.58888029       2.23639184       3.75593328       27       0.00022302       0.00319394       0.00065442
O        0.69152887       4.18327455       6.83081010       28       0.00022302      -0.00103022      -0.00309324
O        2.20582255      -0.08580087       0.26622249       29      -0.00022302       0.00103022       0.00309324
O       -3.37480894       0.91239907       5.39910003       30       0.00211431      -0.00236756      -0.00077690
O        4.97853482       0.79264682       1.90534954       31       0.00104564      -0.00274540       0.00143132
O        0.91219702       1.18818727       5.45386584       32       0.00293693      -0.00007071       0.00143132
O        3.37480893      -1.01425320       5.45790553       33      -0.00211431      -0.00185659       0.00166192
O        2.08118340       0.00233232       3.28229380       34       0.00104564       0.00013314      -0.00309324
O        0.91219702      -2.01711778       6.88961561       35       0.00293693       0.00127491      -0.00065442
O       -0.69152887       1.86108184       3.34109931       36      -0.00022302      -0.00319394      -0.00065442
O       -0.91219702      -0.82893051       5.24644886       37      -0.00293693       0.00120420       0.00077690
O       -0.47745751       5.11172688       1.63912705       38       0.00211431       0.00185659      -0.00166192
O        3.71351945       4.89245282       5.18764335       39      -0.00104564      -0.00261226      -0.00166192
