40
Lattice="9.479867495543173 7.430007841102642e-10 2.237245828331682e-14 -3.159955832548233 8.937704787550357 -1.28692059225622e-09 -3.1599558314974887 -4.468852393032178 7.74027939840234" Properties=species:S:1:pos:R:3:spacegroup_kinds:I:1:forces:R:3 spacegroup="P 1" unit_cell=conventional occupancy="_JSON {\"0\": {\"In\": 1}, \"1\": {\"In\": 1}, \"2\": {\"In\": 1}, \"3\": {\"In\": 1}, \"4\": {\"In\": 1}, \"5\": {\"In\": 1}, \"6\": {\"In\": 1}, \"7\": {\"In\": 1}, \"8\": {\"In\": 1}, \"9\": {\"In\": 1}, \"10\": {\"In\": 1}, \"11\": {\"In\": 1}, \"12\": {\"In\": 1}, \"13\": {\"In\": 1}, \"14\": {\"In\": 1}, \"15\": {\"In\": 1}, \"16\": {\"O\": 1}, \"17\": {\"O\": 1}, \"18\": {\"O\": 1}, \"19\": {\"O\": 1}, \"20\": {\"O\": 1}, \"21\": {\"O\": 1}, \"22\": {\"O\": 1}, \"23\": {\"O\": 1}, \"24\": {\"O\": 1}, \"25\": {\"O\": 1}, \"26\": {\"O\": 1}, \"27\": {\"O\": 1}, \"28\": {\"O\": 1}, \"29\": {\"O\": 1}, \"30\": {\"O\": 1}, \"31\": {\"O\": 1}, \"32\": {\"O\": 1}, \"33\": {\"O\": 1}, \"34\": {\"O\": 1}, \"35\": {\"O\": 1}, \"36\": {\"O\": 1}, \"37\": {\"O\": 1}, \"38\": {\"O\": 1}, \"39\": {\"O\": 1}}" n_minim_iter=6 energy=-45141.35999242088 stress="0.12148293126303127 -5.898190535587215e-13 5.0945978307847835e-12 -5.898190535587215e-13 0.1214829312649967 -3.5585661013152483e-12 5.0945978307847835e-12 -3.5585661013152483e-12 0.12148293125494507" free_energy=-45141.35999242088 pbc="T T T"
In      -4.44508188       3.14314754       6.16632785        0       0.00152243      -0.00107652       0.00186459
In       7.60503771       1.32570485       1.57395154        1      -0.00152243       0.00107652      -0.00186459
In       1.28512605      -0.90872134       5.44409124        2      -0.00152243       0.00107652      -0.00186459
In      -1.57997792      -2.23442619       3.87013970        3       0.00000000       0.00000000      -0.00000000
In      -1.28512605       4.26036064       3.50902139        4       0.00152243      -0.00107652      -0.00186459
In       5.03478561      -2.93465579       5.80520955        5       0.00152243       0.00215304       0.00000000
In      -1.28512605       1.53419661       5.80520955        6       0.00152243       0.00215304      -0.00000000
In      -1.87482978       7.40350818       1.93506985        7      -0.00152243      -0.00215304       0.00000000
In       4.44508188       0.20849176       4.23125801        8      -0.00152243       0.00107652       0.00186459
In      -1.57997792       4.46885240      -0.00000000        9      -0.00000000      -0.00000000       0.00000000
In       4.44508188       6.91177035       0.36111831       10      -0.00152243       0.00107652       0.00186459
In      -1.28512605      -2.44291795       7.37916109       11       0.00152243      -0.00107652      -0.00186459
In       4.44508188       2.93465579       1.93506985       12      -0.00152243      -0.00215304      -0.00000000
In       1.87482978       5.37757374       2.29618816       13       0.00152243      -0.00107652       0.00186459
In       4.73993375       0.00000000      -0.00000000       14       0.00000000       0.00000000      -0.00000000
In       1.57997791       2.23442620       3.87013970       15       0.00000000      -0.00000000       0.00000000
O        1.39681249       4.53257612       4.25424660       16      -0.00043285       0.00133856       0.00100554
O       -1.76314334       3.65242377       5.55796974       17      -0.00043285       0.00020155      -0.00166200
O       -0.24405283       2.57826457      -0.32181135       18       0.00130774      -0.00102923       0.00046978
O       -1.39681250      -0.75270490       2.07193694       19       0.00043285       0.00154011      -0.00065645
O        4.03125260       5.03575943       2.39374828       20       0.00033430      -0.00126888      -0.00112623
O        2.28865906       2.67925909       1.68783004       21      -0.00033430       0.00034091      -0.00166200
O        2.28865906       6.82535274       0.70591824       22      -0.00033430      -0.00160979       0.00053576
O       -2.51216209       6.07395228       3.54832835       23       0.00140629      -0.00088987       0.00046978
O        3.40400865       1.89058783       8.06209074       24      -0.00130774       0.00102923      -0.00046978
O        5.67211792      -1.60509988       4.19195104       25      -0.00140629       0.00088987      -0.00046978
O        6.56396449       3.24486168       1.47639141       26      -0.00130774      -0.00010777       0.00112623
O        3.80774957       2.27039255       4.57605794       27       0.00140629       0.00085178       0.00053576
O        0.64779374       5.06221235       7.35617249       28       0.00140629       0.00003809      -0.00100554
O        2.51216209      -0.59335996       0.38410690       29      -0.00140629      -0.00003809       0.00100554
O       -3.40400866       1.22399072       6.26388798       30       0.00130774       0.00010777      -0.00112623
O        4.92309917       0.81642863       2.18230966       31       0.00043285      -0.00020155       0.00166200
O        0.87129677       1.78959331       6.05244936       32       0.00033430      -0.00034091       0.00166200
O        3.40400865      -0.66659711       5.94207664       33      -0.00130774      -0.00092146      -0.00065645
O        1.76314333      -0.06372372       3.48603280       34       0.00043285      -0.00133856      -0.00100554
O        0.87129677      -2.35650034       7.03436115       35       0.00033430       0.00160979      -0.00053576
O       -0.64779375       2.19845984       3.16422145       36      -0.00140629      -0.00085178      -0.00053576
O       -0.87129677      -0.56690703       5.34653111       37      -0.00033430       0.00126888       0.00112623
O       -0.24405283       5.13544951       1.79820276       38       0.00130774       0.00092146       0.00065645
O        4.55676833       5.22155730       5.66834245       39      -0.00043285      -0.00154011       0.00065645
