40
Lattice="8.532530893118265 6.687588479180689e-10 -1.3858022595786102e-15 -2.844176965003269 8.044547273387257 -1.1583336357810693e-09 -2.8441769640574965 -4.0222736360248605 6.966782301470428" Properties=species:S:1:pos:R:3:spacegroup_kinds:I:1:forces:R:3 spacegroup="P 1" unit_cell=conventional occupancy="_JSON {\"0\": {\"In\": 1}, \"1\": {\"In\": 1}, \"2\": {\"In\": 1}, \"3\": {\"In\": 1}, \"4\": {\"In\": 1}, \"5\": {\"In\": 1}, \"6\": {\"In\": 1}, \"7\": {\"In\": 1}, \"8\": {\"In\": 1}, \"9\": {\"In\": 1}, \"10\": {\"In\": 1}, \"11\": {\"In\": 1}, \"12\": {\"In\": 1}, \"13\": {\"In\": 1}, \"14\": {\"In\": 1}, \"15\": {\"In\": 1}, \"16\": {\"O\": 1}, \"17\": {\"O\": 1}, \"18\": {\"O\": 1}, \"19\": {\"O\": 1}, \"20\": {\"O\": 1}, \"21\": {\"O\": 1}, \"22\": {\"O\": 1}, \"23\": {\"O\": 1}, \"24\": {\"O\": 1}, \"25\": {\"O\": 1}, \"26\": {\"O\": 1}, \"27\": {\"O\": 1}, \"28\": {\"O\": 1}, \"29\": {\"O\": 1}, \"30\": {\"O\": 1}, \"31\": {\"O\": 1}, \"32\": {\"O\": 1}, \"33\": {\"O\": 1}, \"34\": {\"O\": 1}, \"35\": {\"O\": 1}, \"36\": {\"O\": 1}, \"37\": {\"O\": 1}, \"38\": {\"O\": 1}, \"39\": {\"O\": 1}}" n_minim_iter=1 energy=-45150.22366994237 stress="0.010742304067805773 -2.04575412034345e-12 1.821826469692357e-12 -2.04575412034345e-12 0.010742304066819322 -2.5723003268004083e-12 1.821826469692357e-12 -2.5723003268004083e-12 0.010742304074981153" free_energy=-45150.22366994237 pbc="T T T"
In      -4.17449551       2.95181409       5.33748148        0      -0.10617149       0.07507458      -0.13003299
In       7.01867248       1.07045955       1.62930082        1       0.10617149      -0.07507458       0.13003299
In       1.33031855      -0.94067726       5.11269197        2       0.10617149      -0.07507458       0.13003299
In      -1.42208848      -2.01113682       3.48339115        3       0.00000000       0.00000000       0.00000000
In      -1.33031855       3.95738250       3.37099639        4      -0.10617149       0.07507458       0.13003299
In       4.35803538      -2.88692294       5.22508672        5      -0.10617149      -0.15014917      -0.00000000
In      -1.33031855       1.13535070       5.22508672        6      -0.10617149      -0.15014917       0.00000000
In      -1.51385842       6.90919658       1.74169557        7       0.10617149       0.15014917      -0.00000000
In       4.17449551       0.06489114       3.59578590        8       0.10617149      -0.07507458      -0.13003299
In      -1.42208848       4.02227364      -0.00000000        9      -0.00000000       0.00000000       0.00000000
In       4.17449551       6.09830160       0.11239475       10       0.10617149      -0.07507458      -0.13003299
In      -1.33031855      -2.07602796       6.85438754       11      -0.10617149       0.07507458       0.13003299
In       4.17449551       2.88692294       1.74169557       12       0.10617149       0.15014917      -0.00000000
In       1.51385841       4.96295091       1.85409033       13      -0.10617149       0.07507458      -0.13003299
In       4.26626545       0.00000000      -0.00000000       14       0.00000000       0.00000000      -0.00000000
In       1.42208848       2.01113682       3.48339115       15      -0.00000000      -0.00000000      -0.00000000
O        0.75438188       4.00789991       3.71092854       16      -0.00374326      -0.05992441      -0.09048601
O       -2.08979509       3.22094525       5.12376604       17      -0.00374326      -0.04840098       0.09713907
O       -0.51759070       2.10922887       0.08253300       18      -0.10337791       0.02205136      -0.02488796
O       -0.75438188      -0.81570211       1.86791228       19       0.00374326      -0.10832539       0.00665306
O        3.73333466       4.88562620       1.78537928       20      -0.04438513       0.09395632       0.03154102
O        1.95501926       2.90776610       1.64037489       21       0.04438513       0.01966284       0.09713907
O        1.95501926       6.00013374       0.14500439       22       0.04438513       0.07429348      -0.06559805
O       -2.16113029       5.81832336       3.56592415       23      -0.05524953       0.09011518      -0.02488796
O        3.36176766       1.91304477       6.88424930       24       0.10337791      -0.02205136       0.02488796
O        5.00530725      -1.79604972       3.40085815       25       0.05524953      -0.09011518       0.02488796
O        6.20594463       3.13722693       1.69801186       26       0.10337791      -0.01052793      -0.03154102
O        3.52722364       2.19015604       3.62839554       27      -0.05524953      -0.06661119      -0.06559805
O        0.68304668       4.05834152       6.73924491       28      -0.05524953      -0.02350398       0.09048601
O        2.16113028      -0.03606787       0.22753739       29       0.05524953       0.02350398      -0.09048601
O       -3.36176767       0.88504671       5.26877043       30      -0.10337791       0.01052793       0.03154102
O        4.93397205       0.80132839       1.84301626       31       0.00374326       0.04840098      -0.09713907
O        0.88915770       1.11450754       5.32640741       32      -0.04438513      -0.01966284      -0.09713907
O        3.36176766      -1.02799805       5.35130343       33       0.10337791       0.03257929       0.00665306
O        2.08979508       0.01437373       3.25585376       34       0.00374326       0.05992441       0.09048601
O        0.88915770      -1.97786009       6.82177791       35      -0.04438513      -0.07429348       0.06559805
O       -0.68304668       1.83211760       3.33838676       36       0.05524953       0.06661119       0.06559805
O       -0.88915770      -0.86335256       5.18140301       37       0.04438513      -0.09395632      -0.03154102
O       -0.51759070       5.05027169       1.61547886       38      -0.10337791      -0.03257929      -0.00665306
O        3.59855884       4.83797575       5.09887001       39      -0.00374326       0.10832539      -0.00665306
40
Lattice="8.532530893118265 6.687588479180689e-10 -1.3858022595786062e-15 -2.844176965003269 8.044547273387257 -1.1583336357810693e-09 -2.8441769640574965 -4.0222736360248605 6.966782301470429" Properties=species:S:1:pos:R:3:spacegroup_kinds:I:1:forces:R:3 spacegroup="P 1" unit_cell=conventional occupancy="_JSON {\"0\": {\"In\": 1}, \"1\": {\"In\": 1}, \"2\": {\"In\": 1}, \"3\": {\"In\": 1}, \"4\": {\"In\": 1}, \"5\": {\"In\": 1}, \"6\": {\"In\": 1}, \"7\": {\"In\": 1}, \"8\": {\"In\": 1}, \"9\": {\"In\": 1}, \"10\": {\"In\": 1}, \"11\": {\"In\": 1}, \"12\": {\"In\": 1}, \"13\": {\"In\": 1}, \"14\": {\"In\": 1}, \"15\": {\"In\": 1}, \"16\": {\"O\": 1}, \"17\": {\"O\": 1}, \"18\": {\"O\": 1}, \"19\": {\"O\": 1}, \"20\": {\"O\": 1}, \"21\": {\"O\": 1}, \"22\": {\"O\": 1}, \"23\": {\"O\": 1}, \"24\": {\"O\": 1}, \"25\": {\"O\": 1}, \"26\": {\"O\": 1}, \"27\": {\"O\": 1}, \"28\": {\"O\": 1}, \"29\": {\"O\": 1}, \"30\": {\"O\": 1}, \"31\": {\"O\": 1}, \"32\": {\"O\": 1}, \"33\": {\"O\": 1}, \"34\": {\"O\": 1}, \"35\": {\"O\": 1}, \"36\": {\"O\": 1}, \"37\": {\"O\": 1}, \"38\": {\"O\": 1}, \"39\": {\"O\": 1}}" n_minim_iter=2 energy=-45150.252036346974 stress="0.014360970639658886 2.3141425938368012e-12 -4.238256792762925e-12 2.3141425938368012e-12 0.014360970638085967 2.3257348715396062e-12 -4.238256792762925e-12 2.3257348715396062e-12 0.014360970640995884" free_energy=-45150.252036346974 pbc="T T T"
In      -4.18207919       2.95717656       5.32819341        0      -0.02864993       0.02025856      -0.03508886
In       7.02625615       1.06509708       1.63858889        1       0.02864993      -0.02025856       0.03508886
In       1.33790222      -0.94603973       5.12198004        2       0.02864993      -0.02025856       0.03508886
In      -1.42208848      -2.01113682       3.48339115        3      -0.00000000      -0.00000000      -0.00000000
In      -1.33790223       3.96274497       3.38028446        4      -0.02864993       0.02025856       0.03508886
In       4.35045170      -2.89764788       5.22508672        5      -0.02864993      -0.04051712      -0.00000000
In      -1.33790223       1.12462576       5.22508672        6      -0.02864993      -0.04051712      -0.00000000
In      -1.50627474       6.91992152       1.74169557        7       0.02864993       0.04051712       0.00000000
In       4.18207919       0.05952867       3.58649783        8       0.02864993      -0.02025856      -0.03508886
In      -1.42208848       4.02227364      -0.00000000        9       0.00000000       0.00000000      -0.00000000
In       4.18207919       6.09293913       0.10310668       10       0.02864993      -0.02025856      -0.03508886
In      -1.33790223      -2.07066549       6.86367561       11      -0.02864993       0.02025856       0.03508886
In       4.18207919       2.89764788       1.74169557       12       0.02864993       0.04051712       0.00000000
In       1.50627474       4.96831338       1.84480226       13      -0.02864993       0.02025856      -0.03508886
In       4.26626545       0.00000000      -0.00000000       14      -0.00000000       0.00000000      -0.00000000
In       1.42208848       2.01113682       3.48339115       15      -0.00000000       0.00000000       0.00000000
O        0.75411450       4.00361960       3.70446525       16      -0.03424873      -0.00231439       0.00615707
O       -2.09006246       3.21748804       5.13070455       17      -0.03424873       0.00648937      -0.00107422
O       -0.52497484       2.11080397       0.08075528       18      -0.00748003      -0.01243896       0.03171061
O       -0.75411451      -0.82343964       1.86838750       19       0.03424872       0.00417499       0.00508285
O        3.73016430       4.89233737       1.78763221       20       0.01753448       0.01413314      -0.02662776
O        1.95818963       2.90917059       1.64731340       21      -0.01753448       0.03012688      -0.00107422
O        1.95818963       6.00544041       0.14031881       22      -0.01753448      -0.01599374      -0.02555354
O       -2.16507668       5.82476016       3.56414643       23       0.00923422       0.01119856       0.03171061
O        3.36915180       1.91146967       6.88602701       24       0.00748003       0.01243896      -0.03171061
O        5.00925364      -1.80248652       3.40263586       25      -0.00923422      -0.01119856      -0.03171061
O        6.21332876       3.13647493       1.69575893       26       0.00748003       0.02124271       0.02662776
O        3.52327725       2.18539810       3.62370996       27       0.00923422       0.02186291      -0.02555354
O        0.67910028       4.05666266       6.74570819       28       0.00923422      -0.03306147      -0.00615707
O        2.16507668      -0.03438902       0.22107410       29      -0.00923422       0.03306147       0.00615707
O       -3.36915180       0.88579871       5.27102336       30      -0.00748003      -0.02124271      -0.02662776
O        4.93423942       0.80478560       1.83607775       31       0.03424873      -0.00648937       0.00107422
O        0.88598733       1.11310305       5.31946890       32       0.01753448      -0.03012688       0.00107422
O        3.36915180      -1.02567096       5.35177865       33       0.00748003      -0.03368167       0.00508285
O        2.09006246       0.01865404       3.26231704       34       0.03424872       0.00231438      -0.00615707
O        0.88598733      -1.98316677       6.82646348       35       0.01753448       0.01599374       0.02555354
O       -0.67910029       1.83687554       3.34307233       36      -0.00923422      -0.02186291       0.02555354
O       -0.88598734      -0.87006372       5.17915008       37      -0.01753448      -0.01413314       0.02662776
O       -0.52497484       5.04794460       1.61500365       38      -0.00748003       0.03368167      -0.00508285
O        3.59829147       4.84571328       5.09839480       39      -0.03424872      -0.00417499      -0.00508285
40
Lattice="8.532530893118265 6.687588479180689e-10 -1.3858022595786074e-15 -2.844176965003269 8.044547273387257 -1.1583336357810693e-09 -2.8441769640574965 -4.0222736360248605 6.966782301470429" Properties=species:S:1:pos:R:3:spacegroup_kinds:I:1:forces:R:3 spacegroup="P 1" unit_cell=conventional occupancy="_JSON {\"0\": {\"In\": 1}, \"1\": {\"In\": 1}, \"2\": {\"In\": 1}, \"3\": {\"In\": 1}, \"4\": {\"In\": 1}, \"5\": {\"In\": 1}, \"6\": {\"In\": 1}, \"7\": {\"In\": 1}, \"8\": {\"In\": 1}, \"9\": {\"In\": 1}, \"10\": {\"In\": 1}, \"11\": {\"In\": 1}, \"12\": {\"In\": 1}, \"13\": {\"In\": 1}, \"14\": {\"In\": 1}, \"15\": {\"In\": 1}, \"16\": {\"O\": 1}, \"17\": {\"O\": 1}, \"18\": {\"O\": 1}, \"19\": {\"O\": 1}, \"20\": {\"O\": 1}, \"21\": {\"O\": 1}, \"22\": {\"O\": 1}, \"23\": {\"O\": 1}, \"24\": {\"O\": 1}, \"25\": {\"O\": 1}, \"26\": {\"O\": 1}, \"27\": {\"O\": 1}, \"28\": {\"O\": 1}, \"29\": {\"O\": 1}, \"30\": {\"O\": 1}, \"31\": {\"O\": 1}, \"32\": {\"O\": 1}, \"33\": {\"O\": 1}, \"34\": {\"O\": 1}, \"35\": {\"O\": 1}, \"36\": {\"O\": 1}, \"37\": {\"O\": 1}, \"38\": {\"O\": 1}, \"39\": {\"O\": 1}}" n_minim_iter=3 energy=-45150.25347089286 stress="0.014997804704518424 -5.764931105336661e-13 2.8058589172673566e-12 -5.764931105336661e-13 0.014997804696332438 -3.2838535369653832e-12 2.8058589172673566e-12 -3.2838535369653832e-12 0.01499780470007838" free_energy=-45150.25347089286 pbc="T T T"
In      -4.18375328       2.95836031       5.32614308        0      -0.01010575       0.00714585      -0.01237697
In       7.02793024       1.06391333       1.64063922        1       0.01010575      -0.00714585       0.01237697
In       1.33957631      -0.94722349       5.12403037        2       0.01010575      -0.00714585       0.01237697
In      -1.42208848      -2.01113682       3.48339115        3      -0.00000000      -0.00000000      -0.00000000
In      -1.33957631       3.96392872       3.38233479        4      -0.01010575       0.00714585       0.01237697
In       4.34877762      -2.90001539       5.22508672        5      -0.01010575      -0.01429169       0.00000000
In      -1.33957631       1.12225824       5.22508672        6      -0.01010575      -0.01429169      -0.00000000
In      -1.50460065       6.92228904       1.74169557        7       0.01010575       0.01429169       0.00000000
In       4.18375327       0.05834492       3.58444751        8       0.01010575      -0.00714585      -0.01237697
In      -1.42208848       4.02227364      -0.00000000        9      -0.00000000       0.00000000      -0.00000000
In       4.18375327       6.09175537       0.10105635       10       0.01010575      -0.00714585      -0.01237697
In      -1.33957631      -2.06948173       6.86572594       11      -0.01010575       0.00714585       0.01237697
In       4.18375327       2.90001540       1.74169557       12       0.01010575       0.01429169      -0.00000000
In       1.50460065       4.96949713       1.84275193       13      -0.01010575       0.00714585      -0.01237697
In       4.26626545       0.00000000      -0.00000000       14       0.00000000      -0.00000000       0.00000000
In       1.42208848       2.01113682       3.48339115       15      -0.00000000      -0.00000000       0.00000000
O        0.75349760       4.00290728       3.70355166       16      -0.03854914       0.00415728       0.01724388
O       -2.09067937       3.21705300       5.13177822       17      -0.03854914       0.01285499      -0.01222225
O       -0.52626221       2.11084302       0.08100782       18       0.00318962      -0.01665877       0.03889708
O       -0.75349760      -0.82458699       1.86854758       19       0.03854914       0.01701228       0.00502162
O        3.72995977       4.89363052       1.78753976       20       0.02496952       0.00544496      -0.03387545
O        1.95839415       2.90989723       1.64838707       21      -0.02496952       0.03205948      -0.01222225
O        1.95839415       6.00600693       0.13915269       22      -0.02496952      -0.02661452      -0.02165320
O       -2.16554262       5.82596088       3.56439897       23       0.01676924       0.00254572       0.03889708
O        3.37043917       1.91143062       6.88577448       24      -0.00318962       0.01665876      -0.03889708
O        5.00971958      -1.80368724       3.40238333       25      -0.01676924      -0.00254572      -0.03889708
O        6.21461613       3.13671316       1.69585138       26      -0.00318962       0.02535647       0.03387545
O        3.52281131       2.18501644       3.62254384       27       0.01676924       0.03241299      -0.02165320
O        0.67863435       4.05584360       6.74662179       28       0.01676924      -0.03495872      -0.01724388
O        2.16554261      -0.03356996       0.22016051       29      -0.01676924       0.03495872       0.01724388
O       -3.37043917       0.88556048       5.27093091       30       0.00318962      -0.02535647      -0.03387545
O        4.93485633       0.80522064       1.83500407       31       0.03854914      -0.01285499       0.01222225
O        0.88578281       1.11237641       5.31839522       32       0.02496952      -0.03205948       0.01222225
O        3.37043917      -1.02587014       5.35193873       33      -0.00318962      -0.04201524       0.00502162
O        2.09067936       0.01936636       3.26323064       34       0.03854914      -0.00415729      -0.01724388
O        0.88578281      -1.98373328       6.82762961       35       0.02496952       0.02661452       0.02165320
O       -0.67863435       1.83725721       3.34423846       36      -0.01676924      -0.03241299       0.02165320
O       -0.88578281      -0.87135688       5.17924253       37      -0.02496952      -0.00544496       0.03387545
O       -0.52626221       5.04814378       1.61484356       38       0.00318962       0.04201524      -0.00502162
O        3.59767456       4.84686063       5.09823471       39      -0.03854914      -0.01701228      -0.00502162
40
Lattice="8.532530893118265 6.687588479180689e-10 -1.3858022595786078e-15 -2.844176965003269 8.044547273387257 -1.1583336357810693e-09 -2.8441769640574965 -4.0222736360248605 6.966782301470429" Properties=species:S:1:pos:R:3:spacegroup_kinds:I:1:forces:R:3 spacegroup="P 1" unit_cell=conventional occupancy="_JSON {\"0\": {\"In\": 1}, \"1\": {\"In\": 1}, \"2\": {\"In\": 1}, \"3\": {\"In\": 1}, \"4\": {\"In\": 1}, \"5\": {\"In\": 1}, \"6\": {\"In\": 1}, \"7\": {\"In\": 1}, \"8\": {\"In\": 1}, \"9\": {\"In\": 1}, \"10\": {\"In\": 1}, \"11\": {\"In\": 1}, \"12\": {\"In\": 1}, \"13\": {\"In\": 1}, \"14\": {\"In\": 1}, \"15\": {\"In\": 1}, \"16\": {\"O\": 1}, \"17\": {\"O\": 1}, \"18\": {\"O\": 1}, \"19\": {\"O\": 1}, \"20\": {\"O\": 1}, \"21\": {\"O\": 1}, \"22\": {\"O\": 1}, \"23\": {\"O\": 1}, \"24\": {\"O\": 1}, \"25\": {\"O\": 1}, \"26\": {\"O\": 1}, \"27\": {\"O\": 1}, \"28\": {\"O\": 1}, \"29\": {\"O\": 1}, \"30\": {\"O\": 1}, \"31\": {\"O\": 1}, \"32\": {\"O\": 1}, \"33\": {\"O\": 1}, \"34\": {\"O\": 1}, \"35\": {\"O\": 1}, \"36\": {\"O\": 1}, \"37\": {\"O\": 1}, \"38\": {\"O\": 1}, \"39\": {\"O\": 1}}" n_minim_iter=4 energy=-45150.25520839063 stress="0.01587080543116586 1.8519587070269346e-12 1.5703352657006749e-12 1.8519587070269346e-12 0.015870805428391088 -2.86964047380789e-12 1.5703352657006749e-12 -2.86964047380789e-12 0.015870805425170945" free_energy=-45150.25520839063 pbc="T T T"
In      -4.18667244       2.96042447       5.32256785        0       0.02204516      -0.01558829       0.02699970
In       7.03084940       1.06184917       1.64421444        1      -0.02204516       0.01558829      -0.02699970
In       1.34249547      -0.94928765       5.12760559        2      -0.02204516       0.01558829      -0.02699970
In      -1.42208848      -2.01113682       3.48339115        3       0.00000000       0.00000000       0.00000000
In      -1.34249548       3.96599288       3.38591002        4       0.02204516      -0.01558829      -0.02699970
In       4.34585845      -2.90414371       5.22508672        5       0.02204516       0.03117657       0.00000000
In      -1.34249547       1.11812992       5.22508672        6       0.02204516       0.03117657       0.00000000
In      -1.50168149       6.92641735       1.74169557        7      -0.02204516      -0.03117657       0.00000000
In       4.18667244       0.05628076       3.58087228        8      -0.02204516       0.01558829       0.02699970
In      -1.42208848       4.02227364      -0.00000000        9       0.00000000      -0.00000000      -0.00000000
In       4.18667244       6.08969121       0.09748113       10      -0.02204516       0.01558829       0.02699970
In      -1.34249547      -2.06741757       6.86930117       11       0.02204516      -0.01558829      -0.02699970
In       4.18667244       2.90414372       1.74169557       12      -0.02204516      -0.03117657      -0.00000000
In       1.50168149       4.97156129       1.83917670       13       0.02204516      -0.01558829       0.02699970
In       4.26626545       0.00000000      -0.00000000       14       0.00000000      -0.00000000      -0.00000000
In       1.42208848       2.01113682       3.48339115       15       0.00000000       0.00000000      -0.00000000
O        0.75059887       4.00208424       3.70311373       16      -0.03611976       0.00206671       0.01469776
O       -2.09357810       3.21708526       5.13270996       17      -0.03611976       0.01169528      -0.00913871
O       -0.52797400       2.11003599       0.08339325       18       0.00093501      -0.01450640       0.03624393
O       -0.75059887      -0.82537777       1.86904139       19       0.03611976       0.01376199       0.00555906
O        3.73095644       4.89579852       1.78564814       20       0.02306633       0.00716345      -0.03068487
O        1.95739749       2.91261942       1.64931881       21      -0.02306633       0.03015561      -0.00913871
O        1.95739749       6.00545274       0.13632933       22      -0.02306633      -0.02299216      -0.02154617
O       -2.16535235       5.82784379       3.56678440       23       0.01398843       0.00395393       0.03624393
O        3.37215096       1.91223765       6.88338905       24      -0.00093501       0.01450640      -0.03624393
O        5.00952931      -1.80557015       3.39999790       25      -0.01398843      -0.00395393      -0.03624393
O        6.21632793       3.13837549       1.69774300       26      -0.00093501       0.02413497       0.03068488
O        3.52300158       2.18614083       3.61972048       27       0.01398843       0.02941120      -0.02154617
O        0.67882462       4.05283630       6.74705972       28       0.01398843      -0.03336513      -0.01469776
O        2.16535234      -0.03056266       0.21972258       29      -0.01398843       0.03336513       0.01469776
O       -3.37215097       0.88389815       5.26903929       30       0.00093501      -0.02413497      -0.03068488
O        4.93775506       0.80518838       1.83407233       31       0.03611976      -0.01169528       0.00913871
O        0.88677947       1.10965422       5.31746348       32       0.02306633      -0.03015561       0.00913871
O        3.37215096      -1.02833949       5.35243254       33      -0.00093501      -0.03864136       0.00555906
O        2.09357809       0.02018940       3.26366857       34       0.03611976      -0.00206671      -0.01469776
O        0.88677947      -1.98317910       6.83045297       35       0.02306633       0.02299216       0.02154617
O       -0.67882462       1.83613281       3.34706181       36      -0.01398843      -0.02941120       0.02154617
O       -0.88677948      -0.87352488       5.18113415       37      -0.02306633      -0.00716345       0.03068488
O       -0.52797400       5.05061313       1.61434975       38       0.00093501       0.03864136      -0.00555906
O        3.59477583       4.84765141       5.09774090       39      -0.03611976      -0.01376199      -0.00555906
40
Lattice="8.532530893118265 6.687588479180689e-10 -1.3858022595786102e-15 -2.844176965003269 8.044547273387257 -1.1583336357810693e-09 -2.8441769640574965 -4.0222736360248605 6.966782301470429" Properties=species:S:1:pos:R:3:spacegroup_kinds:I:1:forces:R:3 spacegroup="P 1" unit_cell=conventional occupancy="_JSON {\"0\": {\"In\": 1}, \"1\": {\"In\": 1}, \"2\": {\"In\": 1}, \"3\": {\"In\": 1}, \"4\": {\"In\": 1}, \"5\": {\"In\": 1}, \"6\": {\"In\": 1}, \"7\": {\"In\": 1}, \"8\": {\"In\": 1}, \"9\": {\"In\": 1}, \"10\": {\"In\": 1}, \"11\": {\"In\": 1}, \"12\": {\"In\": 1}, \"13\": {\"In\": 1}, \"14\": {\"In\": 1}, \"15\": {\"In\": 1}, \"16\": {\"O\": 1}, \"17\": {\"O\": 1}, \"18\": {\"O\": 1}, \"19\": {\"O\": 1}, \"20\": {\"O\": 1}, \"21\": {\"O\": 1}, \"22\": {\"O\": 1}, \"23\": {\"O\": 1}, \"24\": {\"O\": 1}, \"25\": {\"O\": 1}, \"26\": {\"O\": 1}, \"27\": {\"O\": 1}, \"28\": {\"O\": 1}, \"29\": {\"O\": 1}, \"30\": {\"O\": 1}, \"31\": {\"O\": 1}, \"32\": {\"O\": 1}, \"33\": {\"O\": 1}, \"34\": {\"O\": 1}, \"35\": {\"O\": 1}, \"36\": {\"O\": 1}, \"37\": {\"O\": 1}, \"38\": {\"O\": 1}, \"39\": {\"O\": 1}}" n_minim_iter=5 energy=-45150.25747575734 stress="0.015466679453783496 2.8205074274445707e-13 1.4232647575031147e-12 2.8205074274445707e-13 0.01546667945055616 -9.020249358406788e-13 1.4232647575031147e-12 -9.020249358406788e-13 0.015466679448445417" free_energy=-45150.25747575734 pbc="T T T"
In      -4.18634090       2.96019004       5.32297390        0       0.00952194      -0.00673303       0.01166195
In       7.03051786       1.06208360       1.64380839        1      -0.00952194       0.00673303      -0.01166195
In       1.34216393      -0.94905322       5.12719955        2      -0.00952194       0.00673303      -0.01166195
In      -1.42208848      -2.01113682       3.48339115        3      -0.00000000       0.00000000      -0.00000000
In      -1.34216394       3.96575845       3.38550397        4       0.00952194      -0.00673303      -0.01166195
In       4.34618999      -2.90367485       5.22508672        5       0.00952194       0.01346606      -0.00000000
In      -1.34216394       1.11859879       5.22508672        6       0.00952194       0.01346606       0.00000000
In      -1.50201303       6.92594849       1.74169557        7      -0.00952194      -0.01346606       0.00000000
In       4.18634090       0.05651519       3.58127833        8      -0.00952194       0.00673303       0.01166195
In      -1.42208848       4.02227364      -0.00000000        9      -0.00000000      -0.00000000      -0.00000000
In       4.18634090       6.08992565       0.09788717       10      -0.00952194       0.00673303       0.01166195
In      -1.34216394      -2.06765200       6.86889512       11       0.00952194      -0.00673303      -0.01166195
In       4.18634090       2.90367485       1.74169557       12      -0.00952194      -0.01346606      -0.00000000
In       1.50201303       4.97132686       1.83958275       13       0.00952194      -0.00673303       0.01166195
In       4.26626545       0.00000000      -0.00000000       14      -0.00000000       0.00000000       0.00000000
In       1.42208848       2.01113682       3.48339115       15      -0.00000000       0.00000000       0.00000000
O        0.74648283       4.00258238       3.70510004       16      -0.00741772      -0.01574374      -0.01469275
O       -2.09769413       3.21855639       5.13128541       17      -0.00741772      -0.00485242       0.02098085
O       -0.52748937       2.10825396       0.08760333       18      -0.02189082       0.00538161       0.00325500
O       -0.74648283      -0.82340850       1.86960315       19       0.00741772      -0.02059616       0.00628811
O        3.73371544       4.89625995       1.78199981       20      -0.00210233       0.02247544       0.00303311
O        1.95463848       2.91600968       1.64789425       21       0.00210233       0.00861097       0.02098085
O        1.95463848       6.00252391       0.13410556       22       0.00210233       0.01386447      -0.01794775
O       -2.16351069       5.82798089       3.57099448       23      -0.01237077       0.01884500       0.00325500
O        3.37166633       1.91401968       6.87917896       24       0.02189082      -0.00538161      -0.00325500
O        5.00768765      -1.80570724       3.39578781       25       0.01237077      -0.01884500      -0.00325500
O        6.21584330       3.14113051       1.70139133       26       0.02189082       0.00550972      -0.00303311
O        3.52484324       2.18971832       3.61749671       27      -0.01237077      -0.00660358      -0.01794775
O        0.68066628       4.04912171       6.74507340       28      -0.01237077      -0.01224141       0.01469275
O        2.16351068      -0.02684807       0.22170889       29       0.01237077       0.01224141      -0.01469274
O       -3.37166634       0.88114313       5.26539097       30      -0.02189082      -0.00550972       0.00303311
O        4.94187109       0.80371725       1.83549689       31       0.00741772       0.00485242      -0.02098085
O        0.88953848       1.10626396       5.31888804       32      -0.00210233      -0.00861097      -0.02098085
O        3.37166633      -1.03287655       5.35299430       33       0.02189082      -0.00012811       0.00628811
O        2.09769413       0.01969126       3.26168225       34       0.00741772       0.01574374       0.01469275
O        0.88953848      -1.98025026       6.83267674       35      -0.00210233      -0.01386447       0.01794775
O       -0.68066628       1.83255532       3.34928559       36       0.01237077       0.00660358       0.01794775
O       -0.88953848      -0.87398631       5.18478248       37       0.00210233      -0.02247544      -0.00303311
O       -0.52748937       5.05515019       1.61378799       38      -0.02189082       0.00012811      -0.00628811
O        3.59065979       4.84568214       5.09717914       39      -0.00741772       0.02059616      -0.00628811
40