40
Lattice="8.281427052395156 6.490802657123269e-10 -8.830178148842515e-17 -2.7604756847436756 7.807804301984093 -1.1242450682824309e-09 -2.760475683825739 -3.9039021503429616 6.761756874045147" Properties=species:S:1:pos:R:3:spacegroup_kinds:I:1:forces:R:3 spacegroup="P 1" unit_cell=conventional occupancy="_JSON {\"0\": {\"In\": 1}, \"1\": {\"In\": 1}, \"2\": {\"In\": 1}, \"3\": {\"In\": 1}, \"4\": {\"In\": 1}, \"5\": {\"In\": 1}, \"6\": {\"In\": 1}, \"7\": {\"In\": 1}, \"8\": {\"In\": 1}, \"9\": {\"In\": 1}, \"10\": {\"In\": 1}, \"11\": {\"In\": 1}, \"12\": {\"In\": 1}, \"13\": {\"In\": 1}, \"14\": {\"In\": 1}, \"15\": {\"In\": 1}, \"16\": {\"O\": 1}, \"17\": {\"O\": 1}, \"18\": {\"O\": 1}, \"19\": {\"O\": 1}, \"20\": {\"O\": 1}, \"21\": {\"O\": 1}, \"22\": {\"O\": 1}, \"23\": {\"O\": 1}, \"24\": {\"O\": 1}, \"25\": {\"O\": 1}, \"26\": {\"O\": 1}, \"27\": {\"O\": 1}, \"28\": {\"O\": 1}, \"29\": {\"O\": 1}, \"30\": {\"O\": 1}, \"31\": {\"O\": 1}, \"32\": {\"O\": 1}, \"33\": {\"O\": 1}, \"34\": {\"O\": 1}, \"35\": {\"O\": 1}, \"36\": {\"O\": 1}, \"37\": {\"O\": 1}, \"38\": {\"O\": 1}, \"39\": {\"O\": 1}}" n_minim_iter=6 energy=-45150.83582291537 stress="0.01828053603522881 -1.544510740803559e-12 7.2427785746817176e-12 -1.544510740803559e-12 0.01828053603451598 1.6335472505884034e-12 7.2427785746817176e-12 1.6335472505884034e-12 0.01828053603536381" free_energy=-45150.83582291537 pbc="T T T"
In      -4.07753881       2.88325535       5.14869056        0       0.00213739      -0.00151137       0.00261776
In       6.83801449       1.02064681       1.61306631        1      -0.00213739       0.00151137      -0.00261776
In       1.31706313      -0.93130427       4.99394474        2      -0.00213739       0.00151137      -0.00261776
In      -1.38023784      -1.95195107       3.38087843        3       0.00000000      -0.00000000      -0.00000000
In      -1.31706313       3.85923088       3.30350553        4       0.00213739      -0.00151137      -0.00261776
In       4.20388824      -2.83858407       5.07131765        5       0.00213739       0.00302273      -0.00000000
In      -1.31706313       1.06531808       5.07131765        6       0.00213739       0.00302273      -0.00000000
In      -1.44341256       6.74248623       1.69043922        7      -0.00213739      -0.00302273      -0.00000000
In       4.07753881       0.04467127       3.45825134        8      -0.00213739       0.00151137       0.00261776
In      -1.38023784       3.90390215      -0.00000000        9       0.00000000      -0.00000000      -0.00000000
In       4.07753881       5.90052450       0.07737291       10      -0.00213739       0.00151137       0.00261776
In      -1.31706313      -1.99662234       6.68438396       11       0.00213739      -0.00151137      -0.00261776
In       4.07753881       2.83858408       1.69043922       12      -0.00213739      -0.00302273       0.00000000
In       1.44341256       4.83520642       1.76781212       13       0.00213739      -0.00151137       0.00261776
In       4.14071352       0.00000000      -0.00000000       14      -0.00000000      -0.00000000      -0.00000000
In       1.38023784       1.95195108       3.38087843       15      -0.00000000       0.00000000      -0.00000000
O        0.71015689       3.87497246       3.58417974       16      -0.00173196       0.00030143      -0.00432667
O       -2.05031880       3.11845556       4.99472085       17      -0.00173196      -0.00389772       0.00190229
O       -0.53108236       2.04419317       0.09364100       18      -0.00396794      -0.00231665      -0.00083621
O       -0.71015689      -0.81437628       1.81714372       19       0.00173196      -0.00359630      -0.00242438
O        3.62354769       4.77234210       1.72350271       20      -0.00309749       0.00311351      -0.00158817
O        1.89740367       2.84552499       1.61384241       21       0.00309749       0.00293215       0.00190229
O        1.89740367       5.83071926       0.10966030       22       0.00309749       0.00018136      -0.00349046
O       -2.10431126       5.67516476       3.47451944       23       0.00086151       0.00451322      -0.00083621
O        3.29155804       1.85970898       6.66811586       24       0.00396794       0.00231665       0.00083621
O        4.86478694      -1.77126260       3.28723743       25      -0.00086151      -0.00451322       0.00083621
O        6.05203373       3.05514316       1.65737572       26       0.00396794      -0.00188251       0.00158817
O        3.41664011       2.12339080       3.49053874       27       0.00086151      -0.00298079      -0.00349046
O        0.65616442       3.91315090       6.55845556       28       0.00086151      -0.00153243       0.00432667
O        2.10431126      -0.00924874       0.20330131       29      -0.00086151       0.00153243      -0.00432667
O       -3.29155805       0.84875900       5.10438115       30      -0.00396794       0.00188251      -0.00158817
O        4.81079448       0.78544659       1.76703602       31       0.00173196       0.00389772      -0.00190229
O        0.86307201       1.05837716       5.14791446       32      -0.00309749      -0.00293215      -0.00190229
O        3.29155804      -1.01094998       5.19802216       33       0.00396794      -0.00043414      -0.00242438
O        2.05031880       0.02892969       3.17757712       34       0.00173196      -0.00030143       0.00432667
O        0.86307201      -1.92681710       6.65209657       35      -0.00309749      -0.00018136       0.00349046
O       -0.65616443       1.78051135       3.27121813       36      -0.00086151       0.00298080       0.00349046
O       -0.86307201      -0.86843994       5.03825416       37       0.00309749      -0.00311351       0.00158817
O       -0.53108236       4.91485213       1.56373471       38      -0.00396794       0.00043414       0.00242438
O        3.47063257       4.71827844       4.94461315       39      -0.00173196       0.00359630       0.00242438
