40
Lattice="9.138565026343628 7.162559211182352e-10 5.315231469371292e-15 -3.046188342789836 8.615921733683646 -1.2405878027314164e-09 -3.0461883417769 -4.30796086612557 7.461607099215557" Properties=species:S:1:pos:R:3:spacegroup_kinds:I:1:forces:R:3 spacegroup="P 1" unit_cell=conventional occupancy="_JSON {\"0\": {\"In\": 1}, \"1\": {\"In\": 1}, \"2\": {\"In\": 1}, \"3\": {\"In\": 1}, \"4\": {\"In\": 1}, \"5\": {\"In\": 1}, \"6\": {\"In\": 1}, \"7\": {\"In\": 1}, \"8\": {\"In\": 1}, \"9\": {\"In\": 1}, \"10\": {\"In\": 1}, \"11\": {\"In\": 1}, \"12\": {\"In\": 1}, \"13\": {\"In\": 1}, \"14\": {\"In\": 1}, \"15\": {\"In\": 1}, \"16\": {\"O\": 1}, \"17\": {\"O\": 1}, \"18\": {\"O\": 1}, \"19\": {\"O\": 1}, \"20\": {\"O\": 1}, \"21\": {\"O\": 1}, \"22\": {\"O\": 1}, \"23\": {\"O\": 1}, \"24\": {\"O\": 1}, \"25\": {\"O\": 1}, \"26\": {\"O\": 1}, \"27\": {\"O\": 1}, \"28\": {\"O\": 1}, \"29\": {\"O\": 1}, \"30\": {\"O\": 1}, \"31\": {\"O\": 1}, \"32\": {\"O\": 1}, \"33\": {\"O\": 1}, \"34\": {\"O\": 1}, \"35\": {\"O\": 1}, \"36\": {\"O\": 1}, \"37\": {\"O\": 1}, \"38\": {\"O\": 1}, \"39\": {\"O\": 1}}" n_minim_iter=1 energy=-45148.86874107644 stress="0.11298593944238698 -2.467493630829515e-12 1.033140552297063e-12 -2.467493630829515e-12 0.11298593943626106 2.410321012609009e-12 1.033140552297063e-12 2.410321012609009e-12 0.11298593944718123" free_energy=-45148.86874107644 pbc="T T T"
In      -4.34100081       3.06955111       5.87579217        0       0.11295062      -0.07986815       0.13833569
In       7.38718915       1.23840976       1.58581492        1      -0.11295062       0.07986815      -0.13833569
In       1.29481246      -0.91557067       5.31661847        2      -0.11295062       0.07986815      -0.13833569
In      -1.52309417      -2.15398043       3.73080355        3      -0.00000000       0.00000000       0.00000000
In      -1.29481246       4.14654133       3.45121670        4       0.11295062      -0.07986815      -0.13833569
In       4.79756422      -2.90813156       5.59620532        5       0.11295062       0.15973629       0.00000000
In      -1.29481246       1.39982931       5.59620532        6       0.11295062       0.15973629       0.00000000
In      -1.75137588       7.21609243       1.86540177        7      -0.11295062      -0.15973629       0.00000000
In       4.34100080       0.16141955       4.01039040        8      -0.11295062       0.07986815       0.13833569
In      -1.52309417       4.30796087      -0.00000000        9      -0.00000000      -0.00000000      -0.00000000
In       4.34100080       6.62336085       0.27958685       10      -0.11295062       0.07986815       0.13833569
In      -1.29481246      -2.31539997       7.18202025       11       0.11295062      -0.07986815      -0.13833569
In       4.34100080       2.90813156       1.86540177       12      -0.11295062      -0.15973629       0.00000000
In       1.75137588       5.22353154       2.14498862       13       0.11295062      -0.07986815       0.13833569
In       4.56928251       0.00000000      -0.00000000       14      -0.00000000      -0.00000000       0.00000000
In       1.52309417       2.15398044       3.73080355       15      -0.00000000      -0.00000000      -0.00000000
O        0.96143313       4.31027843       4.07399199       16       0.06482281       0.01710942       0.06646805
O       -2.08475521       3.52702178       5.42260403       17       0.06482281       0.04900831      -0.04805122
O       -0.41361371       2.34534629       0.00771892       18       0.08394400       0.03548759      -0.02463264
O       -0.96143313      -0.77862153       2.03498893       19      -0.06482281       0.06611773       0.01841684
O        4.02022643       5.09103892       2.02727000       20       0.02459788      -0.08033939       0.04304948
O        2.07215025       2.94383257       1.69180049       21      -0.02459788      -0.07745164      -0.04805122
O        2.07215025       6.45516722       0.33546951       22      -0.02459788      -0.00288776       0.09110070
O       -2.34908493       6.07011795       3.73852247       23      -0.00547669      -0.09097236      -0.02463264
O        3.45980205       1.96261458       7.45388817       24      -0.08394400      -0.03548759       0.02463264
O        5.39527326      -1.76215707       3.72308462       25       0.00547669       0.09097236       0.02463264
O        6.50599039       3.33333837       1.70353354       26      -0.08394400      -0.00358870      -0.04304948
O        3.74329176       2.35657690       4.06627306       27      -0.00547669       0.02415369       0.09110070
O        0.69710342       4.49718776       7.11841865       28      -0.00547669       0.06681867      -0.06646805
O        2.34908492      -0.18922689       0.34318844       29       0.00547669      -0.06681867       0.06646805
O       -3.45980205       0.97462250       5.75807355       30       0.08394400       0.00358870       0.04304948
O        5.13094355       0.78093909       2.03900306       31      -0.06482281      -0.04900831       0.04805122
O        0.97403809       1.36412830       5.76980661       32       0.02459788       0.07745164       0.04805122
O        3.45980205      -0.98799207       5.76579248       33      -0.08394400       0.03907629       0.01841684
O        2.08475521      -0.00231756       3.38761510       34      -0.06482281      -0.01710942      -0.06646805
O        0.97403809      -2.14720635       7.12613758       35       0.02459788       0.00288775      -0.09110070
O       -0.69710342       1.95138397       3.39533403       36       0.00547669      -0.02415369      -0.09110070
O       -0.97403809      -0.78307805       5.43433709       37      -0.02459788       0.08033940      -0.04304948
O       -0.41361371       5.29595294       1.69581461       38       0.08394400      -0.03907629      -0.01841684
O        4.00762147       5.08658240       5.42661816       39       0.06482281      -0.06611773      -0.01841684
40
Lattice="9.138565026343642 7.162559211182368e-10 5.315231469371315e-15 -3.0461883427898435 8.615921733683662 -1.2405878027314187e-09 -3.0461883417769076 -4.307960866125578 7.461607099215574" Properties=species:S:1:pos:R:3:spacegroup_kinds:I:1:forces:R:3 spacegroup="P 1" unit_cell=conventional occupancy="_JSON {\"0\": {\"In\": 1}, \"1\": {\"In\": 1}, \"2\": {\"In\": 1}, \"3\": {\"In\": 1}, \"4\": {\"In\": 1}, \"5\": {\"In\": 1}, \"6\": {\"In\": 1}, \"7\": {\"In\": 1}, \"8\": {\"In\": 1}, \"9\": {\"In\": 1}, \"10\": {\"In\": 1}, \"11\": {\"In\": 1}, \"12\": {\"In\": 1}, \"13\": {\"In\": 1}, \"14\": {\"In\": 1}, \"15\": {\"In\": 1}, \"16\": {\"O\": 1}, \"17\": {\"O\": 1}, \"18\": {\"O\": 1}, \"19\": {\"O\": 1}, \"20\": {\"O\": 1}, \"21\": {\"O\": 1}, \"22\": {\"O\": 1}, \"23\": {\"O\": 1}, \"24\": {\"O\": 1}, \"25\": {\"O\": 1}, \"26\": {\"O\": 1}, \"27\": {\"O\": 1}, \"28\": {\"O\": 1}, \"29\": {\"O\": 1}, \"30\": {\"O\": 1}, \"31\": {\"O\": 1}, \"32\": {\"O\": 1}, \"33\": {\"O\": 1}, \"34\": {\"O\": 1}, \"35\": {\"O\": 1}, \"36\": {\"O\": 1}, \"37\": {\"O\": 1}, \"38\": {\"O\": 1}, \"39\": {\"O\": 1}}" n_minim_iter=2 energy=-45148.92864700085 stress="0.10912036340638556 -4.674790480008016e-12 -4.750000077093671e-12 -4.674790480008016e-12 0.10912036340748459 9.50654057925773e-13 -4.750000077093671e-12 9.50654057925773e-13 0.10912036340990335" free_energy=-45148.92864700085 pbc="T T T"
In      -4.32118054       3.05553606       5.90006694        0      -0.03892180       0.02752187      -0.04766927
In       7.36736888       1.25242481       1.56154015        1       0.03892180      -0.02752187       0.04766927
In       1.27499219      -0.90155563       5.29234370        2       0.03892180      -0.02752187       0.04766927
In      -1.52309417      -2.15398043       3.73080355        3      -0.00000000       0.00000000       0.00000000
In      -1.27499220       4.13252628       3.42694192        4      -0.03892180       0.02752187       0.04766927
In       4.81738449      -2.88010147       5.59620532        5      -0.03892180      -0.05504373      -0.00000000
In      -1.27499220       1.42785940       5.59620532        6      -0.03892180      -0.05504373       0.00000000
In      -1.77119615       7.18806234       1.86540177        7       0.03892180       0.05504373       0.00000000
In       4.32118054       0.17543459       4.03466517        8       0.03892180      -0.02752187      -0.04766927
In      -1.52309417       4.30796087      -0.00000000        9      -0.00000000       0.00000000      -0.00000000
In       4.32118054       6.63737589       0.30386162       10       0.03892180      -0.02752187      -0.04766927
In      -1.27499220      -2.32941502       7.15774547       11      -0.03892180       0.02752187       0.04766927
In       4.32118054       2.88010147       1.86540177       12       0.03892180       0.05504373      -0.00000000
In       1.77119614       5.20951650       2.16926339       13      -0.03892180       0.02752187      -0.04766927
In       4.56928251       0.00000000      -0.00000000       14      -0.00000000       0.00000000       0.00000000
In       1.52309417       2.15398044       3.73080355       15       0.00000000       0.00000000       0.00000000
O        0.97280806       4.31328074       4.08565562       16       0.07275083      -0.04345416      -0.01406976
O       -2.07338028       3.53562163       5.41417214       17       0.07275083       0.00954231       0.04466729
O       -0.39888344       2.35157356       0.00339646       18      -0.00772212       0.06644528      -0.05389155
O       -0.97280806      -0.76701937       2.03822067       19      -0.07275083      -0.03391185       0.03059752
O        4.02454280       5.07694118       2.03482421       20      -0.01525370       0.00279755       0.08448908
O        2.06783388       2.93024157       1.68336859       21       0.01525370      -0.07177091       0.04466729
O        2.06783388       6.45466048       0.35145562       22       0.01525370       0.07456846       0.03982179
O       -2.35004596       6.05415436       3.73420000       23      -0.06521925      -0.01486794      -0.05389155
O        3.44507178       1.95638731       7.45821064       24       0.00772212      -0.06644528       0.05389155
O        5.39623430      -1.74619349       3.72740709       25       0.06521925       0.01486794       0.05389155
O        6.49126012       3.33270863       1.69597934       26       0.00772212      -0.01344881      -0.08448908
O        3.74233072       2.36081532       4.08225917       27      -0.06521925      -0.03923748       0.03982179
O        0.69614238       4.50891292       7.10675502       28      -0.06521925       0.05410542       0.01406976
O        2.35004596      -0.20095205       0.35485208       29       0.06521925      -0.05410542      -0.01406976
O       -3.44507178       0.97525224       5.76562776       30      -0.00772212       0.01344881       0.08448908
O        5.11956862       0.77233924       2.04743496       31      -0.07275083      -0.00954231      -0.04466729
O        0.97835445       1.37771930       5.77823850       32      -0.01525370       0.07177091      -0.04466729
O        3.44507178      -0.98113507       5.76902422       33       0.00772212       0.07989409       0.03059752
O        2.07338028      -0.00531987       3.37595147       34      -0.07275083       0.04345416       0.01406976
O        0.97835445      -2.14669961       7.11015148       35      -0.01525370      -0.07456846      -0.03982179
O       -0.69614239       1.94714555       3.37934793       36       0.06521925       0.03923748      -0.03982179
O       -0.97835446      -0.76898031       5.42678289       37       0.01525370      -0.00279755      -0.08448908
O       -0.39888344       5.28909594       1.69258288       38      -0.00772212      -0.07989409      -0.03059752
O        4.01899640       5.07498024       5.42338643       39       0.07275083       0.03391185      -0.03059752
40
Lattice="9.138565026343642 7.162559211182366e-10 5.315231469371307e-15 -3.0461883427898426 8.615921733683662 -1.2405878027314185e-09 -3.0461883417769067 -4.307960866125578 7.461607099215573" Properties=species:S:1:pos:R:3:spacegroup_kinds:I:1:forces:R:3 spacegroup="P 1" unit_cell=conventional occupancy="_JSON {\"0\": {\"In\": 1}, \"1\": {\"In\": 1}, \"2\": {\"In\": 1}, \"3\": {\"In\": 1}, \"4\": {\"In\": 1}, \"5\": {\"In\": 1}, \"6\": {\"In\": 1}, \"7\": {\"In\": 1}, \"8\": {\"In\": 1}, \"9\": {\"In\": 1}, \"10\": {\"In\": 1}, \"11\": {\"In\": 1}, \"12\": {\"In\": 1}, \"13\": {\"In\": 1}, \"14\": {\"In\": 1}, \"15\": {\"In\": 1}, \"16\": {\"O\": 1}, \"17\": {\"O\": 1}, \"18\": {\"O\": 1}, \"19\": {\"O\": 1}, \"20\": {\"O\": 1}, \"21\": {\"O\": 1}, \"22\": {\"O\": 1}, \"23\": {\"O\": 1}, \"24\": {\"O\": 1}, \"25\": {\"O\": 1}, \"26\": {\"O\": 1}, \"27\": {\"O\": 1}, \"28\": {\"O\": 1}, \"29\": {\"O\": 1}, \"30\": {\"O\": 1}, \"31\": {\"O\": 1}, \"32\": {\"O\": 1}, \"33\": {\"O\": 1}, \"34\": {\"O\": 1}, \"35\": {\"O\": 1}, \"36\": {\"O\": 1}, \"37\": {\"O\": 1}, \"38\": {\"O\": 1}, \"39\": {\"O\": 1}}" n_minim_iter=3 energy=-45148.932782203825 stress="0.10947347599042422 6.804657449549101e-13 -9.311709214507254e-13 6.804657449549101e-13 0.10947347598674344 6.857867319074093e-13 -9.311709214507254e-13 6.857867319074093e-13 0.10947347598762448" free_energy=-45148.932782203825 pbc="T T T"
In      -4.32540718       3.05852475       5.89489038        0       0.00194054      -0.00137217       0.00237666
In       7.37159552       1.24943612       1.56671671        1      -0.00194054       0.00137217      -0.00237666
In       1.27921884      -0.90454431       5.29752026        2      -0.00194054       0.00137217      -0.00237666
In      -1.52309417      -2.15398043       3.73080355        3      -0.00000000      -0.00000000       0.00000000
In      -1.27921884       4.13551497       3.43211848        4       0.00194054      -0.00137217      -0.00237666
In       4.81315784      -2.88607885       5.59620532        5       0.00194054       0.00274433      -0.00000000
In      -1.27921884       1.42188202       5.59620532        6       0.00194054       0.00274433      -0.00000000
In      -1.76696951       7.19403972       1.86540177        7      -0.00194054      -0.00274433       0.00000000
In       4.32540718       0.17244590       4.02948861        8      -0.00194054       0.00137217       0.00237666
In      -1.52309417       4.30796087      -0.00000000        9      -0.00000000      -0.00000000      -0.00000000
In       4.32540718       6.63438720       0.29868506       10      -0.00194054       0.00137217       0.00237666
In      -1.27921884      -2.32642633       7.16292203       11       0.00194054      -0.00137217      -0.00237666
In       4.32540718       2.88607885       1.86540177       12      -0.00194054      -0.00274433      -0.00000000
In       1.76696950       5.21250518       2.16408683       13       0.00194054      -0.00137217       0.00237666
In       4.56928251       0.00000000      -0.00000000       14      -0.00000000       0.00000000       0.00000000
In       1.52309417       2.15398044       3.73080355       15       0.00000000       0.00000000      -0.00000000
O        0.97277942       4.31169370       4.08339108       16       0.06664984      -0.01606983       0.00496849
O       -2.07340892       3.53445399       5.41667883       17       0.06664984       0.01233775       0.01143263
O       -0.40149012       2.35222887       0.00274570       18       0.01869798       0.04624484      -0.04729616
O       -0.97277943      -0.76977404       2.03846281       19      -0.06664984      -0.00373207       0.01640112
O        4.02345149       5.07932014       2.03571710       20      -0.01058447      -0.02357438       0.06369728
O        2.06892520       2.93065778       1.68587528       21       0.01058447      -0.06695065       0.01143263
O        2.06892520       6.45662323       0.34984182       22       0.01058447       0.04337628       0.05226465
O       -2.35153269       6.05639352       3.73354925       23      -0.03736739      -0.03304357      -0.04729616
O        3.44767846       1.95573200       7.45886139       24      -0.01869798      -0.04624484       0.04729616
O        5.39772103      -1.74843265       3.72805784       25       0.03736739       0.03304357       0.04729616
O        6.49386680       3.33247272       1.69508644       26      -0.01869798      -0.01783726      -0.06369728
O        3.74084400       2.35913218       4.08064537       27      -0.03736739      -0.02443789       0.05226465
O        0.69465565       4.50835691       7.10901956       28      -0.03736739       0.05748146      -0.00496849
O        2.35153268      -0.20039604       0.35258753       29       0.03736739      -0.05748146       0.00496849
O       -3.44767846       0.97548815       5.76652065       30       0.01869798       0.01783726       0.06369728
O        5.11959726       0.77350688       2.04492827       31      -0.06664984      -0.01233775      -0.01143263
O        0.97726314       1.37730309       5.77573182       32      -0.01058447       0.06695065      -0.01143263
O        3.44767846      -0.98024385       5.76926636       33      -0.01869798       0.06408209       0.01640112
O        2.07340892      -0.00373283       3.37821601       34      -0.06664984       0.01606983      -0.00496849
O        0.97726314      -2.14866236       7.11176527       35      -0.01058447      -0.04337628      -0.05226465
O       -0.69465566       1.94882869       3.38096172       36       0.03736739       0.02443789      -0.05226465
O       -0.97726315      -0.77135927       5.42588999       37       0.01058447       0.02357438      -0.06369728
O       -0.40149012       5.28820472       1.69234074       38       0.01869798      -0.06408209      -0.01640112
O        4.01896776       5.07773491       5.42314428       39       0.06664984       0.00373207      -0.01640112
40
Lattice="9.138565026343667 7.162559211182386e-10 5.315231469371354e-15 -3.0461883427898506 8.615921733683685 -1.2405878027314218e-09 -3.0461883417769147 -4.3079608661255895 7.461607099215593" Properties=species:S:1:pos:R:3:spacegroup_kinds:I:1:forces:R:3 spacegroup="P 1" unit_cell=conventional occupancy="_JSON {\"0\": {\"In\": 1}, \"1\": {\"In\": 1}, \"2\": {\"In\": 1}, \"3\": {\"In\": 1}, \"4\": {\"In\": 1}, \"5\": {\"In\": 1}, \"6\": {\"In\": 1}, \"7\": {\"In\": 1}, \"8\": {\"In\": 1}, \"9\": {\"In\": 1}, \"10\": {\"In\": 1}, \"11\": {\"In\": 1}, \"12\": {\"In\": 1}, \"13\": {\"In\": 1}, \"14\": {\"In\": 1}, \"15\": {\"In\": 1}, \"16\": {\"O\": 1}, \"17\": {\"O\": 1}, \"18\": {\"O\": 1}, \"19\": {\"O\": 1}, \"20\": {\"O\": 1}, \"21\": {\"O\": 1}, \"22\": {\"O\": 1}, \"23\": {\"O\": 1}, \"24\": {\"O\": 1}, \"25\": {\"O\": 1}, \"26\": {\"O\": 1}, \"27\": {\"O\": 1}, \"28\": {\"O\": 1}, \"29\": {\"O\": 1}, \"30\": {\"O\": 1}, \"31\": {\"O\": 1}, \"32\": {\"O\": 1}, \"33\": {\"O\": 1}, \"34\": {\"O\": 1}, \"35\": {\"O\": 1}, \"36\": {\"O\": 1}, \"37\": {\"O\": 1}, \"38\": {\"O\": 1}, \"39\": {\"O\": 1}}" n_minim_iter=4 energy=-45148.950776319805 stress="0.10722976747302577 2.999044495441913e-12 -3.611259736466193e-12 2.999044495441913e-12 0.10722976746945587 2.4825251473226413e-12 -3.611259736466193e-12 2.4825251473226413e-12 0.10722976747925501" free_energy=-45148.950776319805 pbc="T T T"
In      -4.32295265       3.05678914       5.89789655        0      -0.00393244       0.00278066      -0.00481624
In       7.36914099       1.25117173       1.56371054        1       0.00393244      -0.00278066       0.00481624
In       1.27676431      -0.90280870       5.29451409        2       0.00393244      -0.00278066       0.00481624
In      -1.52309417      -2.15398043       3.73080355        3      -0.00000000       0.00000000       0.00000000
In      -1.27676431       4.13377935       3.42911231        4      -0.00393244       0.00278066       0.00481624
In       4.81561237      -2.88260762       5.59620532        5      -0.00393244      -0.00556131       0.00000000
In      -1.27676431       1.42535325       5.59620532        6      -0.00393244      -0.00556131      -0.00000000
In      -1.76942403       7.19056849       1.86540177        7       0.00393244       0.00556131      -0.00000000
In       4.32295265       0.17418152       4.03249478        8       0.00393244      -0.00278066      -0.00481624
In      -1.52309417       4.30796087      -0.00000000        9      -0.00000000      -0.00000000       0.00000000
In       4.32295265       6.63612282       0.30169123       10       0.00393244      -0.00278066      -0.00481624
In      -1.27676431      -2.32816195       7.15991586       11      -0.00393244       0.00278066       0.00481624
In       4.32295265       2.88260762       1.86540177       12       0.00393244       0.00556131       0.00000000
In       1.76942403       5.21076957       2.16709300       13      -0.00393244       0.00278066      -0.00481624
In       4.56928251       0.00000000      -0.00000000       14       0.00000000      -0.00000000       0.00000000
In       1.52309417       2.15398044       3.73080355       15      -0.00000000      -0.00000000      -0.00000000
O        0.98707944       4.30765384       4.08587160       16       0.04615331       0.03745144      -0.01458121
O       -2.05910890       3.53862212       5.41893719       17       0.04615331      -0.03135342      -0.02514330
O       -0.39660252       2.36305258      -0.00652374       18       0.02113371      -0.01366189      -0.05578593
O       -0.98707944      -0.76964577       2.04320169       19      -0.04615331       0.00609802      -0.03972451
O        4.02261456       5.07384016       2.04972543       20      -0.04494473      -0.03830604       0.01606142
O        2.06976212       2.91578622       1.68813364       21       0.04494473      -0.03306262      -0.02514330
O        2.06976212       6.46601481       0.36159179       22       0.04494473      -0.00524342       0.04120472
O       -2.36010818       6.04817755       3.72427981       23       0.01992512      -0.01537109      -0.05578593
O        3.44279086       1.94490829       7.46813083       24      -0.02113371       0.01366189       0.05578593
O        5.40629652      -1.74021668       3.73732728       25      -0.01992512       0.01537109       0.05578593
O        6.48897920       3.32985700       1.68107811       26      -0.02113371      -0.05514298      -0.01606142
O        3.73226851       2.35521259       4.09239534       27       0.01992512      -0.04062649       0.04120472
O        0.68608017       4.52049247       7.10653904       28       0.01992512       0.05599758       0.01458121
O        2.36010817      -0.21253160       0.35506805       29      -0.01992512      -0.05599758      -0.01458121
O       -3.44279086       0.97810387       5.78052898       30       0.02113371       0.05514298       0.01606142
O        5.10529724       0.76933875       2.04266991       31      -0.04615331       0.03135342       0.02514330
O        0.97642622       1.39217465       5.77347346       32      -0.04494473       0.03306262       0.02514330
O        3.44279086      -0.96680442       5.77400524       33      -0.02113371       0.04148109      -0.03972451
O        2.05910890       0.00030703       3.37573549       34      -0.04615331      -0.03745144       0.01458121
O        0.97642622      -2.15805394       7.10001530       35      -0.04494473       0.00524342      -0.04120472
O       -0.68608017       1.95274828       3.36921175       36      -0.01992512       0.04062649      -0.04120472
O       -0.97642622      -0.76587929       5.41188166       37       0.04494473       0.03830604      -0.01606142
O       -0.39660252       5.27476529       1.68760185       38       0.02113371      -0.04148109       0.03972451
O        4.03326778       5.07760664       5.41840540       39       0.04615331      -0.00609802       0.03972451
40
Lattice="9.138565026343686 7.162559211182403e-10 5.315231469371332e-15 -3.0461883427898586 8.615921733683702 -1.2405878027314247e-09 -3.0461883417769227 -4.307960866125598 7.461607099215612" Properties=species:S:1:pos:R:3:spacegroup_kinds:I:1:forces:R:3 spacegroup="P 1" unit_cell=conventional occupancy="_JSON {\"0\": {\"In\": 1}, \"1\": {\"In\": 1}, \"2\": {\"In\": 1}, \"3\": {\"In\": 1}, \"4\": {\"In\": 1}, \"5\": {\"In\": 1}, \"6\": {\"In\": 1}, \"7\": {\"In\": 1}, \"8\": {\"In\": 1}, \"9\": {\"In\": 1}, \"10\": {\"In\": 1}, \"11\": {\"In\": 1}, \"12\": {\"In\": 1}, \"13\": {\"In\": 1}, \"14\": {\"In\": 1}, \"15\": {\"In\": 1}, \"16\": {\"O\": 1}, \"17\": {\"O\": 1}, \"18\": {\"O\": 1}, \"19\": {\"O\": 1}, \"20\": {\"O\": 1}, \"21\": {\"O\": 1}, \"22\": {\"O\": 1}, \"23\": {\"O\": 1}, \"24\": {\"O\": 1}, \"25\": {\"O\": 1}, \"26\": {\"O\": 1}, \"27\": {\"O\": 1}, \"28\": {\"O\": 1}, \"29\": {\"O\": 1}, \"30\": {\"O\": 1}, \"31\": {\"O\": 1}, \"32\": {\"O\": 1}, \"33\": {\"O\": 1}, \"34\": {\"O\": 1}, \"35\": {\"O\": 1}, \"36\": {\"O\": 1}, \"37\": {\"O\": 1}, \"38\": {\"O\": 1}, \"39\": {\"O\": 1}}" n_minim_iter=5 energy=-45148.957667287075 stress="0.10501725307942811 9.878027954941924e-13 -2.6981721865751553e-13 9.878027954941924e-13 0.10501725309044282 1.165429840484888e-12 -2.6981721865751553e-13 1.165429840484888e-12 0.10501725307845446" free_energy=-45148.957667287075 pbc="T T T"
In      -4.32097007       3.05538724       5.90032472        0      -0.00825887       0.00583990      -0.01011501
In       7.36715841       1.25257363       1.56128238        1       0.00825887      -0.00583990       0.01011501
In       1.27478172      -0.90140680       5.29208593        2       0.00825887      -0.00583990       0.01011501
In      -1.52309417      -2.15398043       3.73080355        3       0.00000000      -0.00000000      -0.00000000
In      -1.27478173       4.13237745       3.42668415        4      -0.00825887       0.00583990       0.01011501
In       4.81759496      -2.87980382       5.59620532        5      -0.00825887      -0.01167981       0.00000000
In      -1.27478173       1.42815705       5.59620532        6      -0.00825887      -0.01167981       0.00000000
In      -1.77140662       7.18776469       1.86540177        7       0.00825887       0.01167981       0.00000000
In       4.32097007       0.17558342       4.03492294        8       0.00825887      -0.00583990      -0.01011501
In      -1.52309417       4.30796087      -0.00000000        9      -0.00000000       0.00000000       0.00000000
In       4.32097007       6.63752472       0.30411939       10       0.00825887      -0.00583990      -0.01011501
In      -1.27478173      -2.32956385       7.15748770       11      -0.00825887       0.00583990       0.01011501
In       4.32097007       2.87980382       1.86540177       12       0.00825887       0.01167981       0.00000000
In       1.77140662       5.20936767       2.16952117       13      -0.00825887       0.00583990      -0.01011501
In       4.56928251       0.00000000      -0.00000000       14       0.00000000      -0.00000000       0.00000000
In       1.52309417       2.15398044       3.73080355       15      -0.00000000      -0.00000000       0.00000000
O        1.00033588       4.30513554       4.08761524       16       0.02624579       0.07235688      -0.02843615
O       -2.04585246       3.54139130       5.42024628       17       0.02624579      -0.06080487      -0.04844481
O       -0.39194717       2.37190366      -0.01574879       18       0.01963993      -0.05613382      -0.05653531
O       -1.00033589      -0.76939489       2.04625442       19      -0.02624579       0.01155201      -0.07688097
O        4.02080656       5.06826320       2.06200321       20      -0.06607598      -0.04419268      -0.02034566
O        2.07157012       2.90236486       1.68944273       21       0.06607598      -0.00447648      -0.04844482
O        2.07157012       6.47385920       0.37256048       22       0.06607598      -0.03971620       0.02809915
O       -2.36690127       6.04083808       3.71505476       23       0.05947012       0.00019457      -0.05653531
O        3.43813551       1.93605721       7.47735589       24      -0.01963993       0.05613382       0.05653531
O        5.41308961      -1.73287721       3.74655234       25      -0.05947012      -0.00019457       0.05653530
O        6.48432385       3.32629341       1.66880033       26      -0.01963993      -0.07702792       0.02034566
O        3.72547541       2.35089319       4.10336403       27       0.05947012      -0.04905829       0.02809915
O        0.67928707       4.53215133       7.10479541       28       0.05947012       0.04886373       0.02843615
O        2.36690127      -0.22419046       0.35681169       29      -0.05947012      -0.04886373      -0.02843615
O       -3.43813551       0.98166746       5.79280676       30       0.01963993       0.07702792      -0.02034566
O        5.09204080       0.76656957       2.04136081       31      -0.02624579       0.06080487       0.04844481
O        0.97461822       1.40559601       5.77216436       32      -0.06607598       0.00447648       0.04844481
O        3.43813551      -0.95438975       5.77705797       33      -0.01963993       0.02089410      -0.07688097
O        2.04585246       0.00282533       3.37399186       34      -0.02624579      -0.07235688       0.02843615
O        0.97461822      -2.16589833       7.08904662       35      -0.06607598       0.03971620      -0.02809915
O       -0.67928707       1.95706768       3.35824307       36      -0.05947012       0.04905829      -0.02809915
O       -0.97461822      -0.76030232       5.39960388       37       0.06607598       0.04419268       0.02034566
O       -0.39194717       5.26235062       1.68454912       38       0.01963993      -0.02089410       0.07688097
O        4.04652422       5.07735576       5.41535267       39       0.02624579      -0.01155201       0.07688097
40