40
Lattice="9.479867495543193 7.430007841102652e-10 2.237245828331683e-14 -3.159955832548239 8.937704787550366 -1.2869205922562219e-09 -3.1599558314974945 -4.468852393032183 7.74027939840235" Properties=species:S:1:pos:R:3:spacegroup_kinds:I:1:forces:R:3 spacegroup="P 1" unit_cell=conventional occupancy="_JSON {\"0\": {\"In\": 1}, \"1\": {\"In\": 1}, \"2\": {\"In\": 1}, \"3\": {\"In\": 1}, \"4\": {\"In\": 1}, \"5\": {\"In\": 1}, \"6\": {\"In\": 1}, \"7\": {\"In\": 1}, \"8\": {\"In\": 1}, \"9\": {\"In\": 1}, \"10\": {\"In\": 1}, \"11\": {\"In\": 1}, \"12\": {\"In\": 1}, \"13\": {\"In\": 1}, \"14\": {\"In\": 1}, \"15\": {\"In\": 1}, \"16\": {\"O\": 1}, \"17\": {\"O\": 1}, \"18\": {\"O\": 1}, \"19\": {\"O\": 1}, \"20\": {\"O\": 1}, \"21\": {\"O\": 1}, \"22\": {\"O\": 1}, \"23\": {\"O\": 1}, \"24\": {\"O\": 1}, \"25\": {\"O\": 1}, \"26\": {\"O\": 1}, \"27\": {\"O\": 1}, \"28\": {\"O\": 1}, \"29\": {\"O\": 1}, \"30\": {\"O\": 1}, \"31\": {\"O\": 1}, \"32\": {\"O\": 1}, \"33\": {\"O\": 1}, \"34\": {\"O\": 1}, \"35\": {\"O\": 1}, \"36\": {\"O\": 1}, \"37\": {\"O\": 1}, \"38\": {\"O\": 1}, \"39\": {\"O\": 1}}" n_minim_iter=1 energy=-45141.2882590804 stress="0.13201135836615066 -2.264960129985141e-12 -2.545826398364047e-12 -2.264960129985141e-12 0.13201135836537503 1.4073256175012802e-13 -2.545826398364047e-12 1.4073256175012802e-13 0.1320113583652729" free_energy=-45141.2882590804 pbc="T T T"
In      -4.44980977       3.14649066       6.16053741        0       0.02132131      -0.01507644       0.02611316
In       7.60976559       1.32236174       1.57974198        1      -0.02132131       0.01507644      -0.02611316
In       1.28985393      -0.91206446       5.44988168        2      -0.02132131       0.01507644      -0.02611316
In      -1.57997792      -2.23442619       3.87013970        3      -0.00000000       0.00000000      -0.00000000
In      -1.28985393       4.26370376       3.51481183        4       0.02132131      -0.01507644      -0.02611316
In       5.03005773      -2.94134202       5.80520955        5       0.02132131       0.03015288      -0.00000000
In      -1.28985393       1.52751037       5.80520955        6       0.02132131       0.03015288       0.00000000
In      -1.87010190       7.41019442       1.93506985        7      -0.02132131      -0.03015288       0.00000000
In       4.44980976       0.20514864       4.22546756        8      -0.02132131       0.01507644       0.02611316
In      -1.57997792       4.46885240      -0.00000000        9      -0.00000000      -0.00000000       0.00000000
In       4.44980976       6.90842723       0.35532786       10      -0.02132131       0.01507644       0.02611316
In      -1.28985393      -2.43957483       7.38495153       11       0.02132131      -0.01507644      -0.02611316
In       4.44980976       2.94134202       1.93506985       12      -0.02132131      -0.03015288       0.00000000
In       1.87010190       5.38091686       2.29039771       13       0.02132131      -0.01507644       0.02611316
In       4.73993375       0.00000000      -0.00000000       14       0.00000000       0.00000000      -0.00000000
In       1.57997791       2.23442620       3.87013970       15       0.00000000       0.00000000      -0.00000000
O        1.36404044       4.52141138       4.25069504       16       0.13528527       0.12067153      -0.02781961
O       -1.79591539       3.65493041       5.56941446       17       0.13528527      -0.08442825      -0.09059480
O       -0.26313978       2.57109438      -0.29360588       18       0.07926558      -0.04481635      -0.15920464
O       -1.36404045      -0.76136301       2.07983011       19      -0.13528527       0.03624328      -0.11841441
O        4.04453989       5.06070198       2.37343598       20      -0.12469481      -0.12816011       0.04079022
O        2.27537177       2.70932133       1.69927476       21       0.12469481      -0.09940543      -0.09059480
O        2.27537177       6.82023304       0.67416122       22       0.12469481      -0.02875469       0.13138503
O       -2.51176429       6.09433770       3.57653382       23       0.06867512      -0.05979352      -0.15920464
O        3.42309561       1.89775802       8.03388527       24      -0.07926558       0.04481635       0.15920464
O        5.67172012      -1.62548530       4.16374557       25      -0.06867512       0.05979352       0.15920464
O        6.58305144       3.26570324       1.49670371       26      -0.07926558      -0.16028343      -0.04079022
O        3.80814737       2.28462650       4.54430092       27       0.06867512      -0.10797850       0.13138503
O        0.64819154       5.02759299       7.35972405       28       0.06867512       0.16777202       0.02781961
O        2.51176429      -0.55874059       0.38055535       29      -0.06867512      -0.16777202      -0.02781961
O       -3.42309561       1.20314915       6.24357568       30       0.07926558       0.16028343       0.04079022
O        4.95587122       0.81392199       2.17086493       31      -0.13528527       0.08442825       0.09059480
O        0.88458406       1.75953107       6.04100463       32      -0.12469481       0.09940543       0.09059480
O        3.42309561      -0.69460886       5.94996981       33      -0.07926558       0.11546708      -0.11841441
O        1.79591539      -0.05255898       3.48958435       34      -0.13528527      -0.12067153       0.02781961
O        0.88458406      -2.35138064       7.06611817       35      -0.12469481       0.02875469      -0.13138503
O       -0.64819155       2.18422590       3.19597848       36      -0.06867512       0.10797850      -0.13138503
O       -0.88458406      -0.59184958       5.36684341       37       0.12469481       0.12816011      -0.04079022
O       -0.26313978       5.16346126       1.79030958       38       0.07926558      -0.11546708       0.11841441
O        4.52399627       5.23021541       5.66044928       39       0.13528527      -0.03624328       0.11841441
40
Lattice="9.479867495543191 7.430007841102649e-10 2.2372458283316825e-14 -3.1599558325482375 8.937704787550365 -1.2869205922562219e-09 -3.159955831497493 -4.468852393032182 7.740279398402349" Properties=species:S:1:pos:R:3:spacegroup_kinds:I:1:forces:R:3 spacegroup="P 1" unit_cell=conventional occupancy="_JSON {\"0\": {\"In\": 1}, \"1\": {\"In\": 1}, \"2\": {\"In\": 1}, \"3\": {\"In\": 1}, \"4\": {\"In\": 1}, \"5\": {\"In\": 1}, \"6\": {\"In\": 1}, \"7\": {\"In\": 1}, \"8\": {\"In\": 1}, \"9\": {\"In\": 1}, \"10\": {\"In\": 1}, \"11\": {\"In\": 1}, \"12\": {\"In\": 1}, \"13\": {\"In\": 1}, \"14\": {\"In\": 1}, \"15\": {\"In\": 1}, \"16\": {\"O\": 1}, \"17\": {\"O\": 1}, \"18\": {\"O\": 1}, \"19\": {\"O\": 1}, \"20\": {\"O\": 1}, \"21\": {\"O\": 1}, \"22\": {\"O\": 1}, \"23\": {\"O\": 1}, \"24\": {\"O\": 1}, \"25\": {\"O\": 1}, \"26\": {\"O\": 1}, \"27\": {\"O\": 1}, \"28\": {\"O\": 1}, \"29\": {\"O\": 1}, \"30\": {\"O\": 1}, \"31\": {\"O\": 1}, \"32\": {\"O\": 1}, \"33\": {\"O\": 1}, \"34\": {\"O\": 1}, \"35\": {\"O\": 1}, \"36\": {\"O\": 1}, \"37\": {\"O\": 1}, \"38\": {\"O\": 1}, \"39\": {\"O\": 1}}" n_minim_iter=2 energy=-45141.3440202372 stress="0.12388091551291516 -1.9849439396251373e-12 -1.912462430514206e-12 -1.9849439396251373e-12 0.12388091551296758 3.966220431236443e-12 -1.912462430514206e-12 3.966220431236443e-12 0.12388091551356928" free_energy=-45141.3440202372 pbc="T T T"
In      -4.44690860       3.14443923       6.16409059        0      -0.01760588       0.01244924      -0.02156271
In       7.60686443       1.32441317       1.57618880        1       0.01760588      -0.01244924       0.02156271
In       1.28695277      -0.91001303       5.44632850        2       0.01760588      -0.01244924       0.02156271
In      -1.57997792      -2.23442619       3.87013970        3      -0.00000000      -0.00000000       0.00000000
In      -1.28695277       4.26165233       3.51125865        4      -0.01760588       0.01244924       0.02156271
In       5.03295889      -2.93723916       5.80520955        5      -0.01760588      -0.02489847      -0.00000000
In      -1.28695277       1.53161324       5.80520955        6      -0.01760588      -0.02489847      -0.00000000
In      -1.87300306       7.40609156       1.93506985        7       0.01760588       0.02489847      -0.00000000
In       4.44690860       0.20720007       4.22902074        8       0.01760588      -0.01244924      -0.02156271
In      -1.57997792       4.46885240      -0.00000000        9       0.00000000      -0.00000000       0.00000000
In       4.44690860       6.91047866       0.35888104       10       0.01760588      -0.01244924      -0.02156271
In      -1.28695277      -2.44162626       7.38139835       11      -0.01760588       0.01244924       0.02156271
In       4.44690860       2.93723916       1.93506985       12       0.01760588       0.02489847       0.00000000
In       1.87300306       5.37886543       2.29395089       13      -0.01760588       0.01244924      -0.02156271
In       4.73993375       0.00000000      -0.00000000       14      -0.00000000      -0.00000000      -0.00000000
In       1.57997791       2.23442620       3.87013970       15       0.00000000       0.00000000      -0.00000000
O        1.38244852       4.53783098       4.24690967       16       0.04899962      -0.04161549       0.06589414
O       -1.77750731       3.64344237       5.55708735       17       0.04899962       0.07787375       0.00309300
O       -0.25235422       2.56499628      -0.31526863       18       0.05051782       0.07680022       0.00495241
O       -1.38244853      -0.75643144       2.06371762       19      -0.04899962       0.03625826       0.06898714
O        4.02757284       5.04326341       2.37898625       20       0.05708686      -0.03339899       0.06403474
O        2.29233882       2.69579537       1.68694765       21      -0.05708687      -0.07215520       0.00309300
O        2.29233882       6.81632043       0.69203860       22      -0.05708687       0.03875621       0.06094174
O       -2.50241976       6.08620168       3.55487107       23      -0.05556866      -0.07322873       0.00495241
O        3.41231005       1.90385612       8.05554802       24      -0.05051782      -0.07680022      -0.00495241
O        5.66237559      -1.61734928       4.18540832       25       0.05556866       0.07322873      -0.00495241
O        6.57226588       3.24389370       1.49115344       26      -0.05051782       0.04268902      -0.06403474
O        3.81749190       2.26993402       4.56217830       27      -0.05556866       0.04090327       0.06094174
O        0.65753607       5.05042150       7.36350942       28      -0.05556866       0.03232546      -0.06589414
O        2.50241976      -0.58156910       0.37676997       29       0.05556866      -0.03232546       0.06589414
O       -3.41231006       1.22495870       6.24912595       30       0.05051782      -0.04268902       0.06403473
O        4.93746314       0.82541003       2.18319204       31      -0.04899962      -0.07787375      -0.00309300
O        0.86761701       1.77305703       6.05333174       32       0.05708687       0.07215520      -0.00309300
O        3.41231005      -0.67889741       5.93385732       33      -0.05051782       0.03411120       0.06898714
O        1.77750731      -0.06897859       3.49336972       34      -0.04899962       0.04161549      -0.06589414
O        0.86761701      -2.34746803       7.04824080       35       0.05708687      -0.03875621      -0.06094174
O       -0.65753607       2.19891838       3.17810110       36       0.05556866      -0.04090327      -0.06094174
O       -0.86761701      -0.57441101       5.36129314       37      -0.05708687       0.03339899      -0.06403473
O       -0.25235423       5.14774981       1.80642207       38       0.05051782      -0.03411120      -0.06898714
O        4.54240435       5.22528383       5.67656177       39       0.04899962      -0.03625826      -0.06898714
40
Lattice="9.479867495543184 7.430007841102646e-10 2.2372458283316825e-14 -3.1599558325482358 8.93770478755036 -1.2869205922562208e-09 -3.1599558314974914 -4.468852393032179 7.740279398402344" Properties=species:S:1:pos:R:3:spacegroup_kinds:I:1:forces:R:3 spacegroup="P 1" unit_cell=conventional occupancy="_JSON {\"0\": {\"In\": 1}, \"1\": {\"In\": 1}, \"2\": {\"In\": 1}, \"3\": {\"In\": 1}, \"4\": {\"In\": 1}, \"5\": {\"In\": 1}, \"6\": {\"In\": 1}, \"7\": {\"In\": 1}, \"8\": {\"In\": 1}, \"9\": {\"In\": 1}, \"10\": {\"In\": 1}, \"11\": {\"In\": 1}, \"12\": {\"In\": 1}, \"13\": {\"In\": 1}, \"14\": {\"In\": 1}, \"15\": {\"In\": 1}, \"16\": {\"O\": 1}, \"17\": {\"O\": 1}, \"18\": {\"O\": 1}, \"19\": {\"O\": 1}, \"20\": {\"O\": 1}, \"21\": {\"O\": 1}, \"22\": {\"O\": 1}, \"23\": {\"O\": 1}, \"24\": {\"O\": 1}, \"25\": {\"O\": 1}, \"26\": {\"O\": 1}, \"27\": {\"O\": 1}, \"28\": {\"O\": 1}, \"29\": {\"O\": 1}, \"30\": {\"O\": 1}, \"31\": {\"O\": 1}, \"32\": {\"O\": 1}, \"33\": {\"O\": 1}, \"34\": {\"O\": 1}, \"35\": {\"O\": 1}, \"36\": {\"O\": 1}, \"37\": {\"O\": 1}, \"38\": {\"O\": 1}, \"39\": {\"O\": 1}}" n_minim_iter=3 energy=-45141.35362498466 stress="0.12375491057078572 -3.2025282158339984e-13 1.7547996842985941e-12 -3.2025282158339984e-13 0.12375491057541163 -1.1424025864903456e-12 1.7547996842985941e-12 -1.1424025864903456e-12 0.12375491057558327" free_energy=-45141.35362498466 pbc="T T T"
In      -4.44805140       3.14524731       6.16269096        0       0.01878215      -0.01328098       0.02300334
In       7.60800722       1.32360509       1.57758843        1      -0.01878215       0.01328098      -0.02300334
In       1.28809556      -0.91082110       5.44772813        2      -0.01878215       0.01328098      -0.02300334
In      -1.57997792      -2.23442619       3.87013970        3       0.00000000      -0.00000000      -0.00000000
In      -1.28809556       4.26246040       3.51265828        4       0.01878215      -0.01328098      -0.02300334
In       5.03181610      -2.93885531       5.80520955        5       0.01878215       0.02656197       0.00000000
In      -1.28809556       1.52999708       5.80520955        6       0.01878215       0.02656197       0.00000000
In      -1.87186027       7.40770771       1.93506985        7      -0.01878215      -0.02656197       0.00000000
In       4.44805139       0.20639199       4.22762111        8      -0.01878215       0.01328098       0.02300334
In      -1.57997792       4.46885240      -0.00000000        9       0.00000000      -0.00000000      -0.00000000
In       4.44805139       6.90967058       0.35748141       10      -0.01878215       0.01328098       0.02300334
In      -1.28809556      -2.44081819       7.38279798       11       0.01878215      -0.01328098      -0.02300334
In       4.44805139       2.93885531       1.93506985       12      -0.01878215      -0.02656197      -0.00000000
In       1.87186027       5.37967350       2.29255126       13       0.01878215      -0.01328098       0.02300334
In       4.73993375       0.00000000      -0.00000000       14      -0.00000000       0.00000000      -0.00000000
In       1.57997791       2.23442620       3.87013970       15       0.00000000       0.00000000      -0.00000000
O        1.38641872       4.53541486       4.25139773       16       0.03693965      -0.01949636       0.00456984
O       -1.77353711       3.64853721       5.55693574       17       0.03693965       0.01370578       0.01459942
O       -0.24850531       2.57017688      -0.31556877       18       0.00685381       0.03497968      -0.02224807
O       -1.38641872      -0.75375272       2.06805408       19      -0.03693965      -0.00579058       0.01916926
O        4.03105291       5.04041140       2.38362285       20       0.00060871      -0.00705435       0.04141733
O        2.28885875       2.69035395       1.68679605       21      -0.00060871      -0.03939563       0.01459942
O        2.28885875       6.81890985       0.69682681       22      -0.00060871       0.03234128       0.02681791
O       -2.50602111       6.08084602       3.55457092       23      -0.03069456      -0.01812172      -0.02224807
O        3.40846114       1.89867552       8.05584817       24      -0.00685381      -0.03497968       0.02224807
O        5.66597694      -1.61199362       4.18570847       25       0.03069456       0.01812172       0.02224807
O        6.56841697       3.24622407       1.48651684       26      -0.00685381      -0.00177755      -0.04141733
O        3.81389056       2.27235191       4.56696651       27      -0.03069456      -0.01020653       0.02681791
O        0.65393472       5.05335926       7.35902136       28      -0.03069456       0.02832825      -0.00456984
O        2.50602110      -0.58450686       0.38125803       29       0.03069456      -0.02832825       0.00456984
O       -3.40846114       1.22262833       6.25376255       30       0.00685381       0.00177755       0.04141733
O        4.93349294       0.82031519       2.18334365       31      -0.03693965      -0.01370578      -0.01459942
O        0.87109707       1.77849845       6.05348335       32       0.00060871       0.03939563      -0.01459942
O        3.40846114      -0.67604718       5.93819378       33      -0.00685381       0.03675723       0.01916926
O        1.77353711      -0.06656246       3.48888166       34      -0.03693965       0.01949636      -0.00456984
O        0.87109707      -2.35005745       7.04345259       35       0.00060871      -0.03234128      -0.02681791
O       -0.65393473       2.19650048       3.17331289       36       0.03069456       0.01020653      -0.02681791
O       -0.87109708      -0.57155900       5.35665654       37      -0.00060871       0.00705435      -0.04141733
O       -0.24850531       5.14489958       1.80208561       38       0.00685381      -0.03675723      -0.01916926
O        4.54637455       5.22260512       5.67222531       39       0.03693965       0.00579058      -0.01916926
40
Lattice="9.47986749554318 7.430007841102646e-10 2.237245828331682e-14 -3.1599558325482353 8.93770478755036 -1.2869205922562206e-09 -3.159955831497491 -4.468852393032179 7.740279398402342" Properties=species:S:1:pos:R:3:spacegroup_kinds:I:1:forces:R:3 spacegroup="P 1" unit_cell=conventional occupancy="_JSON {\"0\": {\"In\": 1}, \"1\": {\"In\": 1}, \"2\": {\"In\": 1}, \"3\": {\"In\": 1}, \"4\": {\"In\": 1}, \"5\": {\"In\": 1}, \"6\": {\"In\": 1}, \"7\": {\"In\": 1}, \"8\": {\"In\": 1}, \"9\": {\"In\": 1}, \"10\": {\"In\": 1}, \"11\": {\"In\": 1}, \"12\": {\"In\": 1}, \"13\": {\"In\": 1}, \"14\": {\"In\": 1}, \"15\": {\"In\": 1}, \"16\": {\"O\": 1}, \"17\": {\"O\": 1}, \"18\": {\"O\": 1}, \"19\": {\"O\": 1}, \"20\": {\"O\": 1}, \"21\": {\"O\": 1}, \"22\": {\"O\": 1}, \"23\": {\"O\": 1}, \"24\": {\"O\": 1}, \"25\": {\"O\": 1}, \"26\": {\"O\": 1}, \"27\": {\"O\": 1}, \"28\": {\"O\": 1}, \"29\": {\"O\": 1}, \"30\": {\"O\": 1}, \"31\": {\"O\": 1}, \"32\": {\"O\": 1}, \"33\": {\"O\": 1}, \"34\": {\"O\": 1}, \"35\": {\"O\": 1}, \"36\": {\"O\": 1}, \"37\": {\"O\": 1}, \"38\": {\"O\": 1}, \"39\": {\"O\": 1}}" n_minim_iter=4 energy=-45141.35661855218 stress="0.12246693792051795 -1.986246269645933e-12 -3.0152618179084607e-12 -1.986246269645933e-12 0.1224669379253909 -7.366154148902496e-13 -3.0152618179084607e-12 -7.366154148902496e-13 0.12246693792269178" free_energy=-45141.35661855218 pbc="T T T"
In      -4.44794834       3.14517443       6.16281718        0       0.03068059      -0.02169445       0.03757589
In       7.60790417       1.32367797       1.57746221        1      -0.03068059       0.02169445      -0.03757589
In       1.28799250      -0.91074823       5.44760191        2      -0.03068059       0.02169445      -0.03757589
In      -1.57997792      -2.23442619       3.87013970        3       0.00000000      -0.00000000      -0.00000000
In      -1.28799251       4.26238753       3.51253206        4       0.03068059      -0.02169445      -0.03757589
In       5.03191916      -2.93870956       5.80520955        5       0.03068059       0.04338890       0.00000000
In      -1.28799251       1.53014283       5.80520955        6       0.03068059       0.04338890      -0.00000000
In      -1.87196333       7.40756196       1.93506985        7      -0.03068059      -0.04338890       0.00000000
In       4.44794833       0.20646487       4.22774733        8      -0.03068059       0.02169445       0.03757589
In      -1.57997792       4.46885240      -0.00000000        9       0.00000000       0.00000000       0.00000000
In       4.44794833       6.90974346       0.35760763       10      -0.03068059       0.02169445       0.03757589
In      -1.28799250      -2.44089106       7.38267176       11       0.03068059      -0.02169445      -0.03757589
In       4.44794833       2.93870957       1.93506985       12      -0.03068059      -0.04338890      -0.00000000
In       1.87196333       5.37960063       2.29267748       13       0.03068059      -0.02169445       0.03757589
In       4.73993375       0.00000000      -0.00000000       14       0.00000000       0.00000000      -0.00000000
In       1.57997791       2.23442620       3.87013970       15       0.00000000      -0.00000000      -0.00000000
O        1.39170482       4.53572825       4.25353202       16       0.01581583      -0.02571410      -0.01530448
O       -1.76825101       3.65022887       5.55559720       17       0.01581583      -0.00039702       0.02992131
O       -0.24485290       2.57302373      -0.31890818       18      -0.01934586       0.02446605      -0.01314279
O       -1.39170483      -0.75174768       2.06884982       19      -0.01581583      -0.02611112       0.01461683
O        4.03088578       5.03647835       2.38775800       20      -0.00564626       0.01852313       0.02775962
O        2.28902588       2.68480628       1.68545750       21       0.00564626      -0.01477897       0.02992131
O        2.28902588       6.82052447       0.70230050       22       0.00564626       0.03330210      -0.00216169
O       -2.50748767       6.07645354       3.55123151       23      -0.02951543       0.01008410      -0.01314279
O        3.40480873       1.89582866       8.05918758       24       0.01934586      -0.02446605       0.01314279
O        5.66744350      -1.60760114       4.18904788       25       0.02951543      -0.01008410       0.01314279
O        6.56476456       3.24475548       1.48238169       26       0.01934586       0.00085103      -0.02775962
O        3.81242399       2.27165614       4.57244020       27      -0.02951543      -0.01642404      -0.00216169
O        0.65246816       5.05844751       7.35688707       28      -0.02951544       0.00633994       0.01530448
O        2.50748767      -0.58959511       0.38339232       29       0.02951543      -0.00633994      -0.01530448
O       -3.40480873       1.22409692       6.25789770       30      -0.01934586      -0.00085103       0.02775962
O        4.92820684       0.81862353       2.18468220       31      -0.01581583       0.00039702      -0.02992131
O        0.87092995       1.78404612       6.05482190       32      -0.00564626       0.01477897      -0.02992131
O        3.40480873      -0.67173174       5.93898952       33       0.01934586       0.02361502       0.01461682
O        1.76825100      -0.06687585       3.48674737       34      -0.01581583       0.02571410       0.01530448
O        0.87092995      -2.35167207       7.03797889       35      -0.00564626      -0.03330210       0.00216169
O       -0.65246816       2.19719626       3.16783919       36       0.02951544       0.01642404       0.00216169
O       -0.87092995      -0.56762595       5.35252139       37       0.00564626      -0.01852313      -0.02775962
O       -0.24485290       5.14058414       1.80128987       38      -0.01934586      -0.02361502      -0.01461683
O        4.55166066       5.22060007       5.67142957       39       0.01581583       0.02611112      -0.01461682
40
Lattice="9.479867495543173 7.430007841102641e-10 2.237245828331682e-14 -3.159955832548233 8.937704787550356 -1.2869205922562198e-09 -3.1599558314974887 -4.4688523930321775 7.740279398402338" Properties=species:S:1:pos:R:3:spacegroup_kinds:I:1:forces:R:3 spacegroup="P 1" unit_cell=conventional occupancy="_JSON {\"0\": {\"In\": 1}, \"1\": {\"In\": 1}, \"2\": {\"In\": 1}, \"3\": {\"In\": 1}, \"4\": {\"In\": 1}, \"5\": {\"In\": 1}, \"6\": {\"In\": 1}, \"7\": {\"In\": 1}, \"8\": {\"In\": 1}, \"9\": {\"In\": 1}, \"10\": {\"In\": 1}, \"11\": {\"In\": 1}, \"12\": {\"In\": 1}, \"13\": {\"In\": 1}, \"14\": {\"In\": 1}, \"15\": {\"In\": 1}, \"16\": {\"O\": 1}, \"17\": {\"O\": 1}, \"18\": {\"O\": 1}, \"19\": {\"O\": 1}, \"20\": {\"O\": 1}, \"21\": {\"O\": 1}, \"22\": {\"O\": 1}, \"23\": {\"O\": 1}, \"24\": {\"O\": 1}, \"25\": {\"O\": 1}, \"26\": {\"O\": 1}, \"27\": {\"O\": 1}, \"28\": {\"O\": 1}, \"29\": {\"O\": 1}, \"30\": {\"O\": 1}, \"31\": {\"O\": 1}, \"32\": {\"O\": 1}, \"33\": {\"O\": 1}, \"34\": {\"O\": 1}, \"35\": {\"O\": 1}, \"36\": {\"O\": 1}, \"37\": {\"O\": 1}, \"38\": {\"O\": 1}, \"39\": {\"O\": 1}}" n_minim_iter=5 energy=-45141.35857788075 stress="0.12106654072712432 -1.3464677170080965e-12 1.7123193989831022e-12 -1.3464677170080965e-12 0.12106654072676966 1.313905572871993e-12 1.7123193989831022e-12 1.313905572871993e-12 0.12106654073124404" free_energy=-45141.35857788075 pbc="T T T"
In      -4.44652568       3.14416847       6.16455957        0       0.02476817      -0.01751374       0.03033469
In       7.60648151       1.32468393       1.57571982        1      -0.02476817       0.01751374      -0.03033469
In       1.28656985      -0.90974226       5.44585952        2      -0.02476817       0.01751374      -0.03033469
In      -1.57997792      -2.23442619       3.87013970        3       0.00000000       0.00000000       0.00000000
In      -1.28656985       4.26138156       3.51078967        4       0.02476817      -0.01751374      -0.03033469
In       5.03334181      -2.93669763       5.80520955        5       0.02476817       0.03502748       0.00000000
In      -1.28656985       1.53215477       5.80520955        6       0.02476817       0.03502748      -0.00000000
In      -1.87338598       7.40555003       1.93506985        7      -0.02476817      -0.03502748      -0.00000000
In       4.44652568       0.20747083       4.22948972        8      -0.02476817       0.01751374       0.03033469
In      -1.57997792       4.46885240      -0.00000000        9      -0.00000000      -0.00000000      -0.00000000
In       4.44652568       6.91074943       0.35935002       10      -0.02476817       0.01751374       0.03033469
In      -1.28656985      -2.44189703       7.38092937       11       0.02476817      -0.01751374      -0.03033469
In       4.44652568       2.93669763       1.93506985       12      -0.02476817      -0.03502748      -0.00000000
In       1.87338598       5.37859466       2.29441987       13       0.02476817      -0.01751374       0.03033469
In       4.73993375       0.00000000      -0.00000000       14       0.00000000      -0.00000000       0.00000000
In       1.57997791       2.23442620       3.87013970       15      -0.00000000      -0.00000000       0.00000000
O        1.39777732       4.53460853       4.25523779       16      -0.00669916      -0.01912577      -0.01964615
O       -1.76217852       3.65226596       5.55571401       17      -0.00669916      -0.00745118       0.02638648
O       -0.24196382       2.57731184      -0.32269023       18      -0.02729004       0.00710877       0.00116790
O       -1.39777732      -0.75083030       2.07067241       19       0.00669916      -0.02657695       0.00674033
O        4.03078221       5.03337740       2.39336264       20      -0.00479198       0.02725124       0.00557243
O        2.28912945       2.67840205       1.68557431       21       0.00479198       0.00879976       0.02638648
O        2.28912945       6.82382775       0.70778832       22       0.00479198       0.01845148      -0.02081405
O       -2.51056752       6.07230032       3.54744946       23      -0.01579889       0.02335971       0.00116790
O        3.40191965       1.89154056       8.06296963       24       0.02729004      -0.00710877      -0.00116790
O        5.67052334      -1.60344792       4.19282993       25       0.01579889      -0.02335971      -0.00116790
O        6.56187548       3.24362418       1.47677705       26       0.02729004       0.00456582      -0.00557243
O        3.80934415       2.27045740       4.57792802       27      -0.01579889      -0.01066842      -0.02081405
O        0.64938832       5.06379947       7.35518130       28      -0.01579889      -0.01269129       0.01964615
O        2.51056751      -0.59494707       0.38509809       29       0.01579889       0.01269129      -0.01964615
O       -3.40191965       1.22522822       6.26350234       30      -0.02729004      -0.00456582       0.00557243
O        4.92213434       0.81658644       2.18456538       31       0.00669916       0.00745118      -0.02638648
O        0.87082637       1.79045035       6.05470508       32      -0.00479198      -0.00879976      -0.02638648
O        3.40191965      -0.66631234       5.94081211       33       0.02729004       0.00254295       0.00674033
O        1.76217851      -0.06575613       3.48504160       34       0.00669916       0.01912577       0.01964615
O        0.87082637      -2.35497535       7.03249107       35      -0.00479198      -0.01845148       0.02081405
O       -0.64938832       2.19839500       3.16235137       36       0.01579889       0.01066842       0.02081405
O       -0.87082638      -0.56452500       5.34691675       37       0.00479198      -0.02725124      -0.00557243
O       -0.24196382       5.13516473       1.79946728       38      -0.02729004      -0.00254295      -0.00674033
O        4.55773315       5.21968269       5.66960698       39      -0.00669916       0.02657695      -0.00674033
40