40
Lattice="9.070311645459704 7.109059597868803e-10 5.077322836360922e-15 -3.0234372158234826 8.551571829069522 -1.2313276767604263e-09 -3.023437214818116 -4.275785913823855 7.405878447082445" Properties=species:S:1:pos:R:3:spacegroup_kinds:I:1:forces:R:3 spacegroup="P 1" unit_cell=conventional occupancy="_JSON {\"0\": {\"In\": 1}, \"1\": {\"In\": 1}, \"2\": {\"In\": 1}, \"3\": {\"In\": 1}, \"4\": {\"In\": 1}, \"5\": {\"In\": 1}, \"6\": {\"In\": 1}, \"7\": {\"In\": 1}, \"8\": {\"In\": 1}, \"9\": {\"In\": 1}, \"10\": {\"In\": 1}, \"11\": {\"In\": 1}, \"12\": {\"In\": 1}, \"13\": {\"In\": 1}, \"14\": {\"In\": 1}, \"15\": {\"In\": 1}, \"16\": {\"O\": 1}, \"17\": {\"O\": 1}, \"18\": {\"O\": 1}, \"19\": {\"O\": 1}, \"20\": {\"O\": 1}, \"21\": {\"O\": 1}, \"22\": {\"O\": 1}, \"23\": {\"O\": 1}, \"24\": {\"O\": 1}, \"25\": {\"O\": 1}, \"26\": {\"O\": 1}, \"27\": {\"O\": 1}, \"28\": {\"O\": 1}, \"29\": {\"O\": 1}, \"30\": {\"O\": 1}, \"31\": {\"O\": 1}, \"32\": {\"O\": 1}, \"33\": {\"O\": 1}, \"34\": {\"O\": 1}, \"35\": {\"O\": 1}, \"36\": {\"O\": 1}, \"37\": {\"O\": 1}, \"38\": {\"O\": 1}, \"39\": {\"O\": 1}}" n_minim_iter=1 energy=-45149.17126779648 stress="0.024564193081548998 -1.826204899228309e-13 2.811660080367955e-13 -1.826204899228309e-13 0.02456419308109999 3.727401638190734e-13 2.811660080367955e-13 3.727401638190734e-13 0.02456419308130947" free_energy=-45149.17126779648 pbc="T T T"
In      -4.32990577       3.06170574       5.80578778        0      -0.01667746       0.01179275      -0.02042563
In       7.35334299       1.21408018       1.60009066        1       0.01667746      -0.01179275       0.02042563
In       1.30646856      -0.92381277       5.30302989        2       0.01667746      -0.01179275       0.02042563
In      -1.51171861      -2.13789296       3.70293922        3      -0.00000000       0.00000000       0.00000000
In      -1.30646856       4.13065221       3.45156027        4      -0.01667746       0.01179275       0.02042563
In       4.74040587      -2.91657203       5.55440883        5      -0.01667746      -0.02358549       0.00000000
In      -1.30646856       1.35921389       5.55440883        6      -0.01667746      -0.02358549       0.00000000
In      -1.71696866       7.19235795       1.85146961        7       0.01667746       0.02358549       0.00000000
In       4.32990577       0.14513371       3.95431817        8       0.01667746      -0.01179275      -0.02042563
In      -1.51171861       4.27578592      -0.00000000        9       0.00000000      -0.00000000      -0.00000000
In       4.32990577       6.55881258       0.25137894       10       0.01667746      -0.01179275      -0.02042563
In      -1.30646856      -2.28302666       7.15449950       11      -0.01667746       0.01179275       0.02042563
In       4.32990577       2.91657203       1.85146961       12       0.01667746       0.02358549      -0.00000000
In       1.71696866       5.19959869       2.10284856       13      -0.01667746       0.01179275      -0.02042563
In       4.53515582       0.00000000      -0.00000000       14       0.00000000      -0.00000000       0.00000000
In       1.51171861       2.13789296       3.70293922       15      -0.00000000       0.00000000      -0.00000000
O        0.89020805       4.27594891       4.02885046       16       0.03343851       0.00119123      -0.05695847
O       -2.13322917       3.48900536       5.39131206       17       0.03343851      -0.04992310       0.02744760
O       -0.44489414       2.29517221       0.05321327       18      -0.03479868      -0.00167212      -0.05612554
O       -0.89020805      -0.78661757       2.01428408       19      -0.03343851      -0.04873187      -0.02951087
O        4.00054218       5.09312618       1.96107080       20      -0.05821412       0.01632777       0.02661467
O        2.04633224       2.98611892       1.68837283       21       0.05821412      -0.01488510       0.02744760
O        2.04633224       6.38279318       0.27269796       22       0.05821412       0.03121287      -0.00083293
O       -2.31220716       6.06807169       3.75615250       23      -0.01002307       0.03336588      -0.05612554
O        3.46833135       1.98061371       7.35266517       24       0.03479868       0.00167212       0.05612554
O        5.33564437      -1.79228577       3.64972594       25       0.01002307      -0.03336588       0.05612554
O        6.49176857       3.33156311       1.74186842       26       0.03479868      -0.04944221      -0.02661467
O        3.73466727       2.35678060       3.97563719       27      -0.01002307      -0.06528909      -0.00083293
O        0.71123006       4.40250546       7.07996720       28      -0.01002307       0.03192321       0.05695847
O        2.31220716      -0.12671954       0.32591124       29       0.01002307      -0.03192321      -0.05695847
O       -3.46833135       0.94422280       5.66401002       30      -0.03479868       0.04944221       0.02661467
O        5.15666638       0.78678056       2.01456638       31      -0.03343851       0.04992310      -0.02744760
O        0.97710497       1.28966700       5.71750561       32      -0.05821412       0.01488510      -0.02744760
O        3.46833135      -1.03639090       5.71722330       33       0.03479868       0.04777009      -0.02951087
O        2.13322916      -0.00016299       3.37702798       34      -0.03343851      -0.00119123       0.05695847
O        0.97710497      -2.10700726       7.13318048       35      -0.05821412      -0.03121287       0.00083293
O       -0.71123006       1.91900532       3.43024125       36       0.01002307       0.06528909       0.00083293
O       -0.97710497      -0.81734026       5.44480764       37       0.05821412      -0.01632777      -0.02661467
O       -0.44489414       5.31217682       1.68865514       38      -0.03479868      -0.04777009       0.02951087
O        3.91364527       5.06240348       5.39159436       39       0.03343851       0.04873187       0.02951087
40
Lattice="9.070311645459704 7.109059597868803e-10 5.077322836360922e-15 -3.0234372158234826 8.551571829069522 -1.2313276767604263e-09 -3.023437214818116 -4.275785913823855 7.405878447082445" Properties=species:S:1:pos:R:3:spacegroup_kinds:I:1:forces:R:3 spacegroup="P 1" unit_cell=conventional occupancy="_JSON {\"0\": {\"In\": 1}, \"1\": {\"In\": 1}, \"2\": {\"In\": 1}, \"3\": {\"In\": 1}, \"4\": {\"In\": 1}, \"5\": {\"In\": 1}, \"6\": {\"In\": 1}, \"7\": {\"In\": 1}, \"8\": {\"In\": 1}, \"9\": {\"In\": 1}, \"10\": {\"In\": 1}, \"11\": {\"In\": 1}, \"12\": {\"In\": 1}, \"13\": {\"In\": 1}, \"14\": {\"In\": 1}, \"15\": {\"In\": 1}, \"16\": {\"O\": 1}, \"17\": {\"O\": 1}, \"18\": {\"O\": 1}, \"19\": {\"O\": 1}, \"20\": {\"O\": 1}, \"21\": {\"O\": 1}, \"22\": {\"O\": 1}, \"23\": {\"O\": 1}, \"24\": {\"O\": 1}, \"25\": {\"O\": 1}, \"26\": {\"O\": 1}, \"27\": {\"O\": 1}, \"28\": {\"O\": 1}, \"29\": {\"O\": 1}, \"30\": {\"O\": 1}, \"31\": {\"O\": 1}, \"32\": {\"O\": 1}, \"33\": {\"O\": 1}, \"34\": {\"O\": 1}, \"35\": {\"O\": 1}, \"36\": {\"O\": 1}, \"37\": {\"O\": 1}, \"38\": {\"O\": 1}, \"39\": {\"O\": 1}}" n_minim_iter=2 energy=-45149.17506016759 stress="0.02405634727455643 -2.2380430018043185e-13 -6.49695098314777e-13 -2.2380430018043185e-13 0.02405634727429259 -1.5721740645705577e-13 -6.49695098314777e-13 -1.5721740645705577e-13 0.024056347273448155" free_energy=-45149.17506016759 pbc="T T T"
In      -4.33101571       3.06249058       5.80442839        0      -0.00235675       0.00166648      -0.00288642
In       7.35445292       1.21329534       1.60145005        1       0.00235675      -0.00166648       0.00288642
In       1.30757849      -0.92459761       5.30438927        2       0.00235675      -0.00166648       0.00288642
In      -1.51171861      -2.13789296       3.70293922        3      -0.00000000       0.00000000       0.00000000
In      -1.30757849       4.13143706       3.45291966        4      -0.00235675       0.00166648       0.00288642
In       4.73929594      -2.91814171       5.55440883        5      -0.00235675      -0.00333295      -0.00000000
In      -1.30757849       1.35764420       5.55440883        6      -0.00235675      -0.00333295       0.00000000
In      -1.71585873       7.19392763       1.85146961        7       0.00235675       0.00333295      -0.00000000
In       4.33101570       0.14434886       3.95295878        8       0.00235675      -0.00166648      -0.00288642
In      -1.51171861       4.27578592      -0.00000000        9       0.00000000       0.00000000      -0.00000000
In       4.33101570       6.55802774       0.25001956       10       0.00235675      -0.00166648      -0.00288642
In      -1.30757849      -2.28224182       7.15585888       11      -0.00235675       0.00166648       0.00288642
In       4.33101570       2.91814172       1.85146961       12       0.00235675       0.00333295      -0.00000000
In       1.71585872       5.20038353       2.10148917       13      -0.00235675       0.00166648      -0.00288642
In       4.53515582       0.00000000      -0.00000000       14       0.00000000       0.00000000       0.00000000
In       1.51171861       2.13789296       3.70293922       15      -0.00000000       0.00000000       0.00000000
O        0.89243348       4.27602819       4.02505971       16       0.02056609       0.00062569       0.01406557
O       -2.13100374       3.48568283       5.39313877       17       0.02056609       0.01186830      -0.00757465
O       -0.44721009       2.29506093       0.04947796       18       0.01863481       0.01323392      -0.00993998
O       -0.89243348      -0.78986081       2.01232004       19      -0.02056609       0.01249399       0.00649092
O        3.99666786       5.09421284       1.96284208       20       0.00433417      -0.01823284       0.01643090
O        2.05020656       2.98512827       1.69019955       21      -0.00433417      -0.02334599      -0.00757465
O        2.05020656       6.38487049       0.27264253       22      -0.00433417       0.00511316       0.02400555
O       -2.31287422       6.07029228       3.75241718       23      -0.00626545      -0.02198037      -0.00993998
O        3.47064730       1.98072499       7.35640048       24      -0.01863481      -0.01323392       0.00993998
O        5.33631144      -1.79450636       3.65346126       25       0.00626545       0.02198037       0.00993998
O        6.49408452       3.32827259       1.74009714       26      -0.01863481      -0.00199131      -0.01643090
O        3.73400021       2.35243543       3.97558175       27      -0.00626545       0.00238191       0.02400555
O        0.71056299       4.40463004       7.08375795       28      -0.00626545       0.01959846      -0.01406557
O        2.31287422      -0.12884412       0.32212049       29       0.00626545      -0.01959846       0.01406557
O       -3.47064731       0.94751333       5.66578131       30       0.01863481       0.00199131       0.01643090
O        5.15444095       0.79010309       2.01273967       31      -0.02056609      -0.01186830       0.00757465
O        0.97323065       1.29065765       5.71567889       32       0.00433417       0.02334599       0.00757465
O        3.47064730      -1.03321166       5.71525927       33      -0.01863481       0.01522523       0.00649092
O        2.13100373      -0.00024227       3.38081873       34      -0.02056609      -0.00062569      -0.01406557
O        0.97323065      -2.10908457       7.13323591       35       0.00433417      -0.00511316      -0.02400555
O       -0.71056299       1.92335049       3.43029669       36       0.00626545      -0.00238191      -0.02400555
O       -0.97323065      -0.81842692       5.44303636       37      -0.00433417       0.01823284      -0.01643090
O       -0.44721009       5.30899758       1.69061917       38       0.01863481      -0.01522523      -0.00649092
O        3.91587069       5.06564673       5.39355840       39       0.02056609      -0.01249399      -0.00649092
40
Lattice="9.070311645459705 7.109059597868806e-10 5.077322836360924e-15 -3.023437215823484 8.551571829069523 -1.2313276767604265e-09 -3.0234372148181174 -4.275785913823856 7.405878447082448" Properties=species:S:1:pos:R:3:spacegroup_kinds:I:1:forces:R:3 spacegroup="P 1" unit_cell=conventional occupancy="_JSON {\"0\": {\"In\": 1}, \"1\": {\"In\": 1}, \"2\": {\"In\": 1}, \"3\": {\"In\": 1}, \"4\": {\"In\": 1}, \"5\": {\"In\": 1}, \"6\": {\"In\": 1}, \"7\": {\"In\": 1}, \"8\": {\"In\": 1}, \"9\": {\"In\": 1}, \"10\": {\"In\": 1}, \"11\": {\"In\": 1}, \"12\": {\"In\": 1}, \"13\": {\"In\": 1}, \"14\": {\"In\": 1}, \"15\": {\"In\": 1}, \"16\": {\"O\": 1}, \"17\": {\"O\": 1}, \"18\": {\"O\": 1}, \"19\": {\"O\": 1}, \"20\": {\"O\": 1}, \"21\": {\"O\": 1}, \"22\": {\"O\": 1}, \"23\": {\"O\": 1}, \"24\": {\"O\": 1}, \"25\": {\"O\": 1}, \"26\": {\"O\": 1}, \"27\": {\"O\": 1}, \"28\": {\"O\": 1}, \"29\": {\"O\": 1}, \"30\": {\"O\": 1}, \"31\": {\"O\": 1}, \"32\": {\"O\": 1}, \"33\": {\"O\": 1}, \"34\": {\"O\": 1}, \"35\": {\"O\": 1}, \"36\": {\"O\": 1}, \"37\": {\"O\": 1}, \"38\": {\"O\": 1}, \"39\": {\"O\": 1}}" n_minim_iter=3 energy=-45149.1756800273 stress="0.024012823876656538 -1.8327413063770186e-13 -1.9883820123751976e-13 -1.8327413063770186e-13 0.024012823876270774 2.952204430293215e-13 -1.9883820123751976e-13 2.952204430293215e-13 0.024012823875768" free_energy=-45149.1756800273 pbc="T T T"
In      -4.33128696       3.06268238       5.80409618        0       0.00557491      -0.00394206       0.00682784
In       7.35472417       1.21310354       1.60178226        1      -0.00557491       0.00394206      -0.00682784
In       1.30784974      -0.92478942       5.30472148        2      -0.00557491       0.00394206      -0.00682784
In      -1.51171861      -2.13789296       3.70293922        3       0.00000000      -0.00000000      -0.00000000
In      -1.30784974       4.13162886       3.45325187        4       0.00557491      -0.00394206      -0.00682784
In       4.73902469      -2.91852532       5.55440883        5       0.00557491       0.00788411      -0.00000000
In      -1.30784974       1.35726060       5.55440883        6       0.00557491       0.00788411      -0.00000000
In      -1.71558748       7.19431124       1.85146961        7      -0.00557491      -0.00788411      -0.00000000
In       4.33128695       0.14415706       3.95262657        8      -0.00557491       0.00394206       0.00682784
In      -1.51171861       4.27578592      -0.00000000        9       0.00000000       0.00000000      -0.00000000
In       4.33128695       6.55783593       0.24968735       10      -0.00557491       0.00394206       0.00682784
In      -1.30784974      -2.28205001       7.15619110       11       0.00557491      -0.00394206      -0.00682784
In       4.33128695       2.91852532       1.85146961       12      -0.00557491      -0.00788411      -0.00000000
In       1.71558747       5.20057534       2.10115696       13       0.00557491      -0.00394206       0.00682784
In       4.53515582       0.00000000      -0.00000000       14      -0.00000000       0.00000000      -0.00000000
In       1.51171861       2.13789296       3.70293922       15      -0.00000000      -0.00000000       0.00000000
O        0.89409624       4.27607987       4.02569536       16       0.00679683       0.00005745      -0.00237108
O       -2.12934097       3.48620748       5.39277619       17       0.00679683      -0.00208214       0.00113578
O       -0.44611247       2.29598519       0.04842322       18       0.00035672       0.00247171      -0.00675172
O       -0.89409625      -0.78928448       2.01259311       19      -0.00679683      -0.00202469      -0.00123530
O        3.99660825       5.09302756       1.96416989       20      -0.00422867      -0.00187342       0.00551642
O        2.05026617       2.98338572       1.68983697       21       0.00422867      -0.00571407       0.00113578
O        2.05026617       6.38542776       0.27433291       22       0.00422867       0.00384065       0.00438064
O       -2.31337975       6.06894934       3.75136245       23      -0.00221144      -0.00116022      -0.00675172
O        3.46954968       1.97980073       7.35745522       24      -0.00035672      -0.00247171       0.00675172
O        5.33681697      -1.79316342       3.65451600       25       0.00221144       0.00116022       0.00675172
O        6.49298689       3.32782130       1.73876933       26      -0.00035672      -0.00461130      -0.00551642
O        3.73349468       2.35219347       3.97727214       27      -0.00221144      -0.00526705       0.00438064
O        0.71005746       4.40621494       7.08312230       28      -0.00221144       0.00642727       0.00237108
O        2.31337975      -0.13042902       0.32275614       29       0.00221144      -0.00642727      -0.00237108
O       -3.46954968       0.94796462       5.66710911       30       0.00035672       0.00461130       0.00551642
O        5.15277818       0.78957844       2.01310225       31      -0.00679683       0.00208214      -0.00113578
O        0.97317104       1.29240020       5.71604147       32      -0.00422867       0.00571407      -0.00113578
O        3.46954968      -1.03183610       5.71553234       33      -0.00035672       0.00708301      -0.00123530
O        2.12934097      -0.00029395       3.38018308       34      -0.00679683      -0.00005745       0.00237108
O        0.97317104      -2.10964184       7.13154553       35      -0.00422867      -0.00384065      -0.00438064
O       -0.71005746       1.92359245       3.42860630       36       0.00221144       0.00526705      -0.00438064
O       -0.97317104      -0.81724164       5.44170855       37       0.00422867       0.00187342      -0.00551642
O       -0.44611247       5.30762202       1.69034611       38       0.00035672      -0.00708301       0.00123530
O        3.91753346       5.06507040       5.39328533       39       0.00679683       0.00202469       0.00123530
