40
Lattice="9.548558335922309 7.483873284220385e-10 9.915701804042508e-15 -3.182852779346356 9.002467132931864 -1.2962565094699056e-09 -3.1828527782879847 -4.501233565717539 7.7963652347176255" Properties=species:S:1:pos:R:3:spacegroup_kinds:I:1:forces:R:3 spacegroup="P 1" unit_cell=conventional occupancy="_JSON {\"0\": {\"In\": 1}, \"1\": {\"In\": 1}, \"2\": {\"In\": 1}, \"3\": {\"In\": 1}, \"4\": {\"In\": 1}, \"5\": {\"In\": 1}, \"6\": {\"In\": 1}, \"7\": {\"In\": 1}, \"8\": {\"In\": 1}, \"9\": {\"In\": 1}, \"10\": {\"In\": 1}, \"11\": {\"In\": 1}, \"12\": {\"In\": 1}, \"13\": {\"In\": 1}, \"14\": {\"In\": 1}, \"15\": {\"In\": 1}, \"16\": {\"O\": 1}, \"17\": {\"O\": 1}, \"18\": {\"O\": 1}, \"19\": {\"O\": 1}, \"20\": {\"O\": 1}, \"21\": {\"O\": 1}, \"22\": {\"O\": 1}, \"23\": {\"O\": 1}, \"24\": {\"O\": 1}, \"25\": {\"O\": 1}, \"26\": {\"O\": 1}, \"27\": {\"O\": 1}, \"28\": {\"O\": 1}, \"29\": {\"O\": 1}, \"30\": {\"O\": 1}, \"31\": {\"O\": 1}, \"32\": {\"O\": 1}, \"33\": {\"O\": 1}, \"34\": {\"O\": 1}, \"35\": {\"O\": 1}, \"36\": {\"O\": 1}, \"37\": {\"O\": 1}, \"38\": {\"O\": 1}, \"39\": {\"O\": 1}}" n_minim_iter=3 energy=-45147.1561560046 stress="0.01779612016356512 -3.2880506392693385e-14 -1.2728408743495452e-13 -3.2880506392693385e-14 0.01779612016392181 -5.2472542168628e-13 -1.2728408743495452e-13 -5.2472542168628e-13 0.017796120164422873" free_energy=-45147.1561560046 pbc="T T T"
In      -4.55160769       3.21847267       6.11998967        0      -0.00555125       0.00392532      -0.00679886
In       7.73446047       1.28276090       1.67637556        1       0.00555125      -0.00392532       0.00679886
In       1.36875491      -0.96785588       5.57455818        2       0.00555125      -0.00392532       0.00679886
In      -1.59142639      -2.25061678       3.89818261        3       0.00000000       0.00000000       0.00000000
In      -1.36875492       4.34378106       3.62546687        4      -0.00555125       0.00392532       0.00679886
In       4.99695064      -3.06102015       5.84727392        5      -0.00555125      -0.00785065      -0.00000000
In      -1.36875492       1.44021341       5.84727392        6      -0.00555125      -0.00785065       0.00000000
In      -1.81409787       7.56225372       1.94909130        7       0.00555125       0.00785065      -0.00000000
In       4.55160769       0.15745251       4.17089836        8       0.00555125      -0.00392532      -0.00679886
In      -1.59142639       4.50123357      -0.00000000        9       0.00000000       0.00000000       0.00000000
In       4.55160769       6.90930286       0.27271574       10       0.00555125      -0.00392532      -0.00679886
In      -1.36875492      -2.40806929       7.52364948       11      -0.00555125       0.00392532       0.00679886
In       4.55160769       3.06102016       1.94909131       12       0.00555125       0.00785065      -0.00000000
In       1.81409786       5.46908945       2.22180705       13      -0.00555125       0.00392532      -0.00679886
In       4.77427917       0.00000000      -0.00000000       14       0.00000000       0.00000000      -0.00000000
In       1.59142639       2.25061679       3.89818261       15       0.00000000       0.00000000       0.00000000
O        0.96431454       4.50684979       4.21291687       16      -0.00345904      -0.00542650       0.00755319
O       -2.21853824       3.64568493       5.68504300       17      -0.00345904       0.00925450       0.00092289
O       -0.47988579       2.41627199       0.01808344       18       0.00245606       0.00507189       0.00816738
O       -0.96431455      -0.84993241       2.10159465       19       0.00345904       0.00382800       0.00847608
O        4.17669746       5.36160647       2.08351120       20       0.00987824       0.00088744       0.00030869
O        2.18900810       3.12704638       1.78686039       21      -0.00987824       0.00017638       0.00092289
O        2.18900810       6.73579365       0.29665082       22      -0.00987824       0.00071106      -0.00061420
O       -2.43804501       6.39886701       3.91626606       23      -0.00396314      -0.00400623       0.00816738
O        3.66273856       2.08496158       7.77828179       24      -0.00245606      -0.00507189      -0.00816738
O        5.62089779      -1.89763344       3.88009917       25       0.00396314       0.00400623      -0.00816738
O        6.84559134       3.47441350       1.81467141       26      -0.00245606       0.00960911      -0.00030869
O        3.92766055       2.44276918       4.19483343       27      -0.00396314       0.00907628      -0.00061420
O        0.74480777       4.66206452       7.48163097       28      -0.00396314      -0.00507005      -0.00755319
O        2.43804501      -0.16083095       0.31473426       29       0.00396314       0.00507005       0.00755319
O       -3.66273857       1.02682007       5.98169382       30       0.00245606      -0.00960911       0.00030869
O        5.40139101       0.85554864       2.11132223       31       0.00345904      -0.00925450      -0.00092289
O        0.99384468       1.37418719       6.00950484       32       0.00987824      -0.00017638      -0.00092289
O        3.66273856      -1.05814150       5.99977726       33      -0.00245606      -0.00453722       0.00847608
O        2.21853823      -0.00561622       3.58344835       34       0.00345904       0.00542650      -0.00755319
O        0.99384468      -2.23456008       7.49971441       35       0.00987824      -0.00071106       0.00061420
O       -0.74480777       2.05846440       3.60153180       36       0.00396314      -0.00907628       0.00061420
O       -0.99384468      -0.86037289       5.71285402       37      -0.00987824      -0.00088744      -0.00030869
O       -0.47988579       5.55937508       1.79658796       38       0.00245606       0.00453722      -0.00847608
O        4.14716732       5.35116599       5.69477058       39      -0.00345904      -0.00382800      -0.00847608
