40
Lattice="8.77270740398306 6.875815797123879e-10 3.9018948310834846e-15 -2.9242358019759473 8.270987859399945 -1.1909305543953935e-09 -2.9242358010035625 -4.135493929012388 7.162885601426981" Properties=species:S:1:pos:R:3:spacegroup_kinds:I:1:forces:R:3 spacegroup="P 1" unit_cell=conventional occupancy="_JSON {\"0\": {\"In\": 1}, \"1\": {\"In\": 1}, \"2\": {\"In\": 1}, \"3\": {\"In\": 1}, \"4\": {\"In\": 1}, \"5\": {\"In\": 1}, \"6\": {\"In\": 1}, \"7\": {\"In\": 1}, \"8\": {\"In\": 1}, \"9\": {\"In\": 1}, \"10\": {\"In\": 1}, \"11\": {\"In\": 1}, \"12\": {\"In\": 1}, \"13\": {\"In\": 1}, \"14\": {\"In\": 1}, \"15\": {\"In\": 1}, \"16\": {\"O\": 1}, \"17\": {\"O\": 1}, \"18\": {\"O\": 1}, \"19\": {\"O\": 1}, \"20\": {\"O\": 1}, \"21\": {\"O\": 1}, \"22\": {\"O\": 1}, \"23\": {\"O\": 1}, \"24\": {\"O\": 1}, \"25\": {\"O\": 1}, \"26\": {\"O\": 1}, \"27\": {\"O\": 1}, \"28\": {\"O\": 1}, \"29\": {\"O\": 1}, \"30\": {\"O\": 1}, \"31\": {\"O\": 1}, \"32\": {\"O\": 1}, \"33\": {\"O\": 1}, \"34\": {\"O\": 1}, \"35\": {\"O\": 1}, \"36\": {\"O\": 1}, \"37\": {\"O\": 1}, \"38\": {\"O\": 1}, \"39\": {\"O\": 1}}" n_minim_iter=3 energy=-45149.05590858337 stress="-0.035411491696242706 5.678189137331058e-13 -2.385709330243765e-13 5.678189137331058e-13 -0.03541149169485649 -9.631939227079426e-13 -2.385709330243765e-13 -9.631939227079426e-13 -0.03541149169529574" free_energy=-45149.05590858337 pbc="T T T"
In      -4.18565569       2.95970552       5.61796806        0      -0.00014337       0.00010138      -0.00017560
In       7.10989149       1.17578841       1.54491753        1       0.00014337      -0.00010138       0.00017560
In       1.26141989      -0.89195855       5.12636033        2       0.00014337      -0.00010138       0.00017560
In      -1.46211790      -2.06774696       3.58144280        3       0.00000000       0.00000000       0.00000000
In      -1.26141989       3.99357900       3.33563893        4      -0.00014337       0.00010138       0.00017560
In       4.58705171      -2.81779059       5.37216420        5      -0.00014337      -0.00020276       0.00000000
In      -1.26141989       1.31770334       5.37216420        6      -0.00014337      -0.00020276       0.00000000
In      -1.66281592       6.95328453       1.79072140        7       0.00014337       0.00020276      -0.00000000
In       4.18565569       0.14191493       3.82724666        8       0.00014337      -0.00010138      -0.00017560
In      -1.46211790       4.13549393      -0.00000000        9      -0.00000000      -0.00000000      -0.00000000
In       4.18565569       6.34515582       0.24580386       10       0.00014337      -0.00010138      -0.00017560
In      -1.26141989      -2.20966189       6.91708174       11      -0.00014337       0.00010138       0.00017560
In       4.18565569       2.81779060       1.79072140       12       0.00014337       0.00020276      -0.00000000
In       1.66281591       5.02745249       2.03652526       13      -0.00014337       0.00010138      -0.00017560
In       4.38635370       0.00000000      -0.00000000       14       0.00000000       0.00000000       0.00000000
In       1.46211790       2.06774697       3.58144280       15      -0.00000000       0.00000000      -0.00000000
O        0.86025749       4.13579548       3.90602708       16       0.00023146      -0.00066091      -0.00111119
O       -2.06397831       3.38256791       5.20961091       17       0.00023146      -0.00063186       0.00112796
O       -0.42282867       2.22209986       0.05671492       18      -0.00114169       0.00033910      -0.00055379
O       -0.86025749      -0.75262448       1.95275239       19      -0.00023146      -0.00129278       0.00001677
O        3.87710837       4.92086279       1.89603747       20      -0.00067288       0.00097304       0.00057057
O        1.97136322       2.88616175       1.62816811       21       0.00067288      -0.00000760       0.00112796
O        1.97136322       6.17019497       0.26786935       22       0.00067288       0.00098065      -0.00055740
O       -2.23595873       5.86118763       3.63815772       23      -0.00070027       0.00096336      -0.00055379
O        3.34706447       1.91339407       7.10617067       24       0.00114169      -0.00033910       0.00055379
O        5.16019453      -1.72569370       3.52472787       25       0.00070027      -0.00096336       0.00055379
O        6.27130027       3.22791346       1.68540533       26       0.00114169      -0.00031005      -0.00057057
O        3.61251287       2.28789017       3.84931215       27      -0.00070027      -0.00096128      -0.00055740
O        0.68827707       4.25740400       6.83830132       28      -0.00070027      -0.00000208       0.00111119
O        2.23595873      -0.12191006       0.32458428       29       0.00070027       0.00000208      -0.00111119
O       -3.34706447       0.90758047       5.47748027       30      -0.00114169       0.00031005       0.00057057
O        4.98821411       0.75292603       1.95327468       31      -0.00023146       0.00063186      -0.00112796
O        0.95287257       1.24933219       5.53471748       32      -0.00067288       0.00000760      -0.00112796
O        3.34706447      -1.00581360       5.53419519       33       0.00114169       0.00064915       0.00001677
O        2.06397831      -0.00030154       3.25685852       34      -0.00023146       0.00066091       0.00111119
O        0.95287257      -2.03470104       6.89501624       35      -0.00067288      -0.00098065       0.00055740
O       -0.68827707       1.84760377       3.31357344       36       0.00070027       0.00096128       0.00055740
O       -0.95287258      -0.78536885       5.26684813       37       0.00067288      -0.00097304      -0.00057057
O       -0.42282867       5.14130753       1.62869040       38      -0.00114169      -0.00064915      -0.00001677
O        3.78449329       4.88811841       5.21013320       39       0.00023146       0.00129278      -0.00001677
