40
Lattice="9.548558335922303 7.483872861412782e-10 8.54169082168453e-15 -3.1828527793463546 9.002467132931868 -1.2962596481437502e-09 -3.1828527782879825 -4.501233565717536 7.796365234717626" Properties=species:S:1:pos:R:3:spacegroup_kinds:I:1:forces:R:3 spacegroup="P 1" unit_cell=conventional occupancy="_JSON {\"0\": {\"In\": 1}, \"1\": {\"In\": 1}, \"2\": {\"In\": 1}, \"3\": {\"In\": 1}, \"4\": {\"In\": 1}, \"5\": {\"In\": 1}, \"6\": {\"In\": 1}, \"7\": {\"In\": 1}, \"8\": {\"In\": 1}, \"9\": {\"In\": 1}, \"10\": {\"In\": 1}, \"11\": {\"In\": 1}, \"12\": {\"In\": 1}, \"13\": {\"In\": 1}, \"14\": {\"In\": 1}, \"15\": {\"In\": 1}, \"16\": {\"O\": 1}, \"17\": {\"O\": 1}, \"18\": {\"O\": 1}, \"19\": {\"O\": 1}, \"20\": {\"O\": 1}, \"21\": {\"O\": 1}, \"22\": {\"O\": 1}, \"23\": {\"O\": 1}, \"24\": {\"O\": 1}, \"25\": {\"O\": 1}, \"26\": {\"O\": 1}, \"27\": {\"O\": 1}, \"28\": {\"O\": 1}, \"29\": {\"O\": 1}, \"30\": {\"O\": 1}, \"31\": {\"O\": 1}, \"32\": {\"O\": 1}, \"33\": {\"O\": 1}, \"34\": {\"O\": 1}, \"35\": {\"O\": 1}, \"36\": {\"O\": 1}, \"37\": {\"O\": 1}, \"38\": {\"O\": 1}, \"39\": {\"O\": 1}}" n_minim_iter=4 energy=-45146.95137677458 stress="0.011823031073246415 -4.8689392863929194e-14 -6.621516559274022e-13 -4.8689392863929194e-14 0.011823031072622942 -5.804846615577777e-13 -6.621516559274022e-13 -5.804846615577777e-13 0.011823031072413481" free_energy=-45146.95137677458 pbc="T T T"
In      -4.55815068       3.22309926       6.11197618        0       0.00042738      -0.00030220       0.00052343
In       7.74100346       1.27813431       1.68438905        1      -0.00042738       0.00030220      -0.00052343
In       1.37529790      -0.97248247       5.58257167        2      -0.00042738       0.00030220      -0.00052343
In      -1.59142639      -2.25061678       3.89818261        3       0.00000000       0.00000000       0.00000000
In      -1.37529790       4.34840765       3.63348036        4       0.00042738      -0.00030220      -0.00052343
In       4.99040765      -3.07027333       5.84727392        5       0.00042738       0.00060440       0.00000000
In      -1.37529790       1.43096023       5.84727392        6       0.00042738       0.00060440       0.00000000
In      -1.80755488       7.57150691       1.94909130        7      -0.00042738      -0.00060440       0.00000000
In       4.55815068       0.15282592       4.16288487        8      -0.00042738       0.00030220       0.00052343
In      -1.59142639       4.50123357      -0.00000000        9       0.00000000       0.00000000      -0.00000000
In       4.55815068       6.90467627       0.26470225       10      -0.00042738       0.00030220       0.00052343
In      -1.37529790      -2.40344270       7.53166298       11       0.00042738      -0.00030220      -0.00052343
In       4.55815068       3.07027334       1.94909131       12      -0.00042738      -0.00060440       0.00000000
In       1.80755487       5.47371604       2.21379356       13       0.00042738      -0.00030220       0.00052343
In       4.77427917       0.00000000      -0.00000000       14       0.00000000       0.00000000      -0.00000000
In       1.59142639       2.25061679       3.89818261       15       0.00000000      -0.00000000       0.00000000
O        0.96601961       4.51054582       4.20781588       16       0.00072650      -0.00359355       0.00465920
O       -2.21683317       3.63941932       5.68439264       17       0.00072650       0.00583176       0.00078251
O       -0.48174005       2.41252321       0.01307380       18       0.00235237       0.00468210       0.00277378
O       -0.96601961      -0.85250199       2.09584329       19      -0.00072650       0.00223821       0.00544171
O        4.17022183       5.36128373       2.08276948       20       0.00525607      -0.00063677       0.00266792
O        2.19548373       3.12752736       1.78621003       21      -0.00525607      -0.00262887       0.00078251
O        2.19548373       6.73498993       0.29655945       22      -0.00525607       0.00199211       0.00188542
O       -2.43512871       6.40186482       3.91125642       23      -0.00363020      -0.00377854       0.00277378
O        3.66459283       2.08871036       7.78329142       24      -0.00235237      -0.00468210      -0.00277378
O        5.61798149      -1.90063125       3.88510881       25       0.00363020       0.00377854      -0.00277378
O        6.84744560       3.46820064       1.81541313       26      -0.00235237       0.00474321      -0.00266792
O        3.93057684       2.43693180       4.19474207       27      -0.00363020       0.00429143       0.00188542
O        0.74772406       4.66490409       7.48673197       28      -0.00363020      -0.00051290      -0.00465920
O        2.43512871      -0.16367051       0.30963326       29       0.00363020       0.00051290       0.00465920
O       -3.66459283       1.03303293       5.98095210       30       0.00235237      -0.00474321       0.00266792
O        5.39968594       0.86181425       2.11197259       31      -0.00072650      -0.00583176      -0.00078251
O        0.98736905       1.37370621       6.01015520       32       0.00525607       0.00262887      -0.00078251
O        3.66459283      -1.05567742       5.99402591       33      -0.00235237      -0.00006112       0.00544171
O        2.21683316      -0.00931225       3.58854935       34      -0.00072650       0.00359355      -0.00465920
O        0.98736905      -2.23375636       7.49980578       35       0.00525607      -0.00199211      -0.00188542
O       -0.74772407       2.06430177       3.60162316       36       0.00363020      -0.00429143      -0.00188542
O       -0.98736905      -0.86005016       5.71359575       37      -0.00525607       0.00063677      -0.00266792
O       -0.48174005       5.55691100       1.80233932       38       0.00235237       0.00006112      -0.00544171
O        4.14887239       5.35373556       5.70052194       39       0.00072650      -0.00223821      -0.00544171
