40
Lattice="8.28429912576374 6.493052426951855e-10 1.19306211116523e-14 -2.761433042533418 7.810512118724006 -1.1246314080148657e-09 -2.7614330416151693 -3.9052560587126988 6.764101912130958" Properties=species:S:1:pos:R:3:spacegroup_kinds:I:1:forces:R:3 spacegroup="P 1" unit_cell=conventional occupancy="_JSON {\"0\": {\"In\": 1}, \"1\": {\"In\": 1}, \"2\": {\"In\": 1}, \"3\": {\"In\": 1}, \"4\": {\"In\": 1}, \"5\": {\"In\": 1}, \"6\": {\"In\": 1}, \"7\": {\"In\": 1}, \"8\": {\"In\": 1}, \"9\": {\"In\": 1}, \"10\": {\"In\": 1}, \"11\": {\"In\": 1}, \"12\": {\"In\": 1}, \"13\": {\"In\": 1}, \"14\": {\"In\": 1}, \"15\": {\"In\": 1}, \"16\": {\"O\": 1}, \"17\": {\"O\": 1}, \"18\": {\"O\": 1}, \"19\": {\"O\": 1}, \"20\": {\"O\": 1}, \"21\": {\"O\": 1}, \"22\": {\"O\": 1}, \"23\": {\"O\": 1}, \"24\": {\"O\": 1}, \"25\": {\"O\": 1}, \"26\": {\"O\": 1}, \"27\": {\"O\": 1}, \"28\": {\"O\": 1}, \"29\": {\"O\": 1}, \"30\": {\"O\": 1}, \"31\": {\"O\": 1}, \"32\": {\"O\": 1}, \"33\": {\"O\": 1}, \"34\": {\"O\": 1}, \"35\": {\"O\": 1}, \"36\": {\"O\": 1}, \"37\": {\"O\": 1}, \"38\": {\"O\": 1}, \"39\": {\"O\": 1}}" n_minim_iter=6 energy=-45145.48960997516 stress="-0.06496836242688675 5.768146505678124e-14 -6.207162828236893e-13 5.768146505678124e-14 -0.06496836242578093 -2.4567705261028407e-13 -6.207162828236893e-13 -2.4567705261028407e-13 -0.0649683624260191" free_energy=-45145.48960997516 pbc="T T T"
In      -3.96134765       2.80109579       5.29451265        0      -0.00187119       0.00132313      -0.00229173
In       6.72278069       1.10416028       1.46958926        1       0.00187119      -0.00132313       0.00229173
In       1.19991461      -0.84846775       4.85164021        2       0.00187119      -0.00132313       0.00229173
In      -1.38071652      -1.95262803       3.38205095        3      -0.00000000      -0.00000000      -0.00000000
In      -1.19991461       3.77740980       3.16061474        4      -0.00187119       0.00132313       0.00229173
In       4.32295148      -2.67324952       5.07307643        5      -0.00187119      -0.00264626       0.00000000
In      -1.19991461       1.23200654       5.07307643        6      -0.00187119      -0.00264626      -0.00000000
In      -1.56151844       6.57850559       1.69102547        7       0.00187119       0.00264626       0.00000000
In       3.96134765       0.12784626       3.60348717        8       0.00187119      -0.00132313      -0.00229173
In      -1.38071652       3.90525606      -0.00000000        9      -0.00000000      -0.00000000      -0.00000000
In       3.96134765       5.98573035       0.22143621       10       0.00187119      -0.00132313      -0.00229173
In      -1.19991461      -2.08047429       6.54266569       11      -0.00187119       0.00132313       0.00229173
In       3.96134765       2.67324953       1.69102548       12       0.00187119       0.00264626       0.00000000
In       1.56151843       4.75372382       1.91246169       13      -0.00187119       0.00132313      -0.00229173
In       4.14214956       0.00000000      -0.00000000       14       0.00000000       0.00000000      -0.00000000
In       1.38071652       1.95262803       3.38205095       15      -0.00000000      -0.00000000       0.00000000
O        0.83257390       3.90204081       3.68411205       16       0.00030360       0.00352803      -0.00214202
O       -1.92885914       3.19214226       4.92483037       17       0.00030360      -0.00361906      -0.00198435
O       -0.39783688       2.10954603       0.03584012       18       0.00001537      -0.00341526      -0.00233735
O       -0.83257391      -0.71632905       1.84484051       19      -0.00030360      -0.00009103      -0.00412638
O        3.65253362       4.64227742       1.80900039       20      -0.00351328      -0.00125844      -0.00178902
O        1.87033246       2.70712645       1.54277942       21       0.00351328       0.00092012      -0.00198435
O        1.87033246       5.84040704       0.26622097       22       0.00351328      -0.00217856       0.00019533
O       -2.12151137       5.52978628       3.41789108       23       0.00322506       0.00112392      -0.00233735
O        3.15926992       1.79571003       6.72826178       24      -0.00001537       0.00341526       0.00233735
O        4.88294441      -1.62453022       3.34621083       25      -0.00322506      -0.00112392       0.00233735
O        5.92070296       3.03843951       1.57305056       26      -0.00001537      -0.00373184       0.00178902
O        3.40135472       2.14771539       3.64827193       27       0.00322506      -0.00258617       0.00019533
O        0.63992168       4.03826651       6.46204081       28       0.00322506       0.00146224       0.00214202
O        2.12151136      -0.13301044       0.30206110       29      -0.00322506      -0.00146224      -0.00214202
O       -3.15926992       0.86681656       5.19105135       30       0.00001537       0.00373184      -0.00178902
O        4.69029218       0.71311381       1.83927154       31      -0.00030360       0.00361906       0.00198435
O        0.89110058       1.19812962       5.22132249       32      -0.00351328      -0.00092012       0.00198435
O        3.15926992      -0.92889347       5.22689147       33      -0.00001537       0.00031658      -0.00412638
O        1.92885913       0.00321525       3.07998985       34      -0.00030360      -0.00352803       0.00214202
O        0.89110058      -1.93515097       6.49788094       35      -0.00351328       0.00217856      -0.00019533
O       -0.63992168       1.75754067       3.11582998       36      -0.00322506       0.00258617      -0.00019533
O       -0.89110059      -0.73702136       4.95510152       37       0.00351328       0.00125844       0.00178902
O       -0.39783688       4.83414953       1.53721044       38       0.00001537      -0.00031658       0.00412638
O        3.59400695       4.62158512       4.91926139       39       0.00030360       0.00009103       0.00412638
