40
Lattice="8.535490051556746 6.689904422606839e-10 8.23846439050283e-15 -2.8451633511496457 8.047337194718455 -1.1587293575188528e-09 -2.845163350203556 -4.023668596690236 6.969198444218065" Properties=species:S:1:pos:R:3:spacegroup_kinds:I:1:forces:R:3 spacegroup="P 1" unit_cell=conventional occupancy="_JSON {\"0\": {\"In\": 1}, \"1\": {\"In\": 1}, \"2\": {\"In\": 1}, \"3\": {\"In\": 1}, \"4\": {\"In\": 1}, \"5\": {\"In\": 1}, \"6\": {\"In\": 1}, \"7\": {\"In\": 1}, \"8\": {\"In\": 1}, \"9\": {\"In\": 1}, \"10\": {\"In\": 1}, \"11\": {\"In\": 1}, \"12\": {\"In\": 1}, \"13\": {\"In\": 1}, \"14\": {\"In\": 1}, \"15\": {\"In\": 1}, \"16\": {\"O\": 1}, \"17\": {\"O\": 1}, \"18\": {\"O\": 1}, \"19\": {\"O\": 1}, \"20\": {\"O\": 1}, \"21\": {\"O\": 1}, \"22\": {\"O\": 1}, \"23\": {\"O\": 1}, \"24\": {\"O\": 1}, \"25\": {\"O\": 1}, \"26\": {\"O\": 1}, \"27\": {\"O\": 1}, \"28\": {\"O\": 1}, \"29\": {\"O\": 1}, \"30\": {\"O\": 1}, \"31\": {\"O\": 1}, \"32\": {\"O\": 1}, \"33\": {\"O\": 1}, \"34\": {\"O\": 1}, \"35\": {\"O\": 1}, \"36\": {\"O\": 1}, \"37\": {\"O\": 1}, \"38\": {\"O\": 1}, \"39\": {\"O\": 1}}" n_minim_iter=1 energy=-45147.090722632434 stress="-0.05556357034430312 3.9018338382948306e-13 2.309256597205193e-13 3.9018338382948306e-13 -0.055563570342778736 -4.739134838194208e-13 2.309256597205193e-13 -4.739134838194208e-13 -0.055563570342155456" free_energy=-45147.090722632434 pbc="T T T"
In      -4.07354295       2.88042984       5.46474683        0      -0.05079050       0.03591430      -0.06220540
In       6.91870629       1.14323876       1.50445161        1       0.05079050      -0.03591430       0.06220540
In       1.22837959      -0.86859554       4.98905083        2       0.05079050      -0.03591430       0.06220540
In      -1.42258168      -2.01183430       3.48459922        3      -0.00000000      -0.00000000       0.00000000
In      -1.22837960       3.88634699       3.24675122        4      -0.05079050       0.03591430       0.06220540
In       4.46194711      -2.74310823       5.22689883        5      -0.05079050      -0.07182861      -0.00000000
In      -1.22837960       1.28056037       5.22689883        6      -0.05079050      -0.07182861      -0.00000000
In      -1.61678376       6.76677683       1.74229961        7       0.05079050       0.07182861       0.00000000
In       4.07354294       0.13732161       3.72244722        8       0.05079050      -0.03591430      -0.06220540
In      -1.42258168       4.02366860      -0.00000000        9       0.00000000       0.00000000       0.00000000
In       4.07354294       6.17282451       0.23784800       10       0.05079050      -0.03591430      -0.06220540
In      -1.22837960      -2.14915590       6.73135044       11      -0.05079050       0.03591430       0.06220540
In       4.07354294       2.74310823       1.74229961       12       0.05079050       0.07182861      -0.00000000
In       1.61678375       4.89226414       1.98014761       13      -0.05079050       0.03591430      -0.06220540
In       4.26774502       0.00000000      -0.00000000       14      -0.00000000      -0.00000000      -0.00000000
In       1.42258167       2.01183430       3.48459922       15      -0.00000000      -0.00000000      -0.00000000
O        0.85829637       4.03178199       3.78929532       16       0.06767600      -0.09891258      -0.02732789
O       -1.98686698       3.27756932       5.06752437       17       0.06767600       0.02578964       0.09932475
O       -0.40968098       2.16233040       0.02997640       18      -0.04638230       0.10644103      -0.04036756
O       -0.85829637      -0.73798589       1.88762125       19      -0.06767600      -0.07312294       0.07199686
O        3.75241097       4.77896137       1.85764485       20       0.00175604       0.04981671       0.11236442
O        1.93791572       2.79254735       1.58292515       21      -0.00175604      -0.07240209       0.09932475
O        1.93791572       6.01008262       0.27471970       22      -0.00175604       0.12221880       0.01303967
O       -2.17522498       5.70097703       3.51457562       23      -0.11581434       0.00824931      -0.04036756
O        3.25484433       1.86133820       6.93922204       24       0.04638230      -0.10644103       0.04036756
O        5.02038833      -1.67730843       3.45462282       25       0.11581434      -0.00824931       0.04036756
O        6.10000768       3.11895982       1.62695436       26       0.04638230       0.01826118      -0.11236442
O        3.51510172       2.20505756       3.75931892       27      -0.11581434      -0.03908399       0.01303967
O        0.66993837       4.16497121       6.66450234       28      -0.11581434       0.03083468       0.02732789
O        2.17522497      -0.14130261       0.30469610       29       0.11581434      -0.03083468      -0.02732789
O       -3.25484433       0.90470878       5.34224408       30      -0.04638230      -0.01826118       0.11236442
O        4.83203033       0.74609929       1.90167406       31      -0.06767600      -0.02578964      -0.09932475
O        0.90724762       1.23112125       5.38627329       32       0.00175604       0.07240209      -0.09932475
O        3.25484433      -0.95662942       5.37222048       33       0.04638230       0.08817985       0.07199686
O        1.98686698      -0.00811339       3.17990312       34      -0.06767600       0.09891258       0.02732789
O        0.90724762      -1.98641402       6.69447874       35       0.00175604      -0.12221880      -0.01303967
O       -0.66993838       1.81861104       3.20987952       36       0.11581434       0.03908399      -0.01303967
O       -0.90724763      -0.75529277       5.11155359       37      -0.00175604      -0.04981671      -0.11236442
O       -0.40968098       4.98029802       1.59697796       38      -0.04638230      -0.08817985      -0.07199686
O        3.70345972       4.76165449       5.08157719       39       0.06767600       0.07312294      -0.07199686
40
Lattice="8.535490051556746 6.689904422606839e-10 8.23846439050283e-15 -2.8451633511496457 8.047337194718455 -1.1587293575188528e-09 -2.845163350203556 -4.023668596690236 6.969198444218065" Properties=species:S:1:pos:R:3:spacegroup_kinds:I:1:forces:R:3 spacegroup="P 1" unit_cell=conventional occupancy="_JSON {\"0\": {\"In\": 1}, \"1\": {\"In\": 1}, \"2\": {\"In\": 1}, \"3\": {\"In\": 1}, \"4\": {\"In\": 1}, \"5\": {\"In\": 1}, \"6\": {\"In\": 1}, \"7\": {\"In\": 1}, \"8\": {\"In\": 1}, \"9\": {\"In\": 1}, \"10\": {\"In\": 1}, \"11\": {\"In\": 1}, \"12\": {\"In\": 1}, \"13\": {\"In\": 1}, \"14\": {\"In\": 1}, \"15\": {\"In\": 1}, \"16\": {\"O\": 1}, \"17\": {\"O\": 1}, \"18\": {\"O\": 1}, \"19\": {\"O\": 1}, \"20\": {\"O\": 1}, \"21\": {\"O\": 1}, \"22\": {\"O\": 1}, \"23\": {\"O\": 1}, \"24\": {\"O\": 1}, \"25\": {\"O\": 1}, \"26\": {\"O\": 1}, \"27\": {\"O\": 1}, \"28\": {\"O\": 1}, \"29\": {\"O\": 1}, \"30\": {\"O\": 1}, \"31\": {\"O\": 1}, \"32\": {\"O\": 1}, \"33\": {\"O\": 1}, \"34\": {\"O\": 1}, \"35\": {\"O\": 1}, \"36\": {\"O\": 1}, \"37\": {\"O\": 1}, \"38\": {\"O\": 1}, \"39\": {\"O\": 1}}" n_minim_iter=2 energy=-45147.09966851836 stress="-0.05419144335242741 8.107660472784948e-13 6.238443617964336e-13 8.107660472784948e-13 -0.05419144335204995 -3.160575117438155e-14 6.238443617964336e-13 -3.160575117438155e-14 -0.054191443352849915" free_energy=-45147.09966851836 pbc="T T T"
In      -4.07555543       2.88185288       5.46228205        0      -0.00789052       0.00557944      -0.00966387
In       6.92071878       1.14181572       1.50691639        1       0.00789052      -0.00557944       0.00966387
In       1.23039208      -0.87001858       4.99151561        2       0.00789052      -0.00557944       0.00966387
In      -1.42258168      -2.01183430       3.48459922        3      -0.00000000      -0.00000000      -0.00000000
In      -1.23039208       3.88777003       3.24921600        4      -0.00789052       0.00557944       0.00966387
In       4.45993462      -2.74595431       5.22689883        5      -0.00789052      -0.01115887      -0.00000000
In      -1.23039208       1.27771428       5.22689883        6      -0.00789052      -0.01115887       0.00000000
In      -1.61477127       6.76962291       1.74229961        7       0.00789052       0.01115887      -0.00000000
In       4.07555543       0.13589857       3.71998244        8       0.00789052      -0.00557944      -0.00966387
In      -1.42258168       4.02366860      -0.00000000        9      -0.00000000       0.00000000       0.00000000
In       4.07555543       6.17140146       0.23538322       10       0.00789052      -0.00557944      -0.00966387
In      -1.23039208      -2.14773286       6.73381522       11      -0.00789052       0.00557944       0.00966387
In       4.07555543       2.74595432       1.74229961       12       0.00789052       0.01115887      -0.00000000
In       1.61477127       4.89368718       1.97768283       13      -0.00789052       0.00557944      -0.00966387
In       4.26774502       0.00000000      -0.00000000       14       0.00000000       0.00000000       0.00000000
In       1.42258167       2.01183430       3.48459922       15       0.00000000       0.00000000       0.00000000
O        0.86097791       4.02786276       3.78821250       16       0.01262148       0.02374344      -0.01999955
O       -1.98418544       3.27859119       5.07145994       17       0.01262148      -0.02919184      -0.01056264
O       -0.41151880       2.16654794       0.02837690       18      -0.00092964      -0.01960975      -0.02715931
O       -0.86097792      -0.74088326       1.89047400       19      -0.01262148      -0.00544840      -0.03056219
O        3.75248056       4.78093527       1.86209710       20      -0.03172949      -0.01023203      -0.00340289
O        1.93784614       2.78967854       1.58686072       21       0.03172949      -0.00216903      -0.01056264
O        1.93784614       6.01492533       0.27523637       22       0.03172949      -0.00806300       0.00715976
O       -2.17981392       5.70130389       3.51297612       23       0.01817837       0.00741306      -0.02715931
O        3.25668215       1.85712066       6.94082154       24       0.00092964       0.01960975       0.02715931
O        5.02497727      -1.67763529       3.45622231       25      -0.01817837      -0.00741306       0.02715931
O        6.10184550       3.11968339       1.62250212       26       0.00092964      -0.03332552       0.00340289
O        3.51051278       2.20350892       3.75983559       27       0.01817837      -0.02722718       0.00715976
O        0.66534943       4.16619298       6.66558516       28       0.01817837       0.01981412       0.01999955
O        2.17981392      -0.14252438       0.30361328       29      -0.01817837      -0.01981412      -0.01999955
O       -3.25668215       0.90398521       5.34669632       30      -0.00092964       0.03332552      -0.00340289
O        4.82934879       0.74507742       1.89773849       31      -0.01262148       0.02919184       0.01056264
O        0.90731720       1.23399006       5.38233772       32      -0.03172949       0.00216903       0.01056264
O        3.25668215      -0.95313545       5.37507322       33       0.00092964       0.01371578      -0.03056219
O        1.98418544      -0.00419415       3.18098594       34      -0.01262148      -0.02374344       0.01999955
O        0.90731721      -1.99125673       6.69396207       35      -0.03172948       0.00806300      -0.00715976
O       -0.66534944       1.82015968       3.20936284       36      -0.01817837       0.02722718      -0.00715976
O       -0.90731721      -0.75726667       5.10710134       37       0.03172949       0.01023203       0.00340289
O       -0.41151880       4.97680405       1.59412521       38      -0.00092964      -0.01371578       0.03056219
O        3.70614126       4.76455186       5.07872444       39       0.01262148       0.00544840       0.03056219
40
Lattice="8.535490051556746 6.689904422606839e-10 8.23846439050283e-15 -2.8451633511496457 8.047337194718455 -1.1587293575188528e-09 -2.845163350203556 -4.023668596690236 6.969198444218065" Properties=species:S:1:pos:R:3:spacegroup_kinds:I:1:forces:R:3 spacegroup="P 1" unit_cell=conventional occupancy="_JSON {\"0\": {\"In\": 1}, \"1\": {\"In\": 1}, \"2\": {\"In\": 1}, \"3\": {\"In\": 1}, \"4\": {\"In\": 1}, \"5\": {\"In\": 1}, \"6\": {\"In\": 1}, \"7\": {\"In\": 1}, \"8\": {\"In\": 1}, \"9\": {\"In\": 1}, \"10\": {\"In\": 1}, \"11\": {\"In\": 1}, \"12\": {\"In\": 1}, \"13\": {\"In\": 1}, \"14\": {\"In\": 1}, \"15\": {\"In\": 1}, \"16\": {\"O\": 1}, \"17\": {\"O\": 1}, \"18\": {\"O\": 1}, \"19\": {\"O\": 1}, \"20\": {\"O\": 1}, \"21\": {\"O\": 1}, \"22\": {\"O\": 1}, \"23\": {\"O\": 1}, \"24\": {\"O\": 1}, \"25\": {\"O\": 1}, \"26\": {\"O\": 1}, \"27\": {\"O\": 1}, \"28\": {\"O\": 1}, \"29\": {\"O\": 1}, \"30\": {\"O\": 1}, \"31\": {\"O\": 1}, \"32\": {\"O\": 1}, \"33\": {\"O\": 1}, \"34\": {\"O\": 1}, \"35\": {\"O\": 1}, \"36\": {\"O\": 1}, \"37\": {\"O\": 1}, \"38\": {\"O\": 1}, \"39\": {\"O\": 1}}" n_minim_iter=3 energy=-45147.10016779398 stress="-0.054258104212031005 -1.6679411264701544e-13 -2.758406336259251e-13 -1.6679411264701544e-13 -0.05425810421163792 -8.532921982283096e-14 -2.758406336259251e-13 -8.532921982283096e-14 -0.05425810421252479" free_energy=-45147.10016779398 pbc="T T T"
In      -4.07588103       2.88208312       5.46188328        0       0.00199766      -0.00141256       0.00244662
In       6.92104438       1.14158548       1.50731516        1      -0.00199766       0.00141256      -0.00244662
In       1.23071768      -0.87024881       4.99191439        2      -0.00199766       0.00141256      -0.00244662
In      -1.42258168      -2.01183430       3.48459922        3       0.00000000       0.00000000       0.00000000
In      -1.23071768       3.88800027       3.24961477        4       0.00199766      -0.00141256      -0.00244662
In       4.45960902      -2.74641478       5.22689883        5       0.00199766       0.00282511      -0.00000000
In      -1.23071768       1.27725382       5.22689883        6       0.00199766       0.00282511      -0.00000000
In      -1.61444567       6.77008338       1.74229961        7      -0.00199766      -0.00282511       0.00000000
In       4.07588103       0.13566834       3.71958367        8      -0.00199766       0.00141256       0.00244662
In      -1.42258168       4.02366860      -0.00000000        9      -0.00000000      -0.00000000       0.00000000
In       4.07588103       6.17117123       0.23498444       10      -0.00199766       0.00141256       0.00244662
In      -1.23071768      -2.14750263       6.73421400       11       0.00199766      -0.00141256      -0.00244662
In       4.07588103       2.74641478       1.74229961       12      -0.00199766      -0.00282511      -0.00000000
In       1.61444567       4.89391742       1.97728405       13       0.00199766      -0.00141256       0.00244662
In       4.26774502       0.00000000      -0.00000000       14       0.00000000      -0.00000000      -0.00000000
In       1.42258167       2.01183430       3.48459922       15      -0.00000000      -0.00000000       0.00000000
O        0.86148457       4.02857973       3.78749308       16       0.00738000      -0.00230230       0.00171446
O       -1.98367878       3.27760967       5.07119874       17       0.00738000       0.00263592       0.00113662
O       -0.41159933       2.16598163       0.02739654       18       0.00277453       0.00589247      -0.00450389
O       -0.86148457      -0.74114780       1.88949338       19      -0.00738000       0.00033362       0.00285108
O        3.75138628       4.78063381       1.86209684       20       0.00002517      -0.00293394       0.00735498
O        1.93894041       2.78952803       1.58659952       21      -0.00002517      -0.00783657       0.00113662
O        1.93894041       6.01477437       0.27549732       22      -0.00002517       0.00490263       0.00621835
O       -2.17930684       5.70156859       3.51199576       23      -0.00463063      -0.00458001      -0.00450389
O        3.25676268       1.85768697       6.94180190       24      -0.00277453      -0.00589247       0.00450389
O        5.02447019      -1.67789999       3.45720268       25       0.00463063       0.00458001       0.00450389
O        6.10192603       3.11855121       1.62250238       26      -0.00277453      -0.00095425      -0.00735498
O        3.51101986       2.20252755       3.76009654       27      -0.00463063      -0.00161048       0.00621835
O        0.66585651       4.16690965       6.66630458       28      -0.00463063       0.00619049      -0.00171446
O        2.17930684      -0.14324105       0.30289386       29       0.00463063      -0.00619049       0.00171446
O       -3.25676268       0.90511739       5.34669606       30       0.00277453       0.00095425       0.00735498
O        4.82884213       0.74605894       1.89799970       31      -0.00738000      -0.00263592      -0.00113662
O        0.90622293       1.23414057       5.38259892       32       0.00002517       0.00783657      -0.00113662
O        3.25676268      -0.95256958       5.37409260       33      -0.00277453       0.00684672       0.00285108
O        1.98367878      -0.00491112       3.18170536       34      -0.00738000       0.00230230      -0.00171446
O        0.90622293      -1.99110577       6.69370112       35       0.00002517      -0.00490263      -0.00621835
O       -0.66585652       1.82114105       3.20910190       36       0.00463063       0.00161048      -0.00621835
O       -0.90622294      -0.75696520       5.10710160       37      -0.00002517       0.00293394      -0.00735498
O       -0.41159933       4.97623818       1.59510584       38       0.00277453      -0.00684672      -0.00285108
O        3.70664792       4.76481641       5.07970506       39       0.00738000      -0.00033362      -0.00285108
