40
Lattice="9.416837258504387 7.380605774830362e-10 5.081233830030383e-15 -3.1389457535306473 8.878279310178765 -1.2783744915629354e-09 -3.1389457524868734 -4.43913965435131 7.688815425360837" Properties=species:S:1:pos:R:3:spacegroup_kinds:I:1:forces:R:3 spacegroup="P 1" unit_cell=conventional occupancy="_JSON {\"0\": {\"In\": 1}, \"1\": {\"In\": 1}, \"2\": {\"In\": 1}, \"3\": {\"In\": 1}, \"4\": {\"In\": 1}, \"5\": {\"In\": 1}, \"6\": {\"In\": 1}, \"7\": {\"In\": 1}, \"8\": {\"In\": 1}, \"9\": {\"In\": 1}, \"10\": {\"In\": 1}, \"11\": {\"In\": 1}, \"12\": {\"In\": 1}, \"13\": {\"In\": 1}, \"14\": {\"In\": 1}, \"15\": {\"In\": 1}, \"16\": {\"O\": 1}, \"17\": {\"O\": 1}, \"18\": {\"O\": 1}, \"19\": {\"O\": 1}, \"20\": {\"O\": 1}, \"21\": {\"O\": 1}, \"22\": {\"O\": 1}, \"23\": {\"O\": 1}, \"24\": {\"O\": 1}, \"25\": {\"O\": 1}, \"26\": {\"O\": 1}, \"27\": {\"O\": 1}, \"28\": {\"O\": 1}, \"29\": {\"O\": 1}, \"30\": {\"O\": 1}, \"31\": {\"O\": 1}, \"32\": {\"O\": 1}, \"33\": {\"O\": 1}, \"34\": {\"O\": 1}, \"35\": {\"O\": 1}, \"36\": {\"O\": 1}, \"37\": {\"O\": 1}, \"38\": {\"O\": 1}, \"39\": {\"O\": 1}}" n_minim_iter=1 energy=-45147.41630403738 stress="0.021364872748632836 -3.8307111838442817e-13 -5.010353832183967e-13 -3.8307111838442817e-13 0.0213648727489092 4.521273365814898e-13 -5.010353832183967e-13 4.521273365814898e-13 0.021364872748379882" free_energy=-45147.41630403738 pbc="T T T"
In      -4.48191998       3.16919601       6.04401463        0      -0.02156852       0.01525125      -0.02641593
In       7.62086573       1.26994365       1.64480079        1       0.02156852      -0.01525125       0.02641593
In       1.34297422      -0.94962618       5.48920850        2       0.02156852      -0.01525125       0.02641593
In      -1.56947288      -2.21956983       3.84440771        3      -0.00000000       0.00000000      -0.00000000
In      -1.34297423       4.27898092       3.56700465        4      -0.02156852       0.01525125       0.02641593
In       4.93491728      -3.00903727       5.76661157        5      -0.02156852      -0.03050249       0.00000000
In      -1.34297423       1.43010238       5.76661157        6      -0.02156852      -0.03050249       0.00000000
In      -1.79597153       7.44817693       1.92220385        7       0.02156852       0.03050249       0.00000000
In       4.48191997       0.16015874       4.12181077        8       0.02156852      -0.01525125      -0.02641593
In      -1.56947288       4.43913966      -0.00000000        9       0.00000000      -0.00000000       0.00000000
In       4.48191997       6.81886822       0.27740306       10       0.02156852      -0.01525125      -0.02641593
In      -1.34297423      -2.37972856       7.41141236       11      -0.02156852       0.01525125       0.02641593
In       4.48191997       3.00903728       1.92220385       12       0.02156852       0.03050249       0.00000000
In       1.79597153       5.38876584       2.19960692       13      -0.02156852       0.01525125      -0.02641593
In       4.70841863       0.00000000      -0.00000000       14      -0.00000000       0.00000000      -0.00000000
In       1.56947287       2.21956983       3.84440771       15      -0.00000000      -0.00000000       0.00000000
O        0.95072491       4.44294006       4.16637666       16       0.00039120       0.00406942      -0.09877833
O       -2.18822084       3.60628783       5.60233584       17       0.00039120      -0.08757925       0.04586494
O       -0.46472887       2.38759497       0.02435837       18      -0.07860342      -0.03172162      -0.05088332
O       -0.95072492      -0.82905142       2.07989708       19      -0.00039120      -0.08350983      -0.05291339
O        4.12944772       5.28225439       2.05553871       20      -0.08270091       0.05413233      -0.00203007
O        2.14844378       3.08054828       1.75792813       21       0.08270091       0.02882426       0.04586494
O        2.14844378       6.64084577       0.29761058       22       0.08270091       0.02530807      -0.04789501
O       -2.40595575       6.30099507       3.86876608       23       0.00370629       0.08468189      -0.05088332
O        3.60367462       2.05154469       7.66445705       24       0.07860342       0.03172162       0.05088332
O        5.54490150      -1.86185541       3.82004934       25      -0.00370629      -0.08468189       0.05088332
O        6.74262037       3.43446228       1.78886900       26       0.07860342      -0.05992706       0.00203007
O        3.87193576       2.41952200       4.14201829       27       0.00370629      -0.08640719      -0.04789501
O        0.73299000       4.59690190       7.36684647       28       0.00370629       0.00172530       0.09877833
O        2.40595575      -0.15776224       0.32196895       29      -0.00370629      -0.00172530      -0.09877833
O       -3.60367462       1.00467738       5.89994642       30      -0.07860342       0.05992706      -0.00203007
O        5.32716659       0.83285183       2.08647958       31      -0.00039120       0.08757925      -0.04586494
O        0.99050196       1.35859138       5.93088729       32      -0.08270091      -0.02882426      -0.04586494
O        3.60367462      -1.04686731       5.92430479       33       0.07860342       0.02820543      -0.05291339
O        2.18822084      -0.00380040       3.52243876       34      -0.00039120      -0.00406942       0.09877833
O        0.99050196      -2.20170611       7.39120484       35      -0.08270091      -0.02530807       0.04789501
O       -0.73299001       2.01961766       3.54679713       36      -0.00370629       0.08640719       0.04789501
O       -0.99050197      -0.84311473       5.63327671       37       0.08270091      -0.05413233       0.00203007
O       -0.46472887       5.48600697       1.76451063       38      -0.07860342      -0.02820543       0.05291339
O        4.08967066       5.26819108       5.60891834       39       0.00039120       0.08350983       0.05291339
40
Lattice="9.416837258504387 7.380605774830366e-10 5.08123383003038e-15 -3.138945753530649 8.878279310178765 -1.2783744915629354e-09 -3.138945752486875 -4.43913965435131 7.68881542536084" Properties=species:S:1:pos:R:3:spacegroup_kinds:I:1:forces:R:3 spacegroup="P 1" unit_cell=conventional occupancy="_JSON {\"0\": {\"In\": 1}, \"1\": {\"In\": 1}, \"2\": {\"In\": 1}, \"3\": {\"In\": 1}, \"4\": {\"In\": 1}, \"5\": {\"In\": 1}, \"6\": {\"In\": 1}, \"7\": {\"In\": 1}, \"8\": {\"In\": 1}, \"9\": {\"In\": 1}, \"10\": {\"In\": 1}, \"11\": {\"In\": 1}, \"12\": {\"In\": 1}, \"13\": {\"In\": 1}, \"14\": {\"In\": 1}, \"15\": {\"In\": 1}, \"16\": {\"O\": 1}, \"17\": {\"O\": 1}, \"18\": {\"O\": 1}, \"19\": {\"O\": 1}, \"20\": {\"O\": 1}, \"21\": {\"O\": 1}, \"22\": {\"O\": 1}, \"23\": {\"O\": 1}, \"24\": {\"O\": 1}, \"25\": {\"O\": 1}, \"26\": {\"O\": 1}, \"27\": {\"O\": 1}, \"28\": {\"O\": 1}, \"29\": {\"O\": 1}, \"30\": {\"O\": 1}, \"31\": {\"O\": 1}, \"32\": {\"O\": 1}, \"33\": {\"O\": 1}, \"34\": {\"O\": 1}, \"35\": {\"O\": 1}, \"36\": {\"O\": 1}, \"37\": {\"O\": 1}, \"38\": {\"O\": 1}, \"39\": {\"O\": 1}}" n_minim_iter=2 energy=-45147.42620451913 stress="0.0208599430173751 -4.048494327713178e-13 -3.7706672263160374e-13 -4.048494327713178e-13 0.02085994301786004 -4.885444723679462e-13 -3.7706672263160374e-13 -4.885444723679462e-13 0.020859943017002065" free_energy=-45147.42620451913 pbc="T T T"
In      -4.48346059       3.17028538       6.04212778        0      -0.01061831       0.00750828      -0.01300472
In       7.62240634       1.26885427       1.64668764        1       0.01061831      -0.00750828       0.01300472
In       1.34451483      -0.95071555       5.49109536        2       0.01061831      -0.00750828       0.01300472
In      -1.56947288      -2.21956983       3.84440771        3      -0.00000000      -0.00000000      -0.00000000
In      -1.34451483       4.28007030       3.56889150        4      -0.01061831       0.00750828       0.01300472
In       4.93337667      -3.01121602       5.76661157        5      -0.01061831      -0.01501656       0.00000000
In      -1.34451483       1.42792363       5.76661157        6      -0.01061831      -0.01501656       0.00000000
In      -1.79443092       7.45035568       1.92220385        7       0.01061831       0.01501656      -0.00000000
In       4.48346058       0.15906936       4.11992392        8       0.01061831      -0.00750828      -0.01300472
In      -1.56947288       4.43913966      -0.00000000        9       0.00000000       0.00000000      -0.00000000
In       4.48346058       6.81777884       0.27551621       10       0.01061831      -0.00750828      -0.01300472
In      -1.34451483      -2.37863918       7.41329921       11      -0.01061831       0.00750828       0.01300472
In       4.48346058       3.01121603       1.92220385       12       0.01061831       0.01501656      -0.00000000
In       1.79443092       5.38985521       2.19772006       13      -0.01061831       0.00750828      -0.01300472
In       4.70841863       0.00000000      -0.00000000       14       0.00000000       0.00000000       0.00000000
In       1.56947287       2.21956983       3.84440771       15       0.00000000      -0.00000000      -0.00000000
O        0.95075285       4.44323074       4.15932107       16       0.00441794      -0.00200040      -0.00622674
O       -2.18819290       3.60003217       5.60561191       17       0.00441794      -0.00439231       0.00484576
O       -0.47034340       2.38532914       0.02072384       18      -0.00455446       0.00195213      -0.00614314
O       -0.95075286      -0.83501640       2.07611755       19      -0.00441794      -0.00639271      -0.00138097
O        4.12354051       5.28612098       2.05539370       20      -0.00561376       0.00284597       0.00476216
O        2.15435099       3.08260715       1.76120419       21       0.00561376      -0.00270117       0.00484576
O        2.15435099       6.64265349       0.29418951       22       0.00561376       0.00554714      -0.00008360
O       -2.40569102       6.30704378       3.86513156       23      -0.00335864       0.00364328      -0.00614314
O        3.60928915       2.05381052       7.66809157       24       0.00455446      -0.00195213       0.00614314
O        5.54463676      -1.86790412       3.82368386       25       0.00335864      -0.00364328       0.00614314
O        6.74823490       3.43018178       1.78901400       26       0.00455446      -0.00434405      -0.00476216
O        3.87220049       2.41335006       4.13859722       27      -0.00335864      -0.00714175      -0.00008360
O        0.73325474       4.59702513       7.37390206       28      -0.00335864       0.00349848       0.00622674
O        2.40569101      -0.15788547       0.31491336       29       0.00335864      -0.00349848      -0.00622674
O       -3.60928915       1.00895788       5.89980142       30      -0.00455446       0.00434405       0.00476216
O        5.32713865       0.83910749       2.08320351       31      -0.00441794       0.00439231      -0.00484576
O        0.98459476       1.35653251       5.92761122       32      -0.00561376       0.00270117      -0.00484576
O        3.60928915      -1.04485263       5.92052527       33       0.00455446       0.00629618      -0.00138097
O        2.18819289      -0.00409108       3.52949435       34      -0.00441794       0.00200040       0.00622674
O        0.98459476      -2.20351383       7.39462591       35      -0.00561376      -0.00554714       0.00008360
O       -0.73325474       2.02578960       3.55021820       36       0.00335864       0.00714175       0.00008360
O       -0.98459476      -0.84698132       5.63342171       37       0.00561376      -0.00284597      -0.00476216
O       -0.47034340       5.48399229       1.76829015       38      -0.00455446      -0.00629618       0.00138097
O        4.08969861       5.27415606       5.61269787       39       0.00441794       0.00639271       0.00138097
40
Lattice="9.416837258504389 7.380605774830367e-10 5.08123383003038e-15 -3.1389457535306504 8.878279310178765 -1.2783744915629354e-09 -3.1389457524868765 -4.43913965435131 7.688815425360841" Properties=species:S:1:pos:R:3:spacegroup_kinds:I:1:forces:R:3 spacegroup="P 1" unit_cell=conventional occupancy="_JSON {\"0\": {\"In\": 1}, \"1\": {\"In\": 1}, \"2\": {\"In\": 1}, \"3\": {\"In\": 1}, \"4\": {\"In\": 1}, \"5\": {\"In\": 1}, \"6\": {\"In\": 1}, \"7\": {\"In\": 1}, \"8\": {\"In\": 1}, \"9\": {\"In\": 1}, \"10\": {\"In\": 1}, \"11\": {\"In\": 1}, \"12\": {\"In\": 1}, \"13\": {\"In\": 1}, \"14\": {\"In\": 1}, \"15\": {\"In\": 1}, \"16\": {\"O\": 1}, \"17\": {\"O\": 1}, \"18\": {\"O\": 1}, \"19\": {\"O\": 1}, \"20\": {\"O\": 1}, \"21\": {\"O\": 1}, \"22\": {\"O\": 1}, \"23\": {\"O\": 1}, \"24\": {\"O\": 1}, \"25\": {\"O\": 1}, \"26\": {\"O\": 1}, \"27\": {\"O\": 1}, \"28\": {\"O\": 1}, \"29\": {\"O\": 1}, \"30\": {\"O\": 1}, \"31\": {\"O\": 1}, \"32\": {\"O\": 1}, \"33\": {\"O\": 1}, \"34\": {\"O\": 1}, \"35\": {\"O\": 1}, \"36\": {\"O\": 1}, \"37\": {\"O\": 1}, \"38\": {\"O\": 1}, \"39\": {\"O\": 1}}" n_minim_iter=3 energy=-45147.42634131911 stress="0.020801552001039923 -2.8850200131683087e-13 2.739145988564313e-13 -2.8850200131683087e-13 0.020801552002537284 2.7839670903877256e-13 2.739145988564313e-13 2.7839670903877256e-13 0.020801552002517397" free_energy=-45147.42634131911 pbc="T T T"
In      -4.48375589       3.17049419       6.04176611        0      -0.00819038       0.00579147      -0.01003113
In       7.62270164       1.26864547       1.64704931        1       0.00819038      -0.00579147       0.01003113
In       1.34481013      -0.95092436       5.49145702        2       0.00819038      -0.00579147       0.01003113
In      -1.56947288      -2.21956983       3.84440771        3      -0.00000000       0.00000000      -0.00000000
In      -1.34481013       4.28027911       3.56925316        4      -0.00819038       0.00579147       0.01003113
In       4.93308137      -3.01163364       5.76661157        5      -0.00819038      -0.01158295       0.00000000
In      -1.34481013       1.42750602       5.76661157        6      -0.00819038      -0.01158295       0.00000000
In      -1.79413562       7.45077330       1.92220385        7       0.00819038       0.01158295      -0.00000000
In       4.48375588       0.15886055       4.11956225        8       0.00819038      -0.00579147      -0.01003113
In      -1.56947288       4.43913966      -0.00000000        9       0.00000000      -0.00000000      -0.00000000
In       4.48375588       6.81757004       0.27515454       10       0.00819038      -0.00579147      -0.01003113
In      -1.34481013      -2.37843038       7.41366088       11      -0.00819038       0.00579147       0.01003113
In       4.48375588       3.01163364       1.92220385       12       0.00819038       0.01158295      -0.00000000
In       1.79413562       5.39006402       2.19735840       13      -0.00819038       0.00579147      -0.01003113
In       4.70841863       0.00000000      -0.00000000       14      -0.00000000      -0.00000000      -0.00000000
In       1.56947287       2.21956983       3.84440771       15       0.00000000       0.00000000       0.00000000
O        0.95082461       4.44322353       4.15863501       16       0.00420820      -0.00205346       0.00269695
O       -2.18812114       3.59944163       5.60596117       17       0.00420820       0.00336236       0.00042988
O       -0.47088304       2.38517092       0.02032431       18       0.00263677       0.00447352      -0.00149472
O       -0.95082461      -0.83561415       2.07578076       19      -0.00420820       0.00130890       0.00312683
O        4.12295982       5.28648805       2.05545645       20       0.00176733      -0.00217187       0.00462155
O        2.15493168       3.08273635       1.76155346       21      -0.00176733      -0.00508831       0.00042988
O        2.15493168       6.64289136       0.29390299       22      -0.00176733       0.00291644       0.00419167
O       -2.40572172       6.30760530       3.86473202       23      -0.00333876      -0.00397715      -0.00149472
O        3.60982879       2.05396874       7.66849111       24      -0.00263677      -0.00447352       0.00149472
O        5.54466747      -1.86846564       3.82408340       25       0.00333876       0.00397715       0.00149472
O        6.74877454       3.42975666       1.78895125       26      -0.00263677       0.00094230      -0.00462155
O        3.87216978       2.41272329       4.13831070       27      -0.00333876       0.00069411       0.00419167
O        0.73322403       4.59709038       7.37458812       28      -0.00333876       0.00328304      -0.00269695
O        2.40572172      -0.15795072       0.31422730       29       0.00333876      -0.00328304       0.00269695
O       -3.60982879       1.00938300       5.89986416       30       0.00263677      -0.00094230       0.00462155
O        5.32706689       0.83969803       2.08285425       31      -0.00420820      -0.00336236      -0.00042988
O        0.98401407       1.35640331       5.92726196       32       0.00176733       0.00508831      -0.00042988
O        3.60982879      -1.04458573       5.92018848       33      -0.00263677       0.00353123       0.00312683
O        2.18812114      -0.00408388       3.53018041       34      -0.00420820       0.00205346      -0.00269695
O        0.98401407      -2.20375170       7.39491243       35       0.00176733      -0.00291644      -0.00419167
O       -0.73322403       2.02641637       3.55050472       36       0.00333876      -0.00069411      -0.00419167
O       -0.98401407      -0.84734839       5.63335897       37      -0.00176733       0.00217187      -0.00462155
O       -0.47088304       5.48372539       1.76862694       38       0.00263677      -0.00353123      -0.00312683
O        4.08977036       5.27475381       5.61303466       39       0.00420820      -0.00130890      -0.00312683
40
Lattice="9.416837258504396 7.380605774830372e-10 5.081233830030389e-15 -3.138945753530653 8.878279310178774 -1.2783744915629366e-09 -3.138945752486879 -4.439139654351314 7.688815425360847" Properties=species:S:1:pos:R:3:spacegroup_kinds:I:1:forces:R:3 spacegroup="P 1" unit_cell=conventional occupancy="_JSON {\"0\": {\"In\": 1}, \"1\": {\"In\": 1}, \"2\": {\"In\": 1}, \"3\": {\"In\": 1}, \"4\": {\"In\": 1}, \"5\": {\"In\": 1}, \"6\": {\"In\": 1}, \"7\": {\"In\": 1}, \"8\": {\"In\": 1}, \"9\": {\"In\": 1}, \"10\": {\"In\": 1}, \"11\": {\"In\": 1}, \"12\": {\"In\": 1}, \"13\": {\"In\": 1}, \"14\": {\"In\": 1}, \"15\": {\"In\": 1}, \"16\": {\"O\": 1}, \"17\": {\"O\": 1}, \"18\": {\"O\": 1}, \"19\": {\"O\": 1}, \"20\": {\"O\": 1}, \"21\": {\"O\": 1}, \"22\": {\"O\": 1}, \"23\": {\"O\": 1}, \"24\": {\"O\": 1}, \"25\": {\"O\": 1}, \"26\": {\"O\": 1}, \"27\": {\"O\": 1}, \"28\": {\"O\": 1}, \"29\": {\"O\": 1}, \"30\": {\"O\": 1}, \"31\": {\"O\": 1}, \"32\": {\"O\": 1}, \"33\": {\"O\": 1}, \"34\": {\"O\": 1}, \"35\": {\"O\": 1}, \"36\": {\"O\": 1}, \"37\": {\"O\": 1}, \"38\": {\"O\": 1}, \"39\": {\"O\": 1}}" n_minim_iter=4 energy=-45147.426440331365 stress="0.020731140748321518 -6.489193070674824e-13 4.4281120385294307e-13 -6.489193070674824e-13 0.020731140747642707 5.2918621345518444e-14 4.4281120385294307e-13 5.2918621345518444e-14 0.020731140747826317" free_energy=-45147.426440331365 pbc="T T T"
In      -4.48440321       3.17095192       6.04097330        0      -0.00237631       0.00168031      -0.00291038
In       7.62334896       1.26818774       1.64784212        1       0.00237631      -0.00168031       0.00291038
In       1.34545746      -0.95138209       5.49224983        2       0.00237631      -0.00168031       0.00291038
In      -1.56947288      -2.21956983       3.84440771        3      -0.00000000      -0.00000000      -0.00000000
In      -1.34545746       4.28073684       3.57004598        4      -0.00237631       0.00168031       0.00291038
In       4.93243405      -3.01254910       5.76661157        5      -0.00237631      -0.00336062       0.00000000
In      -1.34545746       1.42659056       5.76661157        6      -0.00237631      -0.00336062       0.00000000
In      -1.79348830       7.45168876       1.92220385        7       0.00237631       0.00336062      -0.00000000
In       4.48440321       0.15840282       4.11876944        8       0.00237631      -0.00168031      -0.00291038
In      -1.56947288       4.43913966      -0.00000000        9      -0.00000000       0.00000000      -0.00000000
In       4.48440321       6.81711231       0.27436173       10       0.00237631      -0.00168031      -0.00291038
In      -1.34545746      -2.37797265       7.41445369       11      -0.00237631       0.00168031       0.00291038
In       4.48440321       3.01254910       1.92220385       12       0.00237631       0.00336062       0.00000000
In       1.79348829       5.39052175       2.19656559       13      -0.00237631       0.00168031      -0.00291038
In       4.70841863       0.00000000      -0.00000000       14       0.00000000      -0.00000000      -0.00000000
In       1.56947287       2.21956983       3.84440771       15       0.00000000       0.00000000      -0.00000000
O        0.95109507       4.44311349       4.15823885       16       0.00209550      -0.00040403       0.00735362
O       -2.18785068       3.59915357       5.60625455       17       0.00209550       0.00657044      -0.00332692
O       -0.47116822       2.38527576       0.01993717       18       0.00651225       0.00344732       0.00208248
O       -0.95109507      -0.83601225       2.07567799       19      -0.00209550       0.00616641       0.00402671
O        4.12259809       5.28666264       2.05574082       20       0.00549617      -0.00496409       0.00194423
O        2.15529342       3.08257738       1.76184684       21      -0.00549617      -0.00416580      -0.00332692
O        2.15529342       6.64322492       0.29389397       22      -0.00549617      -0.00079829       0.00527115
O       -2.40591563       6.30783922       3.86434488       23      -0.00107942      -0.00728891       0.00208248
O        3.61011397       2.05386390       7.66887825       24      -0.00651225      -0.00344732      -0.00208248
O        5.54486138      -1.86869956       3.82447054       25       0.00107942       0.00728891      -0.00208248
O        6.74905972       3.42947381       1.78866689       26      -0.00651225       0.00352714      -0.00194423
O        3.87197588       2.41227106       4.13830168       27      -0.00107942       0.00544793       0.00527115
O        0.73303012       4.59730869       7.37498428       28      -0.00107942       0.00184098      -0.00735362
O        2.40591563      -0.15816903       0.31383114       29       0.00107942      -0.00184098       0.00735362
O       -3.61011397       1.00966585       5.90014853       30       0.00651225      -0.00352714       0.00194423
O        5.32679643       0.83998609       2.08256087       31      -0.00209550      -0.00657044       0.00332691
O        0.98365233       1.35656228       5.92696858       32       0.00549617       0.00416580       0.00332692
O        3.61011397      -1.04419804       5.92008570       33      -0.00651225      -0.00007982       0.00402671
O        2.18785068      -0.00397383       3.53057656       34      -0.00209550       0.00040403      -0.00735362
O        0.98365233      -2.20408526       7.39492145       35       0.00549617       0.00079829      -0.00527115
O       -0.73303013       2.02686860       3.55051373       36       0.00107942      -0.00544793      -0.00527115
O       -0.98365234      -0.84752298       5.63307460       37      -0.00549617       0.00496409      -0.00194423
O       -0.47116822       5.48333770       1.76872972       38       0.00651225       0.00007982      -0.00402671
O        4.09004082       5.27515191       5.61313743       39       0.00209550      -0.00616641      -0.00402671
