40
Lattice="8.10798364430398 6.354849220068134e-10 2.6418213650112003e-14 -2.7026612153671374 7.644280288637458 -1.1006944193996707e-09 -2.702661214468444 -3.8221401436832494 6.620140924342463" Properties=species:S:1:pos:R:3:spacegroup_kinds:I:1:forces:R:3 spacegroup="P 1" unit_cell=conventional occupancy="_JSON {\"0\": {\"In\": 1}, \"1\": {\"In\": 1}, \"2\": {\"In\": 1}, \"3\": {\"In\": 1}, \"4\": {\"In\": 1}, \"5\": {\"In\": 1}, \"6\": {\"In\": 1}, \"7\": {\"In\": 1}, \"8\": {\"In\": 1}, \"9\": {\"In\": 1}, \"10\": {\"In\": 1}, \"11\": {\"In\": 1}, \"12\": {\"In\": 1}, \"13\": {\"In\": 1}, \"14\": {\"In\": 1}, \"15\": {\"In\": 1}, \"16\": {\"O\": 1}, \"17\": {\"O\": 1}, \"18\": {\"O\": 1}, \"19\": {\"O\": 1}, \"20\": {\"O\": 1}, \"21\": {\"O\": 1}, \"22\": {\"O\": 1}, \"23\": {\"O\": 1}, \"24\": {\"O\": 1}, \"25\": {\"O\": 1}, \"26\": {\"O\": 1}, \"27\": {\"O\": 1}, \"28\": {\"O\": 1}, \"29\": {\"O\": 1}, \"30\": {\"O\": 1}, \"31\": {\"O\": 1}, \"32\": {\"O\": 1}, \"33\": {\"O\": 1}, \"34\": {\"O\": 1}, \"35\": {\"O\": 1}, \"36\": {\"O\": 1}, \"37\": {\"O\": 1}, \"38\": {\"O\": 1}, \"39\": {\"O\": 1}}" n_minim_iter=7 energy=-45141.45336736134 stress="-0.1625534022913557 5.227839310750813e-13 5.393671554944318e-13 5.227839310750813e-13 -0.1625534022913302 1.1925808199447865e-13 5.393671554944318e-13 1.1925808199447865e-13 -0.16255340229150095" free_energy=-45141.45336736134 pbc="T T T"
In      -3.88619279       2.74795327       5.17061670        0      -0.00424810       0.00300386      -0.00520284
In       6.58885400       1.07418687       1.44952422        1       0.00424810      -0.00300386       0.00520284
In       1.18353157      -0.83688320       4.75959468        2       0.00424810      -0.00300386       0.00520284
In      -1.35133061      -1.91107007       3.31007046        3      -0.00000000      -0.00000000      -0.00000000
In      -1.18353157       3.70348831       3.10455945        4      -0.00424810       0.00300386       0.00520284
In       4.22179086      -2.62930143       4.96510569        5      -0.00424810      -0.00600773      -0.00000000
In      -1.18353157       1.19283871       4.96510569        6      -0.00424810      -0.00600773      -0.00000000
In      -1.51912964       6.45144158       1.65503523        7       0.00424810       0.00600773       0.00000000
In       3.88619279       0.11865184       3.51558147        8       0.00424810      -0.00300386      -0.00520284
In      -1.35133061       3.82214015      -0.00000000        9      -0.00000000       0.00000000       0.00000000
In       3.88619278       5.85186205       0.20551101       10       0.00424810      -0.00300386      -0.00520284
In      -1.18353157      -2.02972191       6.41462991       11      -0.00424810       0.00300386       0.00520284
In       3.88619278       2.62930144       1.65503523       12       0.00424810       0.00600773      -0.00000000
In       1.51912964       4.65902335       1.86054624       13      -0.00424810       0.00300386      -0.00520284
In       4.05399182       0.00000000      -0.00000000       14       0.00000000      -0.00000000       0.00000000
In       1.35133061       1.91107007       3.31007046       15       0.00000000       0.00000000      -0.00000000
O        0.74405489       3.80955080       3.63049664       16       0.00229021      -0.00245961       0.00277545
O       -1.95860632       3.15039700       4.81579529       17       0.00229021       0.00363342       0.00074236
O       -0.39717657       2.04629943       0.10800745       18       0.00187008       0.00393049       0.00022781
O       -0.74405490      -0.68433249       1.82615102       19      -0.00229021       0.00117381       0.00351781
O        3.62309154       4.56883078       1.71814356       20       0.00266222      -0.00104228       0.00329000
O        1.78223088       2.70752949       1.50572483       21      -0.00266222      -0.00337037       0.00074236
O        1.78223088       5.68344143       0.21241872       22      -0.00266222       0.00232809       0.00254764
O       -2.06166179       5.42557207       3.41807791       23      -0.00308235      -0.00307329       0.00022781
O        3.09983778       1.77584072       6.51213347       24      -0.00187008      -0.00393049      -0.00022781
O        4.76432301      -1.60343192       3.20206300       25       0.00308235       0.00307329      -0.00022781
O        5.80249899       3.02775699       1.59192690       26      -0.00187008       0.00216253      -0.00329000
O        3.34366064       2.15842635       3.52248919       27      -0.00308235       0.00173393       0.00254764
O        0.64099942       3.88242202       6.29971474       28      -0.00308235       0.00133936      -0.00277545
O        2.06166179      -0.06028187       0.32042618       29       0.00308235      -0.00133936       0.00277545
O       -3.09983778       0.79438316       5.02821402       30       0.00187008      -0.00216253       0.00329000
O        4.66126753       0.67174315       1.80434562       31      -0.00229021      -0.00363342      -0.00074236
O        0.92043033       1.11461066       5.11441609       32       0.00266222       0.00337037      -0.00074236
O        3.09983778      -0.98145756       5.13622148       33      -0.00187008       0.00176796       0.00351781
O        1.95860632       0.01258935       2.98964428       34      -0.00229021       0.00245961      -0.00277545
O        0.92043033      -1.86130128       6.40772220       35       0.00266222      -0.00232809      -0.00254764
O       -0.64099942       1.66371380       3.09765173       36       0.00308235      -0.00173393      -0.00254764
O       -0.92043033      -0.74669063       4.90199736       37      -0.00266222       0.00104228      -0.00329000
O       -0.39717657       4.80359770       1.48391944       38       0.00187008      -0.00176796      -0.00351781
O        3.44671611       4.50647264       4.79398990       39       0.00229021      -0.00117381      -0.00351781
