40
Lattice="9.48315519883388 7.432612269401124e-10 9.847783906742975e-15 -3.16105173364538 8.940804463938772 -1.2873777615785426e-09 -3.161051732594258 -4.470402231226118 7.742963796898537" Properties=species:S:1:pos:R:3:spacegroup_kinds:I:1:forces:R:3 spacegroup="P 1" unit_cell=conventional occupancy="_JSON {\"0\": {\"In\": 1}, \"1\": {\"In\": 1}, \"2\": {\"In\": 1}, \"3\": {\"In\": 1}, \"4\": {\"In\": 1}, \"5\": {\"In\": 1}, \"6\": {\"In\": 1}, \"7\": {\"In\": 1}, \"8\": {\"In\": 1}, \"9\": {\"In\": 1}, \"10\": {\"In\": 1}, \"11\": {\"In\": 1}, \"12\": {\"In\": 1}, \"13\": {\"In\": 1}, \"14\": {\"In\": 1}, \"15\": {\"In\": 1}, \"16\": {\"O\": 1}, \"17\": {\"O\": 1}, \"18\": {\"O\": 1}, \"19\": {\"O\": 1}, \"20\": {\"O\": 1}, \"21\": {\"O\": 1}, \"22\": {\"O\": 1}, \"23\": {\"O\": 1}, \"24\": {\"O\": 1}, \"25\": {\"O\": 1}, \"26\": {\"O\": 1}, \"27\": {\"O\": 1}, \"28\": {\"O\": 1}, \"29\": {\"O\": 1}, \"30\": {\"O\": 1}, \"31\": {\"O\": 1}, \"32\": {\"O\": 1}, \"33\": {\"O\": 1}, \"34\": {\"O\": 1}, \"35\": {\"O\": 1}, \"36\": {\"O\": 1}, \"37\": {\"O\": 1}, \"38\": {\"O\": 1}, \"39\": {\"O\": 1}}" n_minim_iter=3 energy=-45147.1561560046 stress="0.01779612016356512 -3.2880506392693385e-14 -1.2728408743495452e-13 -3.2880506392693385e-14 0.01779612016392181 -5.2472542168628e-13 -1.2728408743495452e-13 -5.2472542168628e-13 0.017796120164422873" free_energy=-45147.1561560046 pbc="T T T"
In      -4.52043132       3.19642764       6.07807062        0      -0.00555125       0.00392532      -0.00679886
In       7.68148305       1.27397459       1.66489317        1       0.00555125      -0.00392532       0.00679886
In       1.35937958      -0.96122652       5.53637507        2       0.00555125      -0.00392532       0.00679886
In      -1.58052587      -2.23520111       3.87148190        3       0.00000000       0.00000000       0.00000000
In      -1.35937959       4.31402820       3.60063412        4      -0.00555125       0.00392532       0.00679886
In       4.96272388      -3.04005360       5.80722285        5      -0.00555125      -0.00785065      -0.00000000
In      -1.35937959       1.43034863       5.80722284        6      -0.00555125      -0.00785065       0.00000000
In      -1.80167215       7.51045584       1.93574095        7       0.00555125       0.00785065      -0.00000000
In       4.52043132       0.15637404       4.14232967        8       0.00555125      -0.00392532      -0.00679886
In      -1.58052587       4.47040223      -0.00000000        9       0.00000000       0.00000000       0.00000000
In       4.52043132       6.86197738       0.27084777       10       0.00555125      -0.00392532      -0.00679886
In      -1.35937959      -2.39157515       7.47211602       11      -0.00555125       0.00392532       0.00679886
In       4.52043132       3.04005361       1.93574095       12       0.00555125       0.00785065      -0.00000000
In       1.80167214       5.43162876       2.20658872       13      -0.00555125       0.00392532      -0.00679886
In       4.74157760       0.00000000      -0.00000000       14       0.00000000       0.00000000      -0.00000000
In       1.58052586       2.23520112       3.87148190       15       0.00000000       0.00000000       0.00000000
O        0.95770944       4.47597999       4.18406037       16      -0.00345904      -0.00542650       0.00755319
O       -2.20334229       3.62071370       5.64610313       17      -0.00345904       0.00925450       0.00092289
O       -0.47659880       2.39972167       0.01795958       18       0.00245606       0.00507189       0.00816738
O       -0.95770944      -0.84411078       2.08719971       19       0.00345904       0.00382800       0.00847608
O        4.14808904       5.32488198       2.06924013       20       0.00987824       0.00088744       0.00030869
O        2.17401442       3.10562758       1.77462123       21      -0.00987824       0.00017638       0.00092289
O        2.17401442       6.68965663       0.29461890       22      -0.00987824       0.00071106      -0.00061420
O       -2.42134555       6.35503778       3.88944147       23      -0.00396314      -0.00400623       0.00816738
O        3.63765052       2.07068057       7.72500421       24      -0.00245606      -0.00507189      -0.00816738
O        5.58239728      -1.88463554       3.85352232       25       0.00396314       0.00400623      -0.00816738
O        6.79870226       3.45061540       1.80224176       26      -0.00245606       0.00960911      -0.00030869
O        3.90075792       2.42603735       4.16610080       27      -0.00396314       0.00907628      -0.00061420
O        0.73970618       4.63013157       7.43038531       28      -0.00396314      -0.00507005      -0.00755319
O        2.42134555      -0.15972933       0.31257848       29       0.00396314       0.00507005       0.00755319
O       -3.63765053       1.01978683       5.94072203       30       0.00245606      -0.00960911       0.00030869
O        5.36439402       0.84968853       2.09686066       31       0.00345904      -0.00925450      -0.00092289
O        0.98703731       1.36477465       5.96834256       32       0.00987824      -0.00017638      -0.00092289
O        3.63765053      -1.05089373       5.95868161       33      -0.00245606      -0.00453722       0.00847608
O        2.20334229      -0.00557775       3.55890342       34       0.00345904       0.00542650      -0.00755319
O        0.98703731      -2.21925439       7.44834489       35       0.00987824      -0.00071106       0.00061420
O       -0.73970619       2.04436488       3.57686300       36       0.00396314      -0.00907628       0.00061420
O       -0.98703731      -0.85447974       5.67372366       37      -0.00987824      -0.00088744      -0.00030869
O       -0.47659880       5.52129597       1.78428218       38       0.00245606       0.00453722      -0.00847608
O        4.11876117       5.31451301       5.65576408       39      -0.00345904      -0.00382800      -0.00847608
