40
Lattice="8.284299125763742 6.493054051193556e-10 1.3153582526189656e-14 -2.761433042533422 7.810512118724012 -1.1246317740341835e-09 -2.761433041615175 -3.9052560587127028 6.764101912130962" Properties=species:S:1:pos:R:3:spacegroup_kinds:I:1:forces:R:3 spacegroup="P 1" unit_cell=conventional occupancy="_JSON {\"0\": {\"In\": 1}, \"1\": {\"In\": 1}, \"2\": {\"In\": 1}, \"3\": {\"In\": 1}, \"4\": {\"In\": 1}, \"5\": {\"In\": 1}, \"6\": {\"In\": 1}, \"7\": {\"In\": 1}, \"8\": {\"In\": 1}, \"9\": {\"In\": 1}, \"10\": {\"In\": 1}, \"11\": {\"In\": 1}, \"12\": {\"In\": 1}, \"13\": {\"In\": 1}, \"14\": {\"In\": 1}, \"15\": {\"In\": 1}, \"16\": {\"O\": 1}, \"17\": {\"O\": 1}, \"18\": {\"O\": 1}, \"19\": {\"O\": 1}, \"20\": {\"O\": 1}, \"21\": {\"O\": 1}, \"22\": {\"O\": 1}, \"23\": {\"O\": 1}, \"24\": {\"O\": 1}, \"25\": {\"O\": 1}, \"26\": {\"O\": 1}, \"27\": {\"O\": 1}, \"28\": {\"O\": 1}, \"29\": {\"O\": 1}, \"30\": {\"O\": 1}, \"31\": {\"O\": 1}, \"32\": {\"O\": 1}, \"33\": {\"O\": 1}, \"34\": {\"O\": 1}, \"35\": {\"O\": 1}, \"36\": {\"O\": 1}, \"37\": {\"O\": 1}, \"38\": {\"O\": 1}, \"39\": {\"O\": 1}}" n_minim_iter=5 energy=-45144.463408384036 stress="-0.08362819464378027 -4.3025759935314295e-13 -1.1197633695846008e-12 -4.3025759935314295e-13 -0.08362819464305765 -3.9920362569470527e-13 -1.1197633695846008e-12 -3.9920362569470527e-13 -0.08362819464352252" free_energy=-45144.463408384036 pbc="T T T"
In      -3.96568741       2.80416446       5.28919755        0      -0.00079599       0.00056285      -0.00097488
In       6.72712045       1.10109160       1.47490436        1       0.00079599      -0.00056285       0.00097488
In       1.20425437      -0.85153643       4.85695531        2       0.00079599      -0.00056285       0.00097488
In      -1.38071652      -1.95262803       3.38205095        3       0.00000000       0.00000000      -0.00000000
In      -1.20425437       3.78047848       3.16592984        4      -0.00079599       0.00056285       0.00097488
In       4.31861172      -2.67938687       5.07307643        5      -0.00079599      -0.00112570      -0.00000000
In      -1.20425437       1.22586919       5.07307643        6      -0.00079599      -0.00112570       0.00000000
In      -1.55717868       6.58464293       1.69102547        7       0.00079599       0.00112570      -0.00000000
In       3.96568741       0.12477759       3.59817207        8       0.00079599      -0.00056285      -0.00097488
In      -1.38071652       3.90525606      -0.00000000        9      -0.00000000      -0.00000000       0.00000000
In       3.96568741       5.98266168       0.21612111       10       0.00079599      -0.00056285      -0.00097488
In      -1.20425437      -2.07740561       6.54798079       11      -0.00079599       0.00056285       0.00097488
In       3.96568741       2.67938688       1.69102548       12       0.00079599       0.00112570      -0.00000000
In       1.55717867       4.75679249       1.90714659       13      -0.00079599       0.00056285      -0.00097488
In       4.14214956       0.00000000      -0.00000000       14       0.00000000       0.00000000      -0.00000000
In       1.38071652       1.95262803       3.38205095       15       0.00000000      -0.00000000      -0.00000000
O        0.81297652       3.89658358       3.69138907       16      -0.00159255      -0.00227420       0.00258864
O       -1.94845652       3.20117295       4.92591797       17      -0.00159255       0.00337893       0.00067519
O       -0.40100025       2.10695613       0.05705519       18       0.00051070       0.00189171       0.00325114
O       -0.81297652      -0.71275559       1.85320512       19       0.00159255       0.00110473       0.00326384
O        3.66758031       4.65095249       1.79614993       20       0.00371654       0.00077231       0.00001270
O        1.85528577       2.72259281       1.54386701       21      -0.00371654       0.00037516       0.00067519
O        1.85528577       5.83361574       0.25228291       22      -0.00371654       0.00039716      -0.00066249
O       -2.12012403       5.53363204       3.43910615       23      -0.00161329      -0.00111206       0.00325114
O        3.16243328       1.79829994       6.70704671       24      -0.00051070      -0.00189171      -0.00325114
O        4.88155707      -1.62837597       3.32499576       25       0.00161329       0.00111206      -0.00325114
O        5.92386633       3.05551734       1.58590102       26      -0.00051070       0.00376142      -0.00001270
O        3.40274205       2.16416531       3.63433387       27      -0.00161329       0.00337160      -0.00066249
O        0.64130901       4.01797084       6.45476380       28      -0.00161329      -0.00225954      -0.00258864
O        2.12012403      -0.11271478       0.30933811       29       0.00161329       0.00225954       0.00258864
O       -3.16243329       0.84973872       5.17820088       30       0.00051070      -0.00376142       0.00001270
O        4.70988956       0.70408311       1.83818394       31       0.00159255      -0.00337893      -0.00067519
O        0.90614727       1.18266326       5.22023490       32       0.00371654      -0.00037516      -0.00067519
O        3.16243328      -0.94856121       5.23525608       33      -0.00051070      -0.00186971       0.00326384
O        1.94845652       0.00867249       3.07271284       34       0.00159255       0.00227420      -0.00258864
O        0.90614727      -1.92835968       6.51181899       35       0.00371654      -0.00039716       0.00066249
O       -0.64130901       1.74109076       3.12976804       36       0.00161329      -0.00337160       0.00066249
O       -0.90614727      -0.74569642       4.96795198       37      -0.00371654      -0.00077231      -0.00001270
O       -0.40100025       4.85381728       1.52884583       38       0.00051070       0.00186971      -0.00326384
O        3.57440956       4.61801165       4.91089678       39      -0.00159255      -0.00110473      -0.00326384
