40
Lattice="8.772707403983066 6.875809888307067e-10 2.473515456423285e-15 -2.9242358019759465 8.27098785939995 -1.190929142627254e-09 -2.92423580100356 -4.135493929012392 7.162885601426986" Properties=species:S:1:pos:R:3:spacegroup_kinds:I:1:forces:R:3 spacegroup="P 1" unit_cell=conventional occupancy="_JSON {\"0\": {\"In\": 1}, \"1\": {\"In\": 1}, \"2\": {\"In\": 1}, \"3\": {\"In\": 1}, \"4\": {\"In\": 1}, \"5\": {\"In\": 1}, \"6\": {\"In\": 1}, \"7\": {\"In\": 1}, \"8\": {\"In\": 1}, \"9\": {\"In\": 1}, \"10\": {\"In\": 1}, \"11\": {\"In\": 1}, \"12\": {\"In\": 1}, \"13\": {\"In\": 1}, \"14\": {\"In\": 1}, \"15\": {\"In\": 1}, \"16\": {\"O\": 1}, \"17\": {\"O\": 1}, \"18\": {\"O\": 1}, \"19\": {\"O\": 1}, \"20\": {\"O\": 1}, \"21\": {\"O\": 1}, \"22\": {\"O\": 1}, \"23\": {\"O\": 1}, \"24\": {\"O\": 1}, \"25\": {\"O\": 1}, \"26\": {\"O\": 1}, \"27\": {\"O\": 1}, \"28\": {\"O\": 1}, \"29\": {\"O\": 1}, \"30\": {\"O\": 1}, \"31\": {\"O\": 1}, \"32\": {\"O\": 1}, \"33\": {\"O\": 1}, \"34\": {\"O\": 1}, \"35\": {\"O\": 1}, \"36\": {\"O\": 1}, \"37\": {\"O\": 1}, \"38\": {\"O\": 1}, \"39\": {\"O\": 1}}" n_minim_iter=2 energy=-45149.42238848128 stress="-0.01813695998770648 4.3262196244460954e-13 -2.1378695070902374e-13 4.3262196244460954e-13 -0.018136959987831623 1.6714288555595836e-13 -2.1378695070902374e-13 1.6714288555595836e-13 -0.01813695998594161" free_energy=-45149.42238848128 pbc="T T T"
In      -4.18691346       2.96059490       5.61642762        0       0.00403836      -0.00285555       0.00494597
In       7.11114925       1.17489904       1.54645798        1      -0.00403836       0.00285555      -0.00494597
In       1.26267765      -0.89284793       5.12790078        2      -0.00403836       0.00285555      -0.00494597
In      -1.46211790      -2.06774696       3.58144280        3      -0.00000000      -0.00000000       0.00000000
In      -1.26267765       3.99446838       3.33717938        4       0.00403836      -0.00285555      -0.00494597
In       4.58579395      -2.81956934       5.37216420        5       0.00403836       0.00571111      -0.00000000
In      -1.26267765       1.31592459       5.37216420        6       0.00403836       0.00571111      -0.00000000
In      -1.66155815       6.95506327       1.79072140        7      -0.00403836      -0.00571111      -0.00000000
In       4.18691345       0.14102555       3.82570622        8      -0.00403836       0.00285555       0.00494597
In      -1.46211790       4.13549393      -0.00000000        9       0.00000000      -0.00000000       0.00000000
In       4.18691345       6.34426645       0.24426342       10      -0.00403836       0.00285555       0.00494597
In      -1.26267765      -2.20877251       6.91862218       11       0.00403836      -0.00285555      -0.00494597
In       4.18691345       2.81956934       1.79072140       12      -0.00403836      -0.00571111       0.00000000
In       1.66155815       5.02834186       2.03498482       13       0.00403836      -0.00285555       0.00494597
In       4.38635370       0.00000000      -0.00000000       14       0.00000000       0.00000000       0.00000000
In       1.46211790       2.06774697       3.58144280       15       0.00000000       0.00000000      -0.00000000
O        0.85894687       4.13518887       3.90200333       16      -0.00624748      -0.00572789      -0.00043073
O       -2.06528893       3.37938655       5.21214812       17      -0.00624748       0.00249092       0.00517586
O       -0.42683687       2.22082599       0.05594828       18      -0.00513433       0.00170381       0.00653918
O       -0.85894687      -0.75641244       1.95126586       19       0.00624748      -0.00323696       0.00474513
O        3.87454583       4.92420814       1.89531757       20       0.00443096       0.00701236      -0.00179405
O        1.97392577       2.88845786       1.63070532       21      -0.00443096       0.00505988       0.00517586
O        1.97392577       6.17124420       0.26461225       22      -0.00443096       0.00195249      -0.00696991
O       -2.23609378       5.86539123       3.63739108       23      -0.00331781       0.00427276       0.00653918
O        3.35107267       1.91466795       7.10693731       24       0.00513433      -0.00170381      -0.00653918
O        5.16032957      -1.72989730       3.52549451       25       0.00331781      -0.00427276      -0.00653918
O        6.27530847       3.22661259       1.68612522       26       0.00513433       0.00651500       0.00179405
O        3.61237783       2.28512444       3.84605505       27      -0.00331781       0.00352672      -0.00696991
O        0.68814202       4.25596613       6.84232506       28      -0.00331781      -0.00779948       0.00043073
O        2.23609377      -0.12047220       0.32056053       29       0.00331781       0.00779948      -0.00043073
O       -3.35107267       0.90888134       5.47676038       30      -0.00513433      -0.00651500      -0.00179405
O        4.98952473       0.75610738       1.95073747       31       0.00624748      -0.00249092      -0.00517586
O        0.95031003       1.24703607       5.53218027       32       0.00443096      -0.00505988      -0.00517586
O        3.35107267      -1.00578661       5.53270866       33       0.00513433      -0.00481120       0.00474513
O        2.06528893       0.00030507       3.26088226       34       0.00624748       0.00572789       0.00043073
O        0.95031003      -2.03575027       6.89827335       35       0.00443096      -0.00195249       0.00696991
O       -0.68814203       1.85036950       3.31683055       36       0.00331781      -0.00352672       0.00696991
O       -0.95031004      -0.78871420       5.26756802       37      -0.00443096      -0.00701236       0.00179405
O       -0.42683687       5.14128054       1.63017694       38      -0.00513433       0.00481120      -0.00474513
O        3.78318267       4.89190638       5.21161974       39      -0.00624748       0.00323696      -0.00474513
