40
Lattice="8.107983644303994 6.354864826735713e-10 2.152049473661233e-14 -2.7026612153671405 7.6442802886374706 -1.1006966136936947e-09 -2.702661214468447 -3.8221401436832543 6.620140924342477" Properties=species:S:1:pos:R:3:spacegroup_kinds:I:1:forces:R:3 spacegroup="P 1" unit_cell=conventional occupancy="_JSON {\"0\": {\"In\": 1}, \"1\": {\"In\": 1}, \"2\": {\"In\": 1}, \"3\": {\"In\": 1}, \"4\": {\"In\": 1}, \"5\": {\"In\": 1}, \"6\": {\"In\": 1}, \"7\": {\"In\": 1}, \"8\": {\"In\": 1}, \"9\": {\"In\": 1}, \"10\": {\"In\": 1}, \"11\": {\"In\": 1}, \"12\": {\"In\": 1}, \"13\": {\"In\": 1}, \"14\": {\"In\": 1}, \"15\": {\"In\": 1}, \"16\": {\"O\": 1}, \"17\": {\"O\": 1}, \"18\": {\"O\": 1}, \"19\": {\"O\": 1}, \"20\": {\"O\": 1}, \"21\": {\"O\": 1}, \"22\": {\"O\": 1}, \"23\": {\"O\": 1}, \"24\": {\"O\": 1}, \"25\": {\"O\": 1}, \"26\": {\"O\": 1}, \"27\": {\"O\": 1}, \"28\": {\"O\": 1}, \"29\": {\"O\": 1}, \"30\": {\"O\": 1}, \"31\": {\"O\": 1}, \"32\": {\"O\": 1}, \"33\": {\"O\": 1}, \"34\": {\"O\": 1}, \"35\": {\"O\": 1}, \"36\": {\"O\": 1}, \"37\": {\"O\": 1}, \"38\": {\"O\": 1}, \"39\": {\"O\": 1}}" n_minim_iter=6 energy=-45143.24157188786 stress="-0.1023847313667718 -1.7687684580470417e-12 -1.3407437544667843e-12 -1.7687684580470417e-12 -0.10238473136712922 -3.4176702241563272e-15 -1.3407437544667843e-12 -3.4176702241563272e-15 -0.10238473136830885" free_energy=-45143.24157188786 pbc="T T T"
In      -3.88690217       2.74845489       5.16974788        0       0.00017236      -0.00012188       0.00021110
In       6.58956339       1.07368526       1.45039304        1      -0.00017236       0.00012188      -0.00021110
In       1.18424096      -0.83738481       4.76046350        2      -0.00017236       0.00012188      -0.00021110
In      -1.35133061      -1.91107007       3.31007046        3      -0.00000000      -0.00000000      -0.00000000
In      -1.18424096       3.70398992       3.10542827        4       0.00017236      -0.00012188      -0.00021110
In       4.22108147      -2.63030466       4.96510569        5       0.00017236       0.00024375       0.00000000
In      -1.18424096       1.19183549       4.96510569        6       0.00017236       0.00024375       0.00000000
In      -1.51842026       6.45244481       1.65503523        7      -0.00017236      -0.00024375      -0.00000000
In       3.88690217       0.11815023       3.51471265        8      -0.00017236       0.00012188       0.00021110
In      -1.35133061       3.82214015      -0.00000000        9       0.00000000       0.00000000      -0.00000000
In       3.88690217       5.85136044       0.20464219       10      -0.00017236       0.00012188       0.00021110
In      -1.18424096      -2.02922029       6.41549873       11       0.00017236      -0.00012188      -0.00021110
In       3.88690217       2.63030466       1.65503523       12      -0.00017236      -0.00024375       0.00000000
In       1.51842025       4.65952496       1.85967742       13       0.00017236      -0.00012188       0.00021110
In       4.05399182       0.00000000      -0.00000000       14      -0.00000000      -0.00000000       0.00000000
In       1.35133061       1.91107007       3.31007046       15       0.00000000       0.00000000      -0.00000000
O        0.76690714       3.80967331       3.62043866       16       0.00026996      -0.00004134      -0.00043885
O       -1.93575407       3.14162528       4.82071818       17       0.00026996      -0.00035938       0.00025522
O       -0.39771370       2.05406650       0.08428431       18      -0.00028782       0.00003503      -0.00042792
O       -0.76690715      -0.69298170       1.82101593       19      -0.00026996      -0.00040072      -0.00018362
O        3.60720407       4.56378342       1.73673161       20      -0.00042882       0.00015366       0.00024429
O        1.79811836       2.68890809       1.51064772       21       0.00042882      -0.00013473       0.00025522
O        1.79811836       5.69701548       0.22608389       22       0.00042882       0.00028839      -0.00001093
O       -2.06916371       5.42348946       3.39435478       23      -0.00012896       0.00025968      -0.00042792
O        3.10037491       1.76807365       6.53585660       24       0.00028782      -0.00003503       0.00042792
O        4.77182492      -1.60134931       3.22578614       25       0.00012896      -0.00025968       0.00042792
O        5.80303613       3.01109568       1.57333885       26       0.00028782      -0.00035307      -0.00024429
O        3.33615872       2.13892281       3.53615435       27      -0.00012896      -0.00050043      -0.00001093
O        0.63349751       3.90400817       6.30977272       28      -0.00012896       0.00024075       0.00043885
O        2.06916370      -0.08186802       0.31036820       29       0.00012896      -0.00024075      -0.00043885
O       -3.10037492       0.81104446       5.04680207       30      -0.00028782       0.00035307       0.00024429
O        4.63841528       0.68051487       1.79942273       31      -0.00026996       0.00035938      -0.00025522
O        0.90454286       1.13323206       5.10949320       32      -0.00042882       0.00013473      -0.00025522
O        3.10037491      -0.95702918       5.13108639       33       0.00028782       0.00038810      -0.00018362
O        1.93575407       0.01246684       2.99970225       34      -0.00026996       0.00004134       0.00043885
O        0.90454286      -1.87487533       6.39405703       35      -0.00042882      -0.00028839       0.00001093
O       -0.63349751       1.68321733       3.08398657       36       0.00012896       0.00050043       0.00001093
O       -0.90454286      -0.74164328       4.88340931       37       0.00042882      -0.00015366      -0.00024429
O       -0.39771370       4.77916933       1.48905453       38      -0.00028782      -0.00038810       0.00018362
O        3.46956836       4.51512185       4.79912499       39       0.00026996       0.00040072       0.00018362
