40
Lattice="9.483155198833872 7.432583584357509e-10 5.117018345859815e-15 -3.161051733645379 8.940804463938772 -1.2873774254485819e-09 -3.1610517325942546 -4.470402231226116 7.742963796898535" Properties=species:S:1:pos:R:3:spacegroup_kinds:I:1:forces:R:3 spacegroup="P 1" unit_cell=conventional occupancy="_JSON {\"0\": {\"In\": 1}, \"1\": {\"In\": 1}, \"2\": {\"In\": 1}, \"3\": {\"In\": 1}, \"4\": {\"In\": 1}, \"5\": {\"In\": 1}, \"6\": {\"In\": 1}, \"7\": {\"In\": 1}, \"8\": {\"In\": 1}, \"9\": {\"In\": 1}, \"10\": {\"In\": 1}, \"11\": {\"In\": 1}, \"12\": {\"In\": 1}, \"13\": {\"In\": 1}, \"14\": {\"In\": 1}, \"15\": {\"In\": 1}, \"16\": {\"O\": 1}, \"17\": {\"O\": 1}, \"18\": {\"O\": 1}, \"19\": {\"O\": 1}, \"20\": {\"O\": 1}, \"21\": {\"O\": 1}, \"22\": {\"O\": 1}, \"23\": {\"O\": 1}, \"24\": {\"O\": 1}, \"25\": {\"O\": 1}, \"26\": {\"O\": 1}, \"27\": {\"O\": 1}, \"28\": {\"O\": 1}, \"29\": {\"O\": 1}, \"30\": {\"O\": 1}, \"31\": {\"O\": 1}, \"32\": {\"O\": 1}, \"33\": {\"O\": 1}, \"34\": {\"O\": 1}, \"35\": {\"O\": 1}, \"36\": {\"O\": 1}, \"37\": {\"O\": 1}, \"38\": {\"O\": 1}, \"39\": {\"O\": 1}}" n_minim_iter=4 energy=-45147.426440331365 stress="0.020731140748321518 -6.489193070674824e-13 4.4281120385294307e-13 -6.489193070674824e-13 0.020731140747642707 5.2918621345518444e-14 4.4281120385294307e-13 5.2918621345518444e-14 0.020731140747826317" free_energy=-45147.426440331365 pbc="T T T"
In      -4.51598456       3.19328331       6.08351677        0      -0.00237631       0.00168031      -0.00291038
In       7.67703629       1.27711893       1.65944702        1       0.00237631      -0.00168031       0.00291038
In       1.35493282      -0.95808219       5.53092892        2       0.00237631      -0.00168031       0.00291038
In      -1.58052587      -2.23520111       3.87148190        3      -0.00000000      -0.00000000      -0.00000000
In      -1.35493283       4.31088386       3.59518797        4      -0.00237631       0.00168031       0.00291038
In       4.96717064      -3.03376493       5.80722285        5      -0.00237631      -0.00336062       0.00000000
In      -1.35493283       1.43663730       5.80722284        6      -0.00237631      -0.00336062       0.00000000
In      -1.80611891       7.50416717       1.93574095        7       0.00237631       0.00336062      -0.00000000
In       4.51598456       0.15951837       4.14777582        8       0.00237631      -0.00168031      -0.00291038
In      -1.58052587       4.47040223      -0.00000000        9      -0.00000000       0.00000000      -0.00000000
In       4.51598455       6.86512172       0.27629392       10       0.00237631      -0.00168031      -0.00291038
In      -1.35493283      -2.39471948       7.46666987       11      -0.00237631       0.00168031       0.00291038
In       4.51598455       3.03376494       1.93574095       12       0.00237631       0.00336062       0.00000000
In       1.80611891       5.42848442       2.21203487       13      -0.00237631       0.00168031      -0.00291038
In       4.74157760       0.00000000      -0.00000000       14       0.00000000      -0.00000000      -0.00000000
In       1.58052586       2.23520112       3.87148190       15       0.00000000       0.00000000      -0.00000000
O        0.95779314       4.47440405       4.18752319       16       0.00209550      -0.00040403       0.00735362
O       -2.20325859       3.62450056       5.64573652       17       0.00209550       0.00657044      -0.00332692
O       -0.47448642       2.40207403       0.02007757       18       0.00651225       0.00344732       0.00208248
O       -0.95779315      -0.84189986       2.09029592       19      -0.00209550       0.00616641       0.00402671
O        4.15163142       5.32389389       2.07021834       20       0.00549617      -0.00496409       0.00194423
O        2.17047204       3.10428638       1.77425462       21      -0.00549617      -0.00416580      -0.00332692
O        2.17047204       6.69000974       0.29596372       22      -0.00549617      -0.00079829       0.00527115
O       -2.42285926       6.35226209       3.89155947       23      -0.00107942      -0.00728891       0.00208248
O        3.63553815       2.06832820       7.72288622       24      -0.00651225      -0.00344732      -0.00208248
O        5.58391099      -1.88185985       3.85140432       25       0.00107942       0.00728891      -0.00208248
O        6.79658988       3.45362583       1.80126355       26      -0.00651225       0.00352714      -0.00194423
O        3.89924421       2.42925944       4.16744561       27      -0.00107942       0.00544793       0.00527115
O        0.73819248       4.62968517       7.42692250       28      -0.00107942       0.00184098      -0.00735362
O        2.42285925      -0.15928294       0.31604129       29       0.00107942      -0.00184098       0.00735362
O       -3.63553815       1.01677641       5.94170024       30       0.00651225      -0.00352714       0.00194423
O        5.36431032       0.84590168       2.09722727       31      -0.00209550      -0.00657044       0.00332691
O        0.99057969       1.36611585       5.96870917       32       0.00549617       0.00416580       0.00332692
O        3.63553815      -1.05155179       5.96177782       33      -0.00651225      -0.00007982       0.00402671
O        2.20325859      -0.00400182       3.55544060       34      -0.00209550       0.00040403      -0.00735362
O        0.99057969      -2.21960750       7.44700007       35       0.00549617       0.00079829      -0.00527115
O       -0.73819248       2.04114280       3.57551818       36       0.00107942      -0.00544793      -0.00527115
O       -0.99057969      -0.85349165       5.67274545       37      -0.00549617       0.00496409      -0.00194423
O       -0.47448642       5.52195403       1.78118597       38       0.00651225       0.00007982      -0.00402671
O        4.11884488       5.31230209       5.65266787       39       0.00209550      -0.00616641      -0.00402671
