40
Lattice="9.48315519883387 7.432612269401114e-10 9.847783906742964e-15 -3.161051733645376 8.940804463938766 -1.2873777615785413e-09 -3.161051732594254 -4.470402231226116 7.742963796898528" Properties=species:S:1:pos:R:3:spacegroup_kinds:I:1:forces:R:3 spacegroup="P 1" unit_cell=conventional occupancy="_JSON {\"0\": {\"In\": 1}, \"1\": {\"In\": 1}, \"2\": {\"In\": 1}, \"3\": {\"In\": 1}, \"4\": {\"In\": 1}, \"5\": {\"In\": 1}, \"6\": {\"In\": 1}, \"7\": {\"In\": 1}, \"8\": {\"In\": 1}, \"9\": {\"In\": 1}, \"10\": {\"In\": 1}, \"11\": {\"In\": 1}, \"12\": {\"In\": 1}, \"13\": {\"In\": 1}, \"14\": {\"In\": 1}, \"15\": {\"In\": 1}, \"16\": {\"O\": 1}, \"17\": {\"O\": 1}, \"18\": {\"O\": 1}, \"19\": {\"O\": 1}, \"20\": {\"O\": 1}, \"21\": {\"O\": 1}, \"22\": {\"O\": 1}, \"23\": {\"O\": 1}, \"24\": {\"O\": 1}, \"25\": {\"O\": 1}, \"26\": {\"O\": 1}, \"27\": {\"O\": 1}, \"28\": {\"O\": 1}, \"29\": {\"O\": 1}, \"30\": {\"O\": 1}, \"31\": {\"O\": 1}, \"32\": {\"O\": 1}, \"33\": {\"O\": 1}, \"34\": {\"O\": 1}, \"35\": {\"O\": 1}, \"36\": {\"O\": 1}, \"37\": {\"O\": 1}, \"38\": {\"O\": 1}, \"39\": {\"O\": 1}}" n_minim_iter=1 energy=-45147.151440121255 stress="0.01865846182210067 -2.6752290997236846e-13 -4.718345458967114e-13 -2.6752290997236846e-13 0.018658461822658578 -6.193560985455475e-13 -4.718345458967114e-13 -6.193560985455475e-13 0.01865846182173022" free_energy=-45147.151440121255 pbc="T T T"
In      -4.51598456       3.19328331       6.08351677        0      -0.03856555       0.02726996      -0.04723296
In       7.67703629       1.27711893       1.65944702        1       0.03856555      -0.02726996       0.04723296
In       1.35493282      -0.95808219       5.53092892        2       0.03856555      -0.02726996       0.04723296
In      -1.58052587      -2.23520111       3.87148190        3      -0.00000000       0.00000000       0.00000000
In      -1.35493283       4.31088386       3.59518797        4      -0.03856555       0.02726996       0.04723296
In       4.96717064      -3.03376493       5.80722285        5      -0.03856555      -0.05453993       0.00000000
In      -1.35493283       1.43663730       5.80722284        6      -0.03856555      -0.05453993       0.00000000
In      -1.80611891       7.50416717       1.93574095        7       0.03856555       0.05453993      -0.00000000
In       4.51598456       0.15951837       4.14777582        8       0.03856555      -0.02726996      -0.04723296
In      -1.58052587       4.47040223      -0.00000000        9       0.00000000       0.00000000       0.00000000
In       4.51598455       6.86512172       0.27629392       10       0.03856555      -0.02726996      -0.04723296
In      -1.35493283      -2.39471948       7.46666987       11      -0.03856555       0.02726996       0.04723296
In       4.51598455       3.03376494       1.93574095       12       0.03856555       0.05453993      -0.00000000
In       1.80611891       5.42848442       2.21203487       13      -0.03856555       0.02726996      -0.04723296
In       4.74157760       0.00000000      -0.00000000       14       0.00000000      -0.00000000       0.00000000
In       1.58052586       2.23520112       3.87148190       15      -0.00000000      -0.00000000      -0.00000000
O        0.95779314       4.47440405       4.18752319       16      -0.00034514       0.01475834      -0.03179000
O       -2.20325859       3.62450056       5.64573652       17      -0.00034514      -0.03491012       0.00311390
O       -0.47448642       2.40207403       0.02007757       18      -0.01911432      -0.02163830      -0.01987356
O       -0.95779315      -0.84189986       2.09029592       19       0.00034514      -0.02015177      -0.02867610
O        4.15163142       5.32389389       2.07021834       20      -0.03279853       0.00867777      -0.00880254
O        2.17047204       3.10428638       1.77425462       21       0.03279853       0.01196211       0.00311390
O        2.17047204       6.69000974       0.29596372       22       0.03279853      -0.00328434      -0.01191644
O       -2.42285926       6.35226209       3.89155947       23       0.01402935       0.02523392      -0.01987356
O        3.63553815       2.06832820       7.72288622       24       0.01911432       0.02163830       0.01987356
O        5.58391099      -1.88185985       3.85140432       25      -0.01402935      -0.02523392       0.01987356
O        6.79658988       3.45362583       1.80126355       26       0.01911432      -0.02803016       0.00880254
O        3.89924421       2.42925944       4.16744561       27       0.01402935      -0.02982797      -0.01191644
O        0.73819248       4.62968517       7.42692250       28       0.01402935       0.00459405       0.03179000
O        2.42285925      -0.15928294       0.31604129       29      -0.01402935      -0.00459405      -0.03179000
O       -3.63553815       1.01677641       5.94170024       30      -0.01911432       0.02803016      -0.00880254
O        5.36431032       0.84590168       2.09722727       31       0.00034514       0.03491012      -0.00311390
O        0.99057969       1.36611585       5.96870917       32      -0.03279853      -0.01196211      -0.00311390
O        3.63553815      -1.05155179       5.96177782       33       0.01911432       0.00639186      -0.02867610
O        2.20325859      -0.00400182       3.55544060       34       0.00034514      -0.01475834       0.03179000
O        0.99057969      -2.21960750       7.44700007       35      -0.03279853       0.00328434       0.01191644
O       -0.73819248       2.04114280       3.57551818       36      -0.01402935       0.02982797       0.01191644
O       -0.99057969      -0.85349165       5.67274545       37       0.03279853      -0.00867777       0.00880254
O       -0.47448642       5.52195403       1.78118597       38      -0.01911432      -0.00639186       0.02867610
O        4.11884488       5.31230209       5.65266787       39      -0.00034514       0.02015177       0.02867610
40
Lattice="9.483155198833872 7.432612269401119e-10 9.847783906742967e-15 -3.161051733645378 8.940804463938768 -1.2873777615785415e-09 -3.161051732594256 -4.4704022312261165 7.742963796898532" Properties=species:S:1:pos:R:3:spacegroup_kinds:I:1:forces:R:3 spacegroup="P 1" unit_cell=conventional occupancy="_JSON {\"0\": {\"In\": 1}, \"1\": {\"In\": 1}, \"2\": {\"In\": 1}, \"3\": {\"In\": 1}, \"4\": {\"In\": 1}, \"5\": {\"In\": 1}, \"6\": {\"In\": 1}, \"7\": {\"In\": 1}, \"8\": {\"In\": 1}, \"9\": {\"In\": 1}, \"10\": {\"In\": 1}, \"11\": {\"In\": 1}, \"12\": {\"In\": 1}, \"13\": {\"In\": 1}, \"14\": {\"In\": 1}, \"15\": {\"In\": 1}, \"16\": {\"O\": 1}, \"17\": {\"O\": 1}, \"18\": {\"O\": 1}, \"19\": {\"O\": 1}, \"20\": {\"O\": 1}, \"21\": {\"O\": 1}, \"22\": {\"O\": 1}, \"23\": {\"O\": 1}, \"24\": {\"O\": 1}, \"25\": {\"O\": 1}, \"26\": {\"O\": 1}, \"27\": {\"O\": 1}, \"28\": {\"O\": 1}, \"29\": {\"O\": 1}, \"30\": {\"O\": 1}, \"31\": {\"O\": 1}, \"32\": {\"O\": 1}, \"33\": {\"O\": 1}, \"34\": {\"O\": 1}, \"35\": {\"O\": 1}, \"36\": {\"O\": 1}, \"37\": {\"O\": 1}, \"38\": {\"O\": 1}, \"39\": {\"O\": 1}}" n_minim_iter=2 energy=-45147.15548074753 stress="0.018115850221546367 -6.043646883354876e-14 -1.1828244302028947e-13 -6.043646883354876e-14 0.01811585022387906 -1.6415505819173922e-13 -1.1828244302028947e-13 -1.6415505819173922e-13 0.018115850222116186" free_energy=-45147.15548074753 pbc="T T T"
In      -4.51873924       3.19523116       6.08014298        0      -0.01811511       0.01280932      -0.02218639
In       7.67979097       1.27517108       1.66282081        1       0.01811511      -0.01280932       0.02218639
In       1.35768750      -0.96003004       5.53430271        2       0.01811511      -0.01280932       0.02218639
In      -1.58052587      -2.23520111       3.87148190        3       0.00000000      -0.00000000       0.00000000
In      -1.35768751       4.31283172       3.59856176        4      -0.01811511       0.01280932       0.02218639
In       4.96441596      -3.03766064       5.80722285        5      -0.01811511      -0.02561864      -0.00000000
In      -1.35768751       1.43274159       5.80722284        6      -0.01811511      -0.02561864      -0.00000000
In      -1.80336423       7.50806288       1.93574095        7       0.01811511       0.02561864      -0.00000000
In       4.51873924       0.15757052       4.14440203        8       0.01811511      -0.01280932      -0.02218639
In      -1.58052587       4.47040223      -0.00000000        9      -0.00000000      -0.00000000      -0.00000000
In       4.51873924       6.86317387       0.27292014       10       0.01811511      -0.01280932      -0.02218639
In      -1.35768751      -2.39277163       7.47004366       11      -0.01811511       0.01280932       0.02218639
In       4.51873924       3.03766065       1.93574095       12       0.01811511       0.02561864      -0.00000000
In       1.80336422       5.43043228       2.20866108       13      -0.01811511       0.01280932      -0.02218639
In       4.74157760       0.00000000      -0.00000000       14       0.00000000       0.00000000      -0.00000000
In       1.58052586       2.23520112       3.87148190       15       0.00000000      -0.00000000       0.00000000
O        0.95776849       4.47545822       4.18525248       16      -0.00212017       0.00132400      -0.00589329
O       -2.20328324       3.62200698       5.64595894       17      -0.00212017      -0.00576574       0.00180002
O       -0.47585173       2.40052844       0.01865803       18      -0.00489443      -0.00380404      -0.00159774
O       -0.95776849      -0.84333927       2.08824763       19       0.00212017      -0.00444174      -0.00409326
O        4.14928867       5.32451373       2.06958959       20      -0.00472927       0.00351928      -0.00249552
O        2.17281479       3.10514082       1.77447704       21       0.00472927       0.00392083       0.00180002
O        2.17281479       6.68977514       0.29511254       22       0.00472927      -0.00040155      -0.00429555
O       -2.42185716       6.35406451       3.89013993       23       0.00195500       0.00588253      -0.00159774
O        3.63690346       2.06987380       7.72430576       24       0.00489443       0.00380404       0.00159774
O        5.58290889      -1.88366228       3.85282386       25      -0.00195500      -0.00588253       0.00159774
O        6.79795519       3.45162367       1.80189230       26       0.00489443      -0.00328570       0.00249552
O        3.90024631       2.42712887       4.16659444       27       0.00195500      -0.00432495      -0.00429555
O        0.73919457       4.63001332       7.42919321       28       0.00195500      -0.00155758       0.00589329
O        2.42185716      -0.15961108       0.31377058       29      -0.00195500       0.00155758      -0.00589329
O       -3.63690346       1.01877856       5.94107149       30      -0.00489443       0.00328570      -0.00249552
O        5.36433497       0.84839526       2.09700485       31       0.00212017       0.00576574      -0.00180002
O        0.98823694       1.36526142       5.96848675       32      -0.00472927      -0.00392083      -0.00180002
O        3.63690346      -1.05109523       5.95972952       33       0.00489443      -0.00051834      -0.00409326
O        2.20328324      -0.00505598       3.55771131       34       0.00212017      -0.00132400       0.00589329
O        0.98823694      -2.21937291       7.44785125       35      -0.00472927       0.00040155       0.00429555
O       -0.73919458       2.04327336       3.57636935       36      -0.00195500       0.00432495       0.00429555
O       -0.98823694      -0.85411149       5.67337420       37       0.00472927      -0.00351928       0.00249552
O       -0.47585173       5.52149746       1.78323427       38      -0.00489443       0.00051834       0.00409326
O        4.11882022       5.31374150       5.65471616       39      -0.00212017       0.00444174       0.00409326
40
Lattice="9.48315519883388 7.432612269401124e-10 9.847783906742975e-15 -3.16105173364538 8.940804463938772 -1.2873777615785426e-09 -3.161051732594258 -4.470402231226118 7.742963796898537" Properties=species:S:1:pos:R:3:spacegroup_kinds:I:1:forces:R:3 spacegroup="P 1" unit_cell=conventional occupancy="_JSON {\"0\": {\"In\": 1}, \"1\": {\"In\": 1}, \"2\": {\"In\": 1}, \"3\": {\"In\": 1}, \"4\": {\"In\": 1}, \"5\": {\"In\": 1}, \"6\": {\"In\": 1}, \"7\": {\"In\": 1}, \"8\": {\"In\": 1}, \"9\": {\"In\": 1}, \"10\": {\"In\": 1}, \"11\": {\"In\": 1}, \"12\": {\"In\": 1}, \"13\": {\"In\": 1}, \"14\": {\"In\": 1}, \"15\": {\"In\": 1}, \"16\": {\"O\": 1}, \"17\": {\"O\": 1}, \"18\": {\"O\": 1}, \"19\": {\"O\": 1}, \"20\": {\"O\": 1}, \"21\": {\"O\": 1}, \"22\": {\"O\": 1}, \"23\": {\"O\": 1}, \"24\": {\"O\": 1}, \"25\": {\"O\": 1}, \"26\": {\"O\": 1}, \"27\": {\"O\": 1}, \"28\": {\"O\": 1}, \"29\": {\"O\": 1}, \"30\": {\"O\": 1}, \"31\": {\"O\": 1}, \"32\": {\"O\": 1}, \"33\": {\"O\": 1}, \"34\": {\"O\": 1}, \"35\": {\"O\": 1}, \"36\": {\"O\": 1}, \"37\": {\"O\": 1}, \"38\": {\"O\": 1}, \"39\": {\"O\": 1}}" n_minim_iter=3 energy=-45147.1561560046 stress="0.01779612016356512 -3.2880506392693385e-14 -1.2728408743495452e-13 -3.2880506392693385e-14 0.01779612016392181 -5.2472542168628e-13 -1.2728408743495452e-13 -5.2472542168628e-13 0.017796120164422873" free_energy=-45147.1561560046 pbc="T T T"
In      -4.52043132       3.19642764       6.07807062        0      -0.00555125       0.00392532      -0.00679886
In       7.68148305       1.27397459       1.66489317        1       0.00555125      -0.00392532       0.00679886
In       1.35937958      -0.96122652       5.53637507        2       0.00555125      -0.00392532       0.00679886
In      -1.58052587      -2.23520111       3.87148190        3       0.00000000       0.00000000       0.00000000
In      -1.35937959       4.31402820       3.60063412        4      -0.00555125       0.00392532       0.00679886
In       4.96272388      -3.04005360       5.80722285        5      -0.00555125      -0.00785065      -0.00000000
In      -1.35937959       1.43034863       5.80722284        6      -0.00555125      -0.00785065       0.00000000
In      -1.80167215       7.51045584       1.93574095        7       0.00555125       0.00785065      -0.00000000
In       4.52043132       0.15637404       4.14232967        8       0.00555125      -0.00392532      -0.00679886
In      -1.58052587       4.47040223      -0.00000000        9       0.00000000       0.00000000       0.00000000
In       4.52043132       6.86197738       0.27084777       10       0.00555125      -0.00392532      -0.00679886
In      -1.35937959      -2.39157515       7.47211602       11      -0.00555125       0.00392532       0.00679886
In       4.52043132       3.04005361       1.93574095       12       0.00555125       0.00785065      -0.00000000
In       1.80167214       5.43162876       2.20658872       13      -0.00555125       0.00392532      -0.00679886
In       4.74157760       0.00000000      -0.00000000       14       0.00000000       0.00000000      -0.00000000
In       1.58052586       2.23520112       3.87148190       15       0.00000000       0.00000000       0.00000000
O        0.95770944       4.47597999       4.18406037       16      -0.00345904      -0.00542650       0.00755319
O       -2.20334229       3.62071370       5.64610313       17      -0.00345904       0.00925450       0.00092289
O       -0.47659880       2.39972167       0.01795958       18       0.00245606       0.00507189       0.00816738
O       -0.95770944      -0.84411078       2.08719971       19       0.00345904       0.00382800       0.00847608
O        4.14808904       5.32488198       2.06924013       20       0.00987824       0.00088744       0.00030869
O        2.17401442       3.10562758       1.77462123       21      -0.00987824       0.00017638       0.00092289
O        2.17401442       6.68965663       0.29461890       22      -0.00987824       0.00071106      -0.00061420
O       -2.42134555       6.35503778       3.88944147       23      -0.00396314      -0.00400623       0.00816738
O        3.63765052       2.07068057       7.72500421       24      -0.00245606      -0.00507189      -0.00816738
O        5.58239728      -1.88463554       3.85352232       25       0.00396314       0.00400623      -0.00816738
O        6.79870226       3.45061540       1.80224176       26      -0.00245606       0.00960911      -0.00030869
O        3.90075792       2.42603735       4.16610080       27      -0.00396314       0.00907628      -0.00061420
O        0.73970618       4.63013157       7.43038531       28      -0.00396314      -0.00507005      -0.00755319
O        2.42134555      -0.15972933       0.31257848       29       0.00396314       0.00507005       0.00755319
O       -3.63765053       1.01978683       5.94072203       30       0.00245606      -0.00960911       0.00030869
O        5.36439402       0.84968853       2.09686066       31       0.00345904      -0.00925450      -0.00092289
O        0.98703731       1.36477465       5.96834256       32       0.00987824      -0.00017638      -0.00092289
O        3.63765053      -1.05089373       5.95868161       33      -0.00245606      -0.00453722       0.00847608
O        2.20334229      -0.00557775       3.55890342       34       0.00345904       0.00542650      -0.00755319
O        0.98703731      -2.21925439       7.44834489       35       0.00987824      -0.00071106       0.00061420
O       -0.73970619       2.04436488       3.57686300       36       0.00396314      -0.00907628       0.00061420
O       -0.98703731      -0.85447974       5.67372366       37      -0.00987824      -0.00088744      -0.00030869
O       -0.47659880       5.52129597       1.78428218       38       0.00245606       0.00453722      -0.00847608
O        4.11876117       5.31451301       5.65576408       39      -0.00345904      -0.00382800      -0.00847608
