40
Lattice="8.695068753486762 6.814964678425054e-10 3.867362977333722e-15 -2.898356251804777 8.197789437737834 -1.180390793199655e-09 -2.898356250840998 -4.098894718187418 7.099493908743641" Properties=species:S:1:pos:R:3:spacegroup_kinds:I:1:forces:R:3 spacegroup="P 1" unit_cell=conventional occupancy="_JSON {\"0\": {\"In\": 1}, \"1\": {\"In\": 1}, \"2\": {\"In\": 1}, \"3\": {\"In\": 1}, \"4\": {\"In\": 1}, \"5\": {\"In\": 1}, \"6\": {\"In\": 1}, \"7\": {\"In\": 1}, \"8\": {\"In\": 1}, \"9\": {\"In\": 1}, \"10\": {\"In\": 1}, \"11\": {\"In\": 1}, \"12\": {\"In\": 1}, \"13\": {\"In\": 1}, \"14\": {\"In\": 1}, \"15\": {\"In\": 1}, \"16\": {\"O\": 1}, \"17\": {\"O\": 1}, \"18\": {\"O\": 1}, \"19\": {\"O\": 1}, \"20\": {\"O\": 1}, \"21\": {\"O\": 1}, \"22\": {\"O\": 1}, \"23\": {\"O\": 1}, \"24\": {\"O\": 1}, \"25\": {\"O\": 1}, \"26\": {\"O\": 1}, \"27\": {\"O\": 1}, \"28\": {\"O\": 1}, \"29\": {\"O\": 1}, \"30\": {\"O\": 1}, \"31\": {\"O\": 1}, \"32\": {\"O\": 1}, \"33\": {\"O\": 1}, \"34\": {\"O\": 1}, \"35\": {\"O\": 1}, \"36\": {\"O\": 1}, \"37\": {\"O\": 1}, \"38\": {\"O\": 1}, \"39\": {\"O\": 1}}" n_minim_iter=3 energy=-45149.05590858337 stress="-0.035411491696242706 5.678189137331058e-13 -2.385709330243765e-13 5.678189137331058e-13 -0.03541149169485649 -9.631939227079426e-13 -2.385709330243765e-13 -9.631939227079426e-13 -0.03541149169529574" free_energy=-45149.05590858337 pbc="T T T"
In      -4.14861255       2.93351206       5.56824892        0      -0.00014337       0.00010138      -0.00017560
In       7.04696879       1.16538266       1.53124498        1       0.00014337      -0.00010138       0.00017560
In       1.25025629      -0.88406470       5.08099193        2       0.00014337      -0.00010138       0.00017560
In      -1.44917813      -2.04944736       3.54974695        3       0.00000000       0.00000000       0.00000000
In      -1.25025629       3.95823574       3.30611846        4      -0.00014337       0.00010138       0.00017560
In       4.54645621      -2.79285308       5.32462043        5      -0.00014337      -0.00020276       0.00000000
In      -1.25025629       1.30604164       5.32462043        6      -0.00014337      -0.00020276       0.00000000
In      -1.64809996       6.89174781       1.77487347        7       0.00014337       0.00020276      -0.00000000
In       4.14861254       0.14065898       3.79337545        8       0.00014337      -0.00010138      -0.00017560
In      -1.44917813       4.09889472      -0.00000000        9      -0.00000000      -0.00000000      -0.00000000
In       4.14861254       6.28900106       0.24362849       10       0.00014337      -0.00010138      -0.00017560
In      -1.25025629      -2.19010633       6.85586541       11      -0.00014337       0.00010138       0.00017560
In       4.14861254       2.79285309       1.77487347       12       0.00014337       0.00020276      -0.00000000
In       1.64809996       4.98295942       2.01850197       13      -0.00014337       0.00010138      -0.00017560
In       4.34753438       0.00000000      -0.00000000       14       0.00000000       0.00000000       0.00000000
In       1.44917812       2.04944736       3.54974695       15      -0.00000000       0.00000000      -0.00000000
O        0.85264419       4.09919360       3.87145865       16       0.00023146      -0.00066091      -0.00111119
O       -2.04571206       3.35263211       5.16350574       17       0.00023146      -0.00063186       0.00112796
O       -0.41908662       2.20243423       0.05621299       18      -0.00114169       0.00033910      -0.00055379
O       -0.85264419      -0.74596373       1.93547049       19      -0.00023146      -0.00129278       0.00001677
O        3.84279588       4.87731304       1.87925749       20      -0.00067288       0.00097304       0.00057057
O        1.95391662       2.86061915       1.61375879       21       0.00067288      -0.00000760       0.00112796
O        1.95391662       6.11558861       0.26549870       22       0.00067288       0.00098065      -0.00055740
O       -2.21617045       5.80931599       3.60595995       23      -0.00070027       0.00096336      -0.00055379
O        3.31744287       1.89646049       7.04328091       24       0.00114169      -0.00033910       0.00055379
O        5.11452670      -1.71042127       3.49353396       25       0.00070027      -0.00096336       0.00055379
O        6.21579912       3.19934636       1.67048946       26       0.00114169      -0.00031005      -0.00057057
O        3.58054205       2.26764229       3.81524566       27      -0.00070027      -0.00096128      -0.00055740
O        0.68218580       4.21972588       6.77778220       28      -0.00070027      -0.00000208       0.00111119
O        2.21617045      -0.12083116       0.32171170       29       0.00070027       0.00000208      -0.00111119
O       -3.31744288       0.89954836       5.42900445       30      -0.00114169       0.00031005       0.00057057
O        4.94406831       0.74626261       1.93598816       31      -0.00023146       0.00063186      -0.00112796
O        0.94443963       1.23827557       5.48573511       32      -0.00067288       0.00000760      -0.00112796
O        3.31744287      -0.99691212       5.48521744       33       0.00114169       0.00064915       0.00001677
O        2.04571206      -0.00029888       3.22803525       34      -0.00023146       0.00066091       0.00111119
O        0.94443963      -2.01669389       6.83399520       35      -0.00067288      -0.00098065       0.00055740
O       -0.68218581       1.83125243       3.28424825       36       0.00070027       0.00096128       0.00055740
O       -0.94443963      -0.77841832       5.22023641       37       0.00067288      -0.00097304      -0.00057057
O       -0.41908662       5.09580685       1.61427646       38      -0.00114169      -0.00064915      -0.00001677
O        3.75100044       4.84485846       5.16402341       39       0.00023146       0.00129278      -0.00001677
