40
Lattice="8.197089500485756 6.424704098266983e-10 2.1757002627240364e-14 -2.7323631674343125 7.728290095501219 -1.1127931494616775e-09 -2.7323631665257424 -3.8641450471081447 6.692895551261572" Properties=species:S:1:pos:R:3:spacegroup_kinds:I:1:forces:R:3 spacegroup="P 1" unit_cell=conventional occupancy="_JSON {\"0\": {\"In\": 1}, \"1\": {\"In\": 1}, \"2\": {\"In\": 1}, \"3\": {\"In\": 1}, \"4\": {\"In\": 1}, \"5\": {\"In\": 1}, \"6\": {\"In\": 1}, \"7\": {\"In\": 1}, \"8\": {\"In\": 1}, \"9\": {\"In\": 1}, \"10\": {\"In\": 1}, \"11\": {\"In\": 1}, \"12\": {\"In\": 1}, \"13\": {\"In\": 1}, \"14\": {\"In\": 1}, \"15\": {\"In\": 1}, \"16\": {\"O\": 1}, \"17\": {\"O\": 1}, \"18\": {\"O\": 1}, \"19\": {\"O\": 1}, \"20\": {\"O\": 1}, \"21\": {\"O\": 1}, \"22\": {\"O\": 1}, \"23\": {\"O\": 1}, \"24\": {\"O\": 1}, \"25\": {\"O\": 1}, \"26\": {\"O\": 1}, \"27\": {\"O\": 1}, \"28\": {\"O\": 1}, \"29\": {\"O\": 1}, \"30\": {\"O\": 1}, \"31\": {\"O\": 1}, \"32\": {\"O\": 1}, \"33\": {\"O\": 1}, \"34\": {\"O\": 1}, \"35\": {\"O\": 1}, \"36\": {\"O\": 1}, \"37\": {\"O\": 1}, \"38\": {\"O\": 1}, \"39\": {\"O\": 1}}" n_minim_iter=6 energy=-45143.24157188786 stress="-0.1023847313667718 -1.7687684580470417e-12 -1.3407437544667843e-12 -1.7687684580470417e-12 -0.10238473136712922 -3.4176702241563272e-15 -1.3407437544667843e-12 -3.4176702241563272e-15 -0.10238473136830885" free_energy=-45143.24157188786 pbc="T T T"
In      -3.92961881       2.77866011       5.22656285        0       0.00017236      -0.00012188       0.00021110
In       6.66198197       1.08548495       1.46633270        1      -0.00017236       0.00012188      -0.00021110
In       1.19725564      -0.84658758       4.81278048        2      -0.00017236       0.00012188      -0.00021110
In      -1.36618158      -1.93207252       3.34644777        3      -0.00000000      -0.00000000      -0.00000000
In      -1.19725564       3.74469637       3.13955659        4       0.00017236      -0.00012188      -0.00021110
In       4.26747070      -2.65921142       5.01967166        5       0.00017236       0.00024375       0.00000000
In      -1.19725564       1.20493363       5.01967166        6       0.00017236       0.00024375       0.00000000
In      -1.53510753       6.52335647       1.67322388        7      -0.00017236      -0.00024375      -0.00000000
In       3.92961880       0.11944868       3.55333896        8      -0.00017236       0.00012188       0.00021110
In      -1.36618159       3.86414505      -0.00000000        9       0.00000000       0.00000000      -0.00000000
In       3.92961880       5.91566626       0.20689118       10      -0.00017236       0.00012188       0.00021110
In      -1.19725564      -2.05152120       6.48600436       11       0.00017236      -0.00012188      -0.00021110
In       3.92961880       2.65921142       1.67322389       12      -0.00017236      -0.00024375       0.00000000
In       1.53510753       4.71073263       1.88011507       13       0.00017236      -0.00012188       0.00021110
In       4.09854475       0.00000000      -0.00000000       14      -0.00000000      -0.00000000       0.00000000
In       1.36618158       1.93207253       3.34644777       15       0.00000000       0.00000000      -0.00000000
O        0.77533537       3.85154120       3.66022689       16       0.00026996      -0.00004134      -0.00043885
O       -1.95702780       3.17615140       4.87369735       17       0.00026996      -0.00035938       0.00025522
O       -0.40208453       2.07664047       0.08521059       18      -0.00028782       0.00003503      -0.00042792
O       -0.77533537      -0.70059750       1.84102869       19      -0.00026996      -0.00040072      -0.00018362
O        3.64684685       4.61393891       1.75581810       20      -0.00042882       0.00015366       0.00024429
O        1.81787948       2.71845890       1.52724958       21       0.00042882      -0.00013473       0.00025522
O        1.81787948       5.75962506       0.22856852       22       0.00042882       0.00028839      -0.00001093
O       -2.09190359       5.48309302       3.43165836       23      -0.00012896       0.00025968      -0.00042792
O        3.13444770       1.78750458       6.60768496       24       0.00028782      -0.00003503       0.00042792
O        4.82426675      -1.61894796       3.26123718       25       0.00012896      -0.00025968       0.00042792
O        5.86681086       3.04418730       1.59062967       26       0.00028782      -0.00035307      -0.00024429
O        3.37282275       2.16242934       3.57501630       27      -0.00012896      -0.00050043      -0.00001093
O        0.64045958       3.94691279       6.37911643       28      -0.00012896       0.00024075       0.00043885
O        2.09190359      -0.08276774       0.31377912       29       0.00012896      -0.00024075      -0.00043885
O       -3.13444770       0.81995775       5.10226588       30      -0.00028782       0.00035307       0.00024429
O        4.68939096       0.68799365       1.81919819       31      -0.00026996       0.00035938      -0.00025522
O        0.91448368       1.14568616       5.16564597       32      -0.00042882       0.00013473      -0.00025522
O        3.13444770      -0.96754683       5.18747647       33       0.00028782       0.00038810      -0.00018362
O        1.95702780       0.01260385       3.03266866       34      -0.00026996       0.00004134       0.00043885
O        0.91448368      -1.89548001       6.46432702       35      -0.00042882      -0.00028839       0.00001093
O       -0.64045958       1.70171571       3.11787925       36       0.00012896       0.00050043       0.00001093
O       -0.91448369      -0.74979385       4.93707744       37       0.00042882      -0.00015366      -0.00024429
O       -0.40208453       4.83169188       1.50541908       38      -0.00028782      -0.00038810       0.00018362
O        3.50769854       4.56474255       4.85186685       39       0.00026996       0.00040072       0.00018362
