40
Lattice="5.751110052000207 -2.2912531554001558e-42 0.0 2.3704449992806973e-42 5.949883813993464 0.0 0.0 0.0 16.615188849243598" Properties=species:S:1:pos:R:3:spacegroup_kinds:I:1:forces:R:3 spacegroup="P 1" unit_cell=conventional occupancy="_JSON {\"0\": {\"In\": 1}, \"1\": {\"In\": 1}, \"2\": {\"In\": 1}, \"3\": {\"In\": 1}, \"4\": {\"In\": 1}, \"5\": {\"In\": 1}, \"6\": {\"In\": 1}, \"7\": {\"In\": 1}, \"8\": {\"In\": 1}, \"9\": {\"In\": 1}, \"10\": {\"In\": 1}, \"11\": {\"In\": 1}, \"12\": {\"In\": 1}, \"13\": {\"In\": 1}, \"14\": {\"In\": 1}, \"15\": {\"In\": 1}, \"16\": {\"O\": 1}, \"17\": {\"O\": 1}, \"18\": {\"O\": 1}, \"19\": {\"O\": 1}, \"20\": {\"O\": 1}, \"21\": {\"O\": 1}, \"22\": {\"O\": 1}, \"23\": {\"O\": 1}, \"24\": {\"O\": 1}, \"25\": {\"O\": 1}, \"26\": {\"O\": 1}, \"27\": {\"O\": 1}, \"28\": {\"O\": 1}, \"29\": {\"O\": 1}, \"30\": {\"O\": 1}, \"31\": {\"O\": 1}, \"32\": {\"O\": 1}, \"33\": {\"O\": 1}, \"34\": {\"O\": 1}, \"35\": {\"O\": 1}, \"36\": {\"O\": 1}, \"37\": {\"O\": 1}, \"38\": {\"O\": 1}, \"39\": {\"O\": 1}}" n_minim_iter=1 energy=-45149.688038968794 stress="0.026445919747771114 6.296099856076013e-13 4.870332894688597e-14 6.296099856076013e-13 0.02794180019464166 -7.316640709392121e-13 4.870332894688597e-14 -7.316640709392121e-13 0.029978413224755744" free_energy=-45149.688038968794 pbc="T T T"
In       2.87534003       4.75077936       9.47585990        0      -0.01811474       0.08070412       0.02948619
In      -0.00021500       4.17404636       7.13932895        1      -0.01811474      -0.08070412      -0.02948619
In       2.87577003       1.77583745      15.44692338        2       0.01811474       0.08070412      -0.02948619
In       5.75132505       1.19910445       1.16826547        3       0.01811474      -0.08070412       0.02948619
In       2.87577003       1.19910445       7.13932895        4       0.01811474      -0.08070412      -0.02948619
In       5.75132505       1.77583745       9.47585990        5       0.01811474       0.08070412       0.02948619
In       2.87534003       4.17404636       1.16826547        6      -0.01811474      -0.08070412       0.02948619
In      -0.00021500       4.75077936      15.44692338        7      -0.01811474       0.08070412      -0.02948619
In       2.85358793       4.40795064      13.60030726        8      -0.04387205      -0.03061481      -0.02014141
In       5.72914296       4.51687509       3.01488159        9      -0.04387205       0.03061481       0.02014141
In       2.89752212       1.43300873      11.32247601       10       0.04387205      -0.03061481       0.02014141
In       0.02196709       1.54193318       5.29271283       11       0.04387205       0.03061481      -0.02014141
In       2.89752212       1.54193318       3.01488159       12       0.04387205       0.03061481       0.02014141
In       0.02196709       1.43300873      13.60030726       13       0.04387205      -0.03061481      -0.02014141
In       2.85358793       4.51687509       5.29271283       14      -0.04387205       0.03061481      -0.02014141
In       5.72914296       4.40795064      11.32247601       15      -0.04387205      -0.03061481       0.02014141
O        4.94607966       5.18498044      13.25897371       16      -0.00122702      -0.07136124      -0.01557762
O        2.07052463       3.73984528       3.35621514       17      -0.00122702       0.07136124       0.01557762
O        0.80503040       2.21003853      11.66380957       18       0.00122702      -0.07136124       0.01557762
O        3.68058542       0.76490337       4.95137928       19       0.00122702       0.07136124      -0.01557762
O        0.80503040       0.76490337       3.35621514       20       0.00122702       0.07136124       0.01557762
O        3.68058542       2.21003853      13.25897371       21       0.00122702      -0.07136124      -0.01557762
O        4.94607966       3.73984528       4.95137928       22      -0.00122702       0.07136124      -0.01557762
O        2.07052463       5.18498044      11.66380957       23      -0.00122702      -0.07136124       0.01557762
O        4.04424035       3.12175822      10.35744055       24      -0.06568544      -0.02231534       0.00225232
O        1.16868532       5.80306750       6.25774830       25      -0.06568544       0.02231534      -0.00225232
O        1.70686970       0.14681632      14.56534272       26       0.06568544      -0.02231534      -0.00225232
O        4.58242473       2.82812559       2.04984613       27       0.06568544       0.02231534       0.00225232
O        1.70686970       2.82812559       6.25774830       28       0.06568544       0.02231534      -0.00225232
O        4.58242473       0.14681632      10.35744055       29       0.06568544      -0.02231534       0.00225232
O        4.04424035       5.80306750       2.04984613       30      -0.06568544       0.02231534       0.00225232
O        1.16868532       3.12175822      14.56534272       31      -0.06568544      -0.02231534      -0.00225232
O        3.73001845       3.91919192      15.74992642       32       0.00642770      -0.00140046       0.06718750
O        0.85446343       5.00563381       0.86526242       33       0.00642770       0.00140046      -0.06718750
O        2.02109160       0.94425001       9.17285685       34      -0.00642770      -0.00140046      -0.06718750
O        4.89664662       2.03069190       7.44233200       35      -0.00642770       0.00140046       0.06718750
O        2.02109160       2.03069190       0.86526242       36      -0.00642770       0.00140046      -0.06718750
O        4.89664662       0.94425001      15.74992642       37      -0.00642770      -0.00140046       0.06718750
O        3.73001845       5.00563381       7.44233200       38       0.00642770       0.00140046       0.06718750
O        0.85446343       3.91919192       9.17285685       39       0.00642770      -0.00140046      -0.06718750
40
Lattice="5.761811910981896 -2.354255562187855e-42 0.0 2.480130245860403e-42 5.951073440565848 0.0 0.0 0.0 16.58101294699826" Properties=species:S:1:pos:R:3:spacegroup_kinds:I:1:forces:R:3 spacegroup="P 1" unit_cell=conventional occupancy="_JSON {\"0\": {\"In\": 1}, \"1\": {\"In\": 1}, \"2\": {\"In\": 1}, \"3\": {\"In\": 1}, \"4\": {\"In\": 1}, \"5\": {\"In\": 1}, \"6\": {\"In\": 1}, \"7\": {\"In\": 1}, \"8\": {\"In\": 1}, \"9\": {\"In\": 1}, \"10\": {\"In\": 1}, \"11\": {\"In\": 1}, \"12\": {\"In\": 1}, \"13\": {\"In\": 1}, \"14\": {\"In\": 1}, \"15\": {\"In\": 1}, \"16\": {\"O\": 1}, \"17\": {\"O\": 1}, \"18\": {\"O\": 1}, \"19\": {\"O\": 1}, \"20\": {\"O\": 1}, \"21\": {\"O\": 1}, \"22\": {\"O\": 1}, \"23\": {\"O\": 1}, \"24\": {\"O\": 1}, \"25\": {\"O\": 1}, \"26\": {\"O\": 1}, \"27\": {\"O\": 1}, \"28\": {\"O\": 1}, \"29\": {\"O\": 1}, \"30\": {\"O\": 1}, \"31\": {\"O\": 1}, \"32\": {\"O\": 1}, \"33\": {\"O\": 1}, \"34\": {\"O\": 1}, \"35\": {\"O\": 1}, \"36\": {\"O\": 1}, \"37\": {\"O\": 1}, \"38\": {\"O\": 1}, \"39\": {\"O\": 1}}" n_minim_iter=2 energy=-45149.69036346884 stress="0.027713699784186537 -1.9091876788442575e-13 -1.2608305925100742e-12 -1.9091876788442575e-13 0.02843650921861922 -5.133507789393289e-13 -1.2608305925100742e-12 -5.133507789393289e-13 0.027578985215763553" free_energy=-45149.69036346884 pbc="T T T"
In       2.88065515       4.75188671       9.45642634        0      -0.03210494       0.07737016       0.03119999
In      -0.00025081       4.17472345       7.12458661        1      -0.03210494      -0.07737016      -0.03119999
In       2.88115676       1.77634999      15.41509308        2       0.03210494       0.07737016      -0.03119999
In       5.76206272       1.19918673       1.16591986        3       0.03210494      -0.07737016       0.03119999
In       2.88115676       1.19918673       7.12458661        4       0.03210494      -0.07737016      -0.03119999
In       5.76206272       1.77634999       9.45642634        5       0.03210494       0.07737016       0.03119999
In       2.88065515       4.17472345       1.16591986        6      -0.03210494      -0.07737016       0.03119999
In      -0.00025081       4.75188671      15.41509308        7      -0.03210494       0.07737016      -0.03119999
In       2.85881224       4.40877223      13.57229348        8      -0.03329254      -0.03209017      -0.01429492
In       5.73971819       4.51783793       3.00871947        9      -0.03329254       0.03209017       0.01429492
In       2.90299967       1.43323551      11.29922594       10       0.03329254      -0.03209017       0.01429492
In       0.02209372       1.54230121       5.28178700       11       0.03329254       0.03209017      -0.01429492
In       2.90299967       1.54230121       3.00871947       12       0.03329254       0.03209017       0.01429492
In       0.02209372       1.43323551      13.57229348       13       0.03329254      -0.03209017      -0.01429492
In       2.85881224       4.51783793       5.28178700       14      -0.03329254       0.03209017      -0.01429492
In       5.73971819       4.40877223      11.29922594       15      -0.03329254      -0.03209017       0.01429492
O        4.95528109       5.18587789      13.23167090       16      -0.00718907      -0.06815610       0.00104660
O        2.07437513       3.74073227       3.34934204       17      -0.00718907       0.06815610      -0.00104660
O        0.80653082       2.21034117      11.63984852       18       0.00718907      -0.06815610      -0.00104660
O        3.68743678       0.76519555       4.94116443       19       0.00718907       0.06815610       0.00104660
O        0.80653082       0.76519555       3.34934204       20       0.00718907       0.06815610      -0.00104660
O        3.68743678       2.21034117      13.23167090       21       0.00718907      -0.06815610       0.00104660
O        4.95528109       3.74073227       4.94116443       22      -0.00718907       0.06815610       0.00104660
O        2.07437513       5.18587789      11.63984852       23      -0.00718907      -0.06815610      -0.00104660
O        4.05163762       3.12233885      10.33614064       24      -0.06532646      -0.01797688      -0.00340961
O        1.17073167       5.80427131       6.24487230       25      -0.06532646       0.01797688       0.00340961
O        1.71017429       0.14680213      14.53537878       26       0.06532646      -0.01797688       0.00340961
O        4.59108024       2.82873459       2.04563417       27       0.06532646       0.01797688      -0.00340961
O        1.71017429       2.82873459       6.24487230       28       0.06532646       0.01797688       0.00340961
O        4.59108024       0.14680213      10.33614064       29       0.06532646      -0.01797688      -0.00340961
O        4.05163762       5.80427131       2.04563417       30      -0.06532646       0.01797688      -0.00340961
O        1.17073167       3.12233885      14.53537878       31      -0.06532646      -0.01797688       0.00340961
O        3.73697196       3.91997279      15.71766109       32       0.01460227       0.00221967       0.05706735
O        0.85606601       5.00663737       0.86335185       33       0.01460227      -0.00221967      -0.05706735
O        2.02483995       0.94443607       9.15385833       34      -0.01460227       0.00221967      -0.05706735
O        4.90574590       2.03110065       7.42715462       35      -0.01460227      -0.00221967       0.05706735
O        2.02483995       2.03110065       0.86335185       36      -0.01460227      -0.00221967      -0.05706735
O        4.90574590       0.94443607      15.71766109       37      -0.01460227       0.00221967       0.05706735
O        3.73697196       5.00663737       7.42715462       38       0.01460227      -0.00221967       0.05706735
O        0.85606601       3.91997279       9.15385833       39       0.01460227       0.00221967      -0.05706735
40
Lattice="5.769126379885292 -2.3768869129982023e-42 0.0 2.4793514931152306e-42 5.941530164400259 0.0 0.0 0.0 16.58658910397844" Properties=species:S:1:pos:R:3:spacegroup_kinds:I:1:forces:R:3 spacegroup="P 1" unit_cell=conventional occupancy="_JSON {\"0\": {\"In\": 1}, \"1\": {\"In\": 1}, \"2\": {\"In\": 1}, \"3\": {\"In\": 1}, \"4\": {\"In\": 1}, \"5\": {\"In\": 1}, \"6\": {\"In\": 1}, \"7\": {\"In\": 1}, \"8\": {\"In\": 1}, \"9\": {\"In\": 1}, \"10\": {\"In\": 1}, \"11\": {\"In\": 1}, \"12\": {\"In\": 1}, \"13\": {\"In\": 1}, \"14\": {\"In\": 1}, \"15\": {\"In\": 1}, \"16\": {\"O\": 1}, \"17\": {\"O\": 1}, \"18\": {\"O\": 1}, \"19\": {\"O\": 1}, \"20\": {\"O\": 1}, \"21\": {\"O\": 1}, \"22\": {\"O\": 1}, \"23\": {\"O\": 1}, \"24\": {\"O\": 1}, \"25\": {\"O\": 1}, \"26\": {\"O\": 1}, \"27\": {\"O\": 1}, \"28\": {\"O\": 1}, \"29\": {\"O\": 1}, \"30\": {\"O\": 1}, \"31\": {\"O\": 1}, \"32\": {\"O\": 1}, \"33\": {\"O\": 1}, \"34\": {\"O\": 1}, \"35\": {\"O\": 1}, \"36\": {\"O\": 1}, \"37\": {\"O\": 1}, \"38\": {\"O\": 1}, \"39\": {\"O\": 1}}" n_minim_iter=3 energy=-45149.69128968354 stress="0.02844259309889463 -3.977752271150605e-13 -4.361693495475428e-13 -3.977752271150605e-13 0.027245471959171562 -4.599813738720554e-13 -4.361693495475428e-13 -4.599813738720554e-13 0.02803735499127569" free_energy=-45149.69128968354 pbc="T T T"
In       2.88411938       4.74475309       9.45980022        0      -0.03594866       0.06167172       0.02455704
In      -0.00044381       4.16754215       7.12678889        1      -0.03594866      -0.06167172      -0.02455704
In       2.88500700       1.77398801      15.42008344        2       0.03594866       0.06167172      -0.02455704
In       5.76957019       1.19677707       1.16650567        3       0.03594866      -0.06167172       0.02455704
In       2.88500700       1.19677707       7.12678889        4       0.03594866      -0.06167172      -0.02455704
In       5.76957019       1.77398801       9.45980022        5       0.03594866       0.06167172       0.02455704
In       2.88411938       4.16754215       1.16650567        6      -0.03594866      -0.06167172       0.02455704
In      -0.00044381       4.74475309      15.42008344        7      -0.03594866       0.06167172      -0.02455704
In       2.86222456       4.40150233      13.57676457        8      -0.02248230      -0.02636061      -0.01860187
In       5.74678775       4.51079292       3.00982453        9      -0.02248230       0.02636061       0.01860187
In       2.90690182       1.43073724      11.30311908       10       0.02248230      -0.02636061       0.01860187
In       0.02233863       1.54002784       5.28347002       11       0.02248230       0.02636061      -0.01860187
In       2.90690182       1.54002784       3.00982453       12       0.02248230       0.02636061       0.01860187
In       0.02233863       1.43073724      13.57676457       13       0.02248230      -0.02636061      -0.01860187
In       2.86222456       4.51079292       5.28347002       14      -0.02248230       0.02636061      -0.01860187
In       5.74678775       4.40150233      11.30311908       15      -0.02248230      -0.02636061       0.01860187
O        4.96153046       5.17713285      13.23611598       16      -0.00736636      -0.06843130       0.00296360
O        2.07696727       3.73516239       3.35047313       17      -0.00736636       0.06843130      -0.00296360
O        0.80759592       2.20636777      11.64376768       18       0.00736636      -0.06843130      -0.00296360
O        3.69215911       0.76439731       4.94282142       19       0.00736636       0.06843130       0.00296360
O        0.80759592       0.76439731       3.35047313       20       0.00736636       0.06843130      -0.00296360
O        3.69215911       2.20636777      13.23611598       21       0.00736636      -0.06843130       0.00296360
O        4.96153046       3.73516239       4.94282142       22      -0.00736636       0.06843130       0.00296360
O        2.07696727       5.17713285      11.64376768       23      -0.00736636      -0.06843130      -0.00296360
O        4.05636940       3.11721632      10.33959920       24      -0.05525816      -0.01339056      -0.00087858
O        1.17180621       5.79507893       6.24698991       25      -0.05525816       0.01339056       0.00087858
O        1.71275698       0.14645124      14.54028446       26       0.05525816      -0.01339056       0.00087858
O        4.59732017       2.82431385       2.04630464       27       0.05525816       0.01339056      -0.00087858
O        1.71275698       2.82431385       6.24698991       28       0.05525816       0.01339056       0.00087858
O        4.59732017       0.14645124      10.33959920       29       0.05525816      -0.01339056      -0.00087858
O        4.05636940       5.79507893       2.04630464       30      -0.05525816       0.01339056      -0.00087858
O        1.17180621       3.11721632      14.54028446       31      -0.05525816      -0.01339056       0.00087858
O        3.74180236       3.91369808      15.72331018       32       0.01083460       0.00952923       0.05119351
O        0.85723917       4.99859717       0.86327893       33       0.01083460      -0.00952923      -0.05119351
O        2.02732402       0.94293300       9.15657348       34      -0.01083460       0.00952923      -0.05119351
O        4.91188721       2.02783208       7.43001562       35      -0.01083460      -0.00952923       0.05119351
O        2.02732402       2.02783208       0.86327893       36      -0.01083460      -0.00952923      -0.05119351
O        4.91188721       0.94293300      15.72331018       37      -0.01083460       0.00952923       0.05119351
O        3.74180236       4.99859717       7.43001562       38       0.01083460      -0.00952923       0.05119351
O        0.85723917       3.91369808       9.15657348       39       0.01083460       0.00952923      -0.05119351
40
Lattice="5.75368004319009 -2.6713434850795113e-42 0.0 2.8307510930215005e-42 5.960573308858114 0.0 0.0 0.0 16.57798353726868" Properties=species:S:1:pos:R:3:spacegroup_kinds:I:1:forces:R:3 spacegroup="P 1" unit_cell=conventional occupancy="_JSON {\"0\": {\"In\": 1}, \"1\": {\"In\": 1}, \"2\": {\"In\": 1}, \"3\": {\"In\": 1}, \"4\": {\"In\": 1}, \"5\": {\"In\": 1}, \"6\": {\"In\": 1}, \"7\": {\"In\": 1}, \"8\": {\"In\": 1}, \"9\": {\"In\": 1}, \"10\": {\"In\": 1}, \"11\": {\"In\": 1}, \"12\": {\"In\": 1}, \"13\": {\"In\": 1}, \"14\": {\"In\": 1}, \"15\": {\"In\": 1}, \"16\": {\"O\": 1}, \"17\": {\"O\": 1}, \"18\": {\"O\": 1}, \"19\": {\"O\": 1}, \"20\": {\"O\": 1}, \"21\": {\"O\": 1}, \"22\": {\"O\": 1}, \"23\": {\"O\": 1}, \"24\": {\"O\": 1}, \"25\": {\"O\": 1}, \"26\": {\"O\": 1}, \"27\": {\"O\": 1}, \"28\": {\"O\": 1}, \"29\": {\"O\": 1}, \"30\": {\"O\": 1}, \"31\": {\"O\": 1}, \"32\": {\"O\": 1}, \"33\": {\"O\": 1}, \"34\": {\"O\": 1}, \"35\": {\"O\": 1}, \"36\": {\"O\": 1}, \"37\": {\"O\": 1}, \"38\": {\"O\": 1}, \"39\": {\"O\": 1}}" n_minim_iter=4 energy=-45149.70512185631 stress="0.02597937551735119 7.660585879689802e-13 -1.767856050767596e-14 7.660585879689802e-13 0.026821152638042463 1.0415060732580655e-12 -1.767856050767596e-14 1.0415060732580655e-12 0.025179074326753457" free_energy=-45149.70512185631 pbc="T T T"
In       2.87096444       4.77162810       9.45951828        0      -0.01041208       0.00848454       0.00245734
In      -0.00587558       4.16923186       7.11846526        1      -0.01041208      -0.00848454      -0.00245734
In       2.88271560       1.79134145      15.40745703        2       0.01041208       0.00848454      -0.00245734
In       5.75955563       1.18894521       1.17052651        3       0.01041208      -0.00848454       0.00245734
In       2.88271560       1.18894521       7.11846526        4       0.01041208      -0.00848454      -0.00245734
In       5.75955563       1.79134145       9.45951828        5       0.01041208       0.00848454       0.00245734
In       2.87096444       4.16923186       1.17052651        6      -0.01041208      -0.00848454       0.00245734
In      -0.00587558       4.77162810      15.40745703        7      -0.01041208       0.00848454      -0.00245734
In       2.84973110       4.41074379      13.56700933        8      -0.01300842      -0.03209621      -0.00668533
In       5.72657112       4.53011618       3.01097420        9      -0.01300842       0.03209621       0.00668533
In       2.90394894       1.43045713      11.29996597       10       0.01300842      -0.03209621       0.00668533
In       0.02710892       1.54982952       5.27801756       11       0.01300842       0.03209621      -0.00668533
In       2.90394894       1.54982952       3.01097420       12       0.01300842       0.03209621       0.00668533
In       0.02710892       1.43045713      13.56700933       13       0.01300842      -0.03209621      -0.00668533
In       2.84973110       4.53011618       5.27801756       14      -0.01300842       0.03209621      -0.00668533
In       5.72657112       4.41074379      11.29996597       15      -0.01300842      -0.03209621       0.00668533
O        4.94710800       5.18243598      13.22938629       16      -0.01401316      -0.01903547       0.02061133
O        2.07026798       3.75842399       3.34859725       17      -0.01401316       0.01903547      -0.02061133
O        0.80657204       2.20214932      11.63758902       18       0.01401316      -0.01903547      -0.02061133
O        3.68341207       0.77813733       4.94039452       19       0.01401316       0.01903547       0.02061133
O        0.80657204       0.77813733       3.34859725       20       0.01401316       0.01903547      -0.02061133
O        3.68341207       2.20214932      13.22938629       21       0.01401316      -0.01903547       0.02061133
O        4.94710800       3.75842399       4.94039452       22      -0.01401316       0.01903547       0.02061133
O        2.07026798       5.18243598      11.63758902       23      -0.01401316      -0.01903547      -0.02061133
O        4.03544133       3.12452676      10.33391398       24       0.02833950       0.00623482       0.00489014
O        1.15860131       5.81633321       6.24406956       25       0.02833950      -0.00623482      -0.00489014
O        1.71823871       0.14424010      14.53306133       26      -0.02833950       0.00623482      -0.00489014
O        4.59507873       2.83604655       2.04492221       27      -0.02833950      -0.00623482       0.00489014
O        1.71823871       2.83604655       6.24406956       28      -0.02833950      -0.00623482      -0.00489014
O        4.59507873       0.14424010      10.33391398       29      -0.02833950       0.00623482       0.00489014
O        4.03544133       5.81633321       2.04492221       30       0.02833950      -0.00623482       0.00489014
O        1.15860131       3.12452676      14.53306133       31       0.02833950       0.00623482      -0.00489014
O        3.73384051       3.92709350      15.72419715       32      -0.02615455      -0.02450149      -0.03584698
O        0.85700049       5.01376646       0.85378639       33      -0.02615455       0.02450149       0.03584698
O        2.01983954       0.94680685       9.14277816       34       0.02615455      -0.02450149       0.03584698
O        4.89667956       2.03347981       7.43520538       35       0.02615455       0.02450149      -0.03584698
O        2.01983954       2.03347981       0.85378639       36       0.02615455       0.02450149       0.03584698
O        4.89667956       0.94680685      15.72419715       37       0.02615455      -0.02450149      -0.03584698
O        3.73384051       5.01376646       7.43520538       38      -0.02615455       0.02450149      -0.03584698
O        0.85700049       3.92709350       9.14277816       39      -0.02615455      -0.02450149       0.03584698
40
Lattice="5.755171623398436 -2.6723028516992685e-42 0.0 2.827926587410273e-42 5.955050154473793 0.0 0.0 0.0 16.589058649930546" Properties=species:S:1:pos:R:3:spacegroup_kinds:I:1:forces:R:3 spacegroup="P 1" unit_cell=conventional occupancy="_JSON {\"0\": {\"In\": 1}, \"1\": {\"In\": 1}, \"2\": {\"In\": 1}, \"3\": {\"In\": 1}, \"4\": {\"In\": 1}, \"5\": {\"In\": 1}, \"6\": {\"In\": 1}, \"7\": {\"In\": 1}, \"8\": {\"In\": 1}, \"9\": {\"In\": 1}, \"10\": {\"In\": 1}, \"11\": {\"In\": 1}, \"12\": {\"In\": 1}, \"13\": {\"In\": 1}, \"14\": {\"In\": 1}, \"15\": {\"In\": 1}, \"16\": {\"O\": 1}, \"17\": {\"O\": 1}, \"18\": {\"O\": 1}, \"19\": {\"O\": 1}, \"20\": {\"O\": 1}, \"21\": {\"O\": 1}, \"22\": {\"O\": 1}, \"23\": {\"O\": 1}, \"24\": {\"O\": 1}, \"25\": {\"O\": 1}, \"26\": {\"O\": 1}, \"27\": {\"O\": 1}, \"28\": {\"O\": 1}, \"29\": {\"O\": 1}, \"30\": {\"O\": 1}, \"31\": {\"O\": 1}, \"32\": {\"O\": 1}, \"33\": {\"O\": 1}, \"34\": {\"O\": 1}, \"35\": {\"O\": 1}, \"36\": {\"O\": 1}, \"37\": {\"O\": 1}, \"38\": {\"O\": 1}, \"39\": {\"O\": 1}}" n_minim_iter=5 energy=-45149.70600410185 stress="0.02600866810013486 3.920322139867647e-13 2.1083692776538937e-13 3.920322139867647e-13 0.025802803322767034 -8.736487934533868e-14 2.1083692776538937e-13 -8.736487934533868e-14 0.026035347337904764" free_energy=-45149.70600410185 pbc="T T T"
In       2.87165958       4.76708805       9.46576723        0      -0.01107626       0.00577780      -0.00204378
In      -0.00592623       4.16548718       7.12329142        1      -0.01107626      -0.00577780       0.00204378
In       2.88351204       1.78956297      15.41782075        2       0.01107626       0.00577780       0.00204378
In       5.76109785       1.18796211       1.17123790        3       0.01107626      -0.00577780      -0.00204378
In       2.88351204       1.18796211       7.12329142        4       0.01107626      -0.00577780       0.00204378
In       5.76109785       1.78956297       9.46576723        5       0.01107626       0.00577780      -0.00204378
In       2.87165958       4.16548718       1.17123790        6      -0.01107626      -0.00577780      -0.00204378
In      -0.00592623       4.76708805      15.41782075        7      -0.01107626       0.00577780       0.00204378
In       2.85039087       4.40633252      13.57597494        8      -0.01246140      -0.02711320      -0.01086920
In       5.72797668       4.52624271       3.01308371        9      -0.01246140       0.02711320       0.01086920
In       2.90478075       1.42880745      11.30761303       10       0.01246140      -0.02711320       0.01086920
In       0.02719494       1.54871763       5.28144562       11       0.01246140       0.02711320      -0.01086920
In       2.90478075       1.54871763       3.01308371       12       0.01246140       0.02711320       0.01086920
In       0.02719494       1.42880745      13.57597494       13       0.01246140      -0.02711320      -0.01086920
In       2.85039087       4.52624271       5.28144562       14      -0.01246140       0.02711320      -0.01086920
In       5.72797668       4.40633252      11.30761303       15      -0.01246140      -0.02711320       0.01086920
O        4.94823719       5.17751243      13.23845326       16      -0.01233157      -0.02212955       0.01326726
O        2.07065138       3.75506280       3.35060539       17      -0.01233157       0.02212955      -0.01326726
O        0.80693443       2.19998735      11.64513471       18       0.01233157      -0.02212955      -0.01326726
O        3.68452024       0.77753772       4.94392394       19       0.01233157       0.02212955       0.01326726
O        0.80693443       0.77753772       3.35060539       20       0.01233157       0.02212955      -0.01326726
O        3.68452024       2.19998735      13.23845326       21       0.01233157      -0.02212955       0.01326726
O        4.94823719       3.75506280       4.94392394       22      -0.01233157       0.02212955       0.01326726
O        2.07065138       5.17751243      11.64513471       23      -0.01233157      -0.02212955      -0.01326726
O        4.03704739       3.12176177      10.34091869       24       0.02311564       0.00118458       0.00800263
O        1.15946158       5.81081347       6.24813996       25       0.02311564      -0.00118458      -0.00800263
O        1.71812423       0.14423669      14.54266928       26      -0.02311564       0.00118458      -0.00800263
O        4.59571005       2.83328839       2.04638937       27      -0.02311564      -0.00118458       0.00800263
O        1.71812423       2.83328839       6.24813996       28      -0.02311564      -0.00118458      -0.00800263
O        4.59571005       0.14423669      10.34091869       29      -0.02311564       0.00118458       0.00800263
O        4.03704739       5.81081347       2.04638937       30       0.02311564      -0.00118458       0.00800263
O        1.15946158       3.12176177      14.54266928       31       0.02311564       0.00118458      -0.00800263
O        3.73438914       3.92315257      15.73411423       32      -0.02478014      -0.01744554      -0.02846616
O        0.85680332       5.00942266       0.85494442       33      -0.02478014       0.01744554       0.02846616
O        2.02078249       0.94562749       9.14947374       34       0.02478014      -0.01744554       0.02846616
O        4.89836830       2.03189758       7.43958491       35       0.02478014       0.01744554      -0.02846616
O        2.02078249       2.03189758       0.85494442       36       0.02478014       0.01744554       0.02846616
O        4.89836830       0.94562749      15.73411423       37       0.02478014      -0.01744554      -0.02846616
O        3.73438914       5.00942266       7.43958491       38      -0.02478014       0.01744554      -0.02846616
O        0.85680332       3.92315257       9.14947374       39      -0.02478014      -0.01744554       0.02846616
40