40
Lattice="5.420375723851094 -1.043467950088395e-42 -2.7470863097209526e-83 9.634468230401499e-43 5.174897727268169 1.2461013390969702e-40 2.6322941697917386e-84 3.991453857099212e-40 15.201818602302422" Properties=species:S:1:pos:R:3:spacegroup_kinds:I:1:forces:R:3 spacegroup="P 1" unit_cell=conventional occupancy="_JSON {\"0\": {\"In\": 1}, \"1\": {\"In\": 1}, \"2\": {\"In\": 1}, \"3\": {\"In\": 1}, \"4\": {\"In\": 1}, \"5\": {\"In\": 1}, \"6\": {\"In\": 1}, \"7\": {\"In\": 1}, \"8\": {\"In\": 1}, \"9\": {\"In\": 1}, \"10\": {\"In\": 1}, \"11\": {\"In\": 1}, \"12\": {\"In\": 1}, \"13\": {\"In\": 1}, \"14\": {\"In\": 1}, \"15\": {\"In\": 1}, \"16\": {\"O\": 1}, \"17\": {\"O\": 1}, \"18\": {\"O\": 1}, \"19\": {\"O\": 1}, \"20\": {\"O\": 1}, \"21\": {\"O\": 1}, \"22\": {\"O\": 1}, \"23\": {\"O\": 1}, \"24\": {\"O\": 1}, \"25\": {\"O\": 1}, \"26\": {\"O\": 1}, \"27\": {\"O\": 1}, \"28\": {\"O\": 1}, \"29\": {\"O\": 1}, \"30\": {\"O\": 1}, \"31\": {\"O\": 1}, \"32\": {\"O\": 1}, \"33\": {\"O\": 1}, \"34\": {\"O\": 1}, \"35\": {\"O\": 1}, \"36\": {\"O\": 1}, \"37\": {\"O\": 1}, \"38\": {\"O\": 1}, \"39\": {\"O\": 1}}" n_minim_iter=17 energy=-45151.95791855078 stress="0.02147626194300693 1.9846285970772099e-13 8.239976037202161e-13 1.9846285970772099e-13 0.021382896040654895 2.2816266040655923e-13 8.239976037202161e-13 2.2816266040655923e-13 0.021462323465359492" free_energy=-45151.95791855078 pbc="T T T"
In       2.62000938       4.02917906       8.64326399        0       0.00217084       0.00128820       0.00157709
In      -0.09017848       3.73316753       6.55855461        1       0.00217084      -0.00128820      -0.00157709
In       2.80036634       1.44173020      14.15946391        2      -0.00217084       0.00128820      -0.00157709
In       5.51055421       1.14571867       1.04235469        3      -0.00217084      -0.00128820       0.00157709
In       2.80036634       1.14571867       6.55855461        4      -0.00217084      -0.00128820      -0.00157709
In       5.51055421       1.44173020       8.64326399        5      -0.00217084       0.00128820       0.00157709
In       2.62000938       3.73316753       1.04235469        6       0.00217084      -0.00128820       0.00157709
In      -0.09017848       4.02917906      14.15946391        7       0.00217084       0.00128820      -0.00157709
In       2.64770607       3.85560379      12.34060840        8      -0.00197546      -0.00434158       0.00515393
In       5.35789393       3.90674280       2.86121020        9      -0.00197546       0.00434158      -0.00515393
In       2.77266965       1.26815493      10.46211950       10       0.00197546      -0.00434158      -0.00515393
In       0.06248179       1.31929394       4.73969910       11       0.00197546       0.00434158       0.00515393
In       2.77266965       1.31929394       2.86121020       12       0.00197546       0.00434158      -0.00515393
In       0.06248179       1.26815493      12.34060840       13       0.00197546      -0.00434158       0.00515393
In       2.64770607       3.90674280       4.73969910       14      -0.00197546       0.00434158       0.00515393
In       5.35789393       3.85560379      10.46211950       15      -0.00197546      -0.00434158      -0.00515393
O        4.59910538       4.54928571      12.18842806       16      -0.00214331       0.00024248       0.00017596
O        1.88891752       3.21306088       3.01339054       17      -0.00214331      -0.00024248      -0.00017596
O        0.82127034       1.96183684      10.61429984       18       0.00214331       0.00024248      -0.00017596
O        3.53145820       0.62561202       4.58751876       19       0.00214331      -0.00024248       0.00017596
O        0.82127034       0.62561202       3.01339054       20       0.00214331      -0.00024248      -0.00017596
O        3.53145820       1.96183684      12.18842806       21       0.00214331       0.00024248       0.00017596
O        4.59910538       3.21306088       4.58751876       22      -0.00214331      -0.00024248       0.00017596
O        1.88891752       4.54928571      10.61429984       23      -0.00214331       0.00024248      -0.00017596
O        3.86724391       2.71643185       9.53531098       24       0.00655517       0.00555986      -0.00285583
O        1.15705604       5.04591474       5.66650762       25       0.00655517      -0.00555986       0.00285583
O        1.55313182       0.12898298      13.26741692       26      -0.00655517       0.00555986       0.00285583
O        4.26331968       2.45846588       1.93440168       27      -0.00655517      -0.00555986      -0.00285583
O        1.55313182       2.45846588       5.66650762       28      -0.00655517      -0.00555986       0.00285583
O        4.26331968       0.12898298       9.53531098       29      -0.00655517       0.00555986      -0.00285583
O        3.86724391       5.04591474       1.93440168       30       0.00655517      -0.00555986      -0.00285583
O        1.15705604       2.71643185      13.26741692       31       0.00655517       0.00555986       0.00285583
O        3.35493573       3.67207477      14.37092509       32       0.00222266       0.00144005       0.00196265
O        0.64474787       4.09027183       0.83089351       33       0.00222266      -0.00144005      -0.00196265
O        2.06543999       1.08462590       8.43180281       34      -0.00222266       0.00144005      -0.00196265
O        4.77562785       1.50282296       6.77001579       35      -0.00222266      -0.00144005       0.00196265
O        2.06543999       1.50282296       0.83089351       36      -0.00222266      -0.00144005      -0.00196265
O        4.77562785       1.08462590      14.37092509       37      -0.00222266       0.00144005       0.00196265
O        3.35493573       4.09027183       6.77001579       38       0.00222266      -0.00144005       0.00196265
O        0.64474787       3.67207477       8.43180281       39       0.00222266       0.00144005      -0.00196265
