40
Lattice="5.365061907920599 -9.988510156177556e-43 2.529725967500096e-83 9.536150469892823e-43 5.122088963645806 1.2333851320269957e-40 -1.3840358456709555e-82 -3.623201468321423e-40 15.046687179903705" Properties=species:S:1:pos:R:3:spacegroup_kinds:I:1:forces:R:3 spacegroup="P 1" unit_cell=conventional occupancy="_JSON {\"0\": {\"In\": 1}, \"1\": {\"In\": 1}, \"2\": {\"In\": 1}, \"3\": {\"In\": 1}, \"4\": {\"In\": 1}, \"5\": {\"In\": 1}, \"6\": {\"In\": 1}, \"7\": {\"In\": 1}, \"8\": {\"In\": 1}, \"9\": {\"In\": 1}, \"10\": {\"In\": 1}, \"11\": {\"In\": 1}, \"12\": {\"In\": 1}, \"13\": {\"In\": 1}, \"14\": {\"In\": 1}, \"15\": {\"In\": 1}, \"16\": {\"O\": 1}, \"17\": {\"O\": 1}, \"18\": {\"O\": 1}, \"19\": {\"O\": 1}, \"20\": {\"O\": 1}, \"21\": {\"O\": 1}, \"22\": {\"O\": 1}, \"23\": {\"O\": 1}, \"24\": {\"O\": 1}, \"25\": {\"O\": 1}, \"26\": {\"O\": 1}, \"27\": {\"O\": 1}, \"28\": {\"O\": 1}, \"29\": {\"O\": 1}, \"30\": {\"O\": 1}, \"31\": {\"O\": 1}, \"32\": {\"O\": 1}, \"33\": {\"O\": 1}, \"34\": {\"O\": 1}, \"35\": {\"O\": 1}, \"36\": {\"O\": 1}, \"37\": {\"O\": 1}, \"38\": {\"O\": 1}, \"39\": {\"O\": 1}}" n_minim_iter=1 energy=-45151.953848603036 stress="-0.025195302515282795 -1.8822605922560322e-13 5.137409367166273e-13 -1.8822605922560322e-13 -0.03374084633192713 3.733882424274193e-14 5.137409367166273e-13 3.733882424274193e-14 -0.0167104862262104" free_energy=-45151.953848603036 pbc="T T T"
In       2.59327272       3.98806212       8.55506126        0      -0.13787615       0.24672215      -0.06729054
In      -0.08925823       3.69507133       6.49162592        1      -0.13787615      -0.24672215       0.06729054
In       2.77178918       1.42701764      14.01496951        2       0.13787615       0.24672215       0.06729054
In       5.45432014       1.13402685       1.03171767        3       0.13787615      -0.24672215      -0.06729054
In       2.77178918       1.13402685       6.49162592        4       0.13787615      -0.24672215       0.06729054
In       5.45432014       1.42701764       8.55506126        5       0.13787615       0.24672215      -0.06729054
In       2.59327272       3.69507133       1.03171767        6      -0.13787615      -0.24672215      -0.06729054
In      -0.08925823       3.98806212      14.01496951        7      -0.13787615       0.24672215       0.06729054
In       2.62068678       3.81625815      12.21467504        8       0.06986228      -0.07513650       0.15978563
In       5.30321773       3.86687530       2.83201214        9       0.06986228       0.07513650      -0.15978563
In       2.74437513       1.25521367      10.35535573       10      -0.06986228      -0.07513650      -0.15978563
In       0.06184418       1.30583081       4.69133145       11      -0.06986228       0.07513650       0.15978563
In       2.74437513       1.30583081       2.83201214       12      -0.06986228       0.07513650      -0.15978563
In       0.06184418       1.25521367      12.21467504       13      -0.06986228      -0.07513650       0.15978563
In       2.62068678       3.86687530       4.69133145       14       0.06986228       0.07513650       0.15978563
In       5.30321773       3.81625815      10.35535573       15       0.06986228      -0.07513650      -0.15978563
O        4.55217246       4.50286118      12.06404767       16      -0.12187298       0.01184050      -0.04632038
O        1.86964151       3.18027226       2.98263951       17      -0.12187298      -0.01184050       0.04632038
O        0.81288945       1.94181670      10.50598310       18       0.12187298       0.01184050       0.04632038
O        3.49542040       0.61922778       4.54070408       19       0.12187298      -0.01184050      -0.04632038
O        0.81288945       0.61922778       2.98263951       20       0.12187298      -0.01184050       0.04632038
O        3.49542040       1.94181670      12.06404767       21       0.12187298       0.01184050      -0.04632038
O        4.55217246       3.18027226       4.54070408       22      -0.12187298      -0.01184050      -0.04632038
O        1.86964151       4.50286118      10.50598310       23      -0.12187298       0.01184050       0.04632038
O        3.82777948       2.68871122       9.43800510       24      -0.18223500      -0.06598038      -0.08861906
O        1.14524853       4.99442222       5.60868208       25      -0.18223500       0.06598038       0.08861906
O        1.53728243       0.12766674      13.13202567       26       0.18223500      -0.06598038       0.08861906
O        4.21981338       2.43337774       1.91466151       27       0.18223500       0.06598038      -0.08861906
O        1.53728243       2.43337774       5.60868208       28       0.18223500       0.06598038       0.08861906
O        4.21981338       0.12766674       9.43800510       29       0.18223500      -0.06598038      -0.08861906
O        3.82777948       4.99442222       1.91466151       30      -0.18223500       0.06598038      -0.08861906
O        1.14524853       2.68871122      13.13202567       31      -0.18223500      -0.06598038       0.08861906
O        3.32069930       3.63460200      14.22427277       32       0.26168777      -0.18380284       0.22214327
O        0.63816835       4.04853145       0.82241441       33       0.26168777       0.18380284      -0.22214327
O        2.04436260       1.07355752       8.34575800       34      -0.26168777      -0.18380284      -0.22214327
O        4.72689356       1.48748696       6.70092918       35      -0.26168777       0.18380284       0.22214327
O        2.04436260       1.48748696       0.82241441       36      -0.26168777       0.18380284      -0.22214327
O        4.72689356       1.07355752      14.22427277       37      -0.26168777      -0.18380284       0.22214327
O        3.32069930       4.04853145       6.70092918       38       0.26168777       0.18380284       0.22214327
O        0.63816835       3.63460200       8.34575800       39       0.26168777      -0.18380284      -0.22214327
40
Lattice="5.364999561416731 -1.0050953239369121e-42 8.4184739842948e-83 9.521258134419915e-43 5.147219143933455 -1.340530658005386e-40 -1.0674868656069902e-82 -1.1832619774045826e-39 14.973398998981176" Properties=species:S:1:pos:R:3:spacegroup_kinds:I:1:forces:R:3 spacegroup="P 1" unit_cell=conventional occupancy="_JSON {\"0\": {\"In\": 1}, \"1\": {\"In\": 1}, \"2\": {\"In\": 1}, \"3\": {\"In\": 1}, \"4\": {\"In\": 1}, \"5\": {\"In\": 1}, \"6\": {\"In\": 1}, \"7\": {\"In\": 1}, \"8\": {\"In\": 1}, \"9\": {\"In\": 1}, \"10\": {\"In\": 1}, \"11\": {\"In\": 1}, \"12\": {\"In\": 1}, \"13\": {\"In\": 1}, \"14\": {\"In\": 1}, \"15\": {\"In\": 1}, \"16\": {\"O\": 1}, \"17\": {\"O\": 1}, \"18\": {\"O\": 1}, \"19\": {\"O\": 1}, \"20\": {\"O\": 1}, \"21\": {\"O\": 1}, \"22\": {\"O\": 1}, \"23\": {\"O\": 1}, \"24\": {\"O\": 1}, \"25\": {\"O\": 1}, \"26\": {\"O\": 1}, \"27\": {\"O\": 1}, \"28\": {\"O\": 1}, \"29\": {\"O\": 1}, \"30\": {\"O\": 1}, \"31\": {\"O\": 1}, \"32\": {\"O\": 1}, \"33\": {\"O\": 1}, \"34\": {\"O\": 1}, \"35\": {\"O\": 1}, \"36\": {\"O\": 1}, \"37\": {\"O\": 1}, \"38\": {\"O\": 1}, \"39\": {\"O\": 1}}" n_minim_iter=2 energy=-45151.97265080312 stress="-0.022840957465125048 1.8681827652642536e-12 5.671352392396592e-14 1.8681827652642536e-12 -0.020996926980364452 1.9970525698881128e-13 5.671352392396592e-14 1.9970525698881128e-13 -0.022943708339342228" free_energy=-45151.97265080312 pbc="T T T"
In       2.59305116       4.00797272       8.51329900        0      -0.15907934       0.18446445       0.02679205
In      -0.08944862       3.71285599       6.46010000        1      -0.15907934      -0.18446445      -0.02679205
In       2.77194840       1.43436315      13.94679950        2       0.15907934       0.18446445      -0.02679205
In       5.45444818       1.13924642       1.02659950        3       0.15907934      -0.18446445       0.02679205
In       2.77194840       1.13924642       6.46010000        4       0.15907934      -0.18446445      -0.02679205
In       5.45444818       1.43436315       8.51329900        5       0.15907934       0.18446445       0.02679205
In       2.59305116       3.71285599       1.02659950        6      -0.15907934      -0.18446445       0.02679205
In      -0.08944862       4.00797272      13.94679950        7      -0.15907934       0.18446445      -0.02679205
In       2.62075332       3.83487678      12.15540156        8       0.11264548      -0.12113578       0.18416778
In       5.30325310       3.88595193       2.81799744        9       0.11264548       0.12113578      -0.18416778
In       2.74424624       1.26126721      10.30469694       10      -0.11264548      -0.12113578      -0.18416778
In       0.06174646       1.31234236       4.66870206       11      -0.11264548       0.12113578       0.18416778
In       2.74424624       1.31234236       2.81799744       12      -0.11264548       0.12113578      -0.18416778
In       0.06174646       1.26126721      12.15540156       13      -0.11264548      -0.12113578       0.18416778
In       2.62075332       3.88595193       4.66870206       14       0.11264548       0.12113578       0.18416778
In       5.30325310       3.83487678      10.30469694       15       0.11264548      -0.12113578      -0.18416778
O        4.55195035       4.52496981      12.00522309       16      -0.10687091       0.06959455      -0.00505051
O        1.86945057       3.19585891       2.96817591       17      -0.10687091      -0.06959455       0.00505051
O        0.81304921       1.95136023      10.45487541       18       0.10687091       0.06959455       0.00505051
O        3.49554899       0.62224934       4.51852359       19       0.10687091      -0.06959455      -0.00505051
O        0.81304921       0.62224934       2.96817591       20       0.10687091      -0.06959455       0.00505051
O        3.49554899       1.95136023      12.00522309       21       0.10687091       0.06959455      -0.00505051
O        4.55195035       3.19585891       4.51852359       22      -0.10687091      -0.06959455      -0.00505051
O        1.86945057       4.52496981      10.45487541       23      -0.10687091       0.06959455       0.00505051
O        3.82748199       2.70181062       9.39191279       24      -0.15403882      -0.02277566      -0.10479861
O        1.14498221       5.01901810       5.58148621       25      -0.15403882       0.02277566       0.10479861
O        1.53751757       0.12820105      13.06818571       26       0.15403882      -0.02277566       0.10479861
O        4.22001735       2.44540853       1.90521329       27       0.15403882       0.02277566      -0.10479861
O        1.53751757       2.44540853       5.58148621       28       0.15403882       0.02277566       0.10479861
O        4.22001735       0.12820105       9.39191279       29       0.15403882      -0.02277566      -0.10479861
O        3.82748199       5.01901810       1.90521329       30      -0.15403882       0.02277566      -0.10479861
O        1.14498221       2.70181062      13.06818571       31      -0.15403882      -0.02277566       0.10479861
O        3.32102404       3.65217777      14.15529725       32       0.30212467      -0.18822732       0.17232322
O        0.63852426       4.06865094       0.81810174       33       0.30212467       0.18822732      -0.17232322
O        2.04397552       1.07856820       8.30480124       34      -0.30212467      -0.18822732      -0.17232322
O        4.72647530       1.49504137       6.66859775       35      -0.30212467       0.18822732       0.17232322
O        2.04397552       1.49504137       0.81810174       36      -0.30212467       0.18822732      -0.17232322
O        4.72647530       1.07856820      14.15529725       37      -0.30212467      -0.18822732       0.17232322
O        3.32102404       4.06865094       6.66859775       38       0.30212467       0.18822732       0.17232322
O        0.63852426       3.65217777       8.30480124       39       0.30212467      -0.18822732      -0.17232322
40
Lattice="5.383149125013588 -1.008351661259042e-42 1.8214569165108978e-82 9.508428927075904e-43 5.139846786645079 -6.283627163193664e-40 -1.041341472341496e-82 -2.6335813884300265e-39 14.944320151790377" Properties=species:S:1:pos:R:3:spacegroup_kinds:I:1:forces:R:3 spacegroup="P 1" unit_cell=conventional occupancy="_JSON {\"0\": {\"In\": 1}, \"1\": {\"In\": 1}, \"2\": {\"In\": 1}, \"3\": {\"In\": 1}, \"4\": {\"In\": 1}, \"5\": {\"In\": 1}, \"6\": {\"In\": 1}, \"7\": {\"In\": 1}, \"8\": {\"In\": 1}, \"9\": {\"In\": 1}, \"10\": {\"In\": 1}, \"11\": {\"In\": 1}, \"12\": {\"In\": 1}, \"13\": {\"In\": 1}, \"14\": {\"In\": 1}, \"15\": {\"In\": 1}, \"16\": {\"O\": 1}, \"17\": {\"O\": 1}, \"18\": {\"O\": 1}, \"19\": {\"O\": 1}, \"20\": {\"O\": 1}, \"21\": {\"O\": 1}, \"22\": {\"O\": 1}, \"23\": {\"O\": 1}, \"24\": {\"O\": 1}, \"25\": {\"O\": 1}, \"26\": {\"O\": 1}, \"27\": {\"O\": 1}, \"28\": {\"O\": 1}, \"29\": {\"O\": 1}, \"30\": {\"O\": 1}, \"31\": {\"O\": 1}, \"32\": {\"O\": 1}, \"33\": {\"O\": 1}, \"34\": {\"O\": 1}, \"35\": {\"O\": 1}, \"36\": {\"O\": 1}, \"37\": {\"O\": 1}, \"38\": {\"O\": 1}, \"39\": {\"O\": 1}}" n_minim_iter=3 energy=-45152.0008781298 stress="-0.01246142353330542 1.483979531831479e-12 3.717834061296213e-13 1.483979531831479e-12 -0.021188139390407913 3.5268247777350063e-13 3.717834061296213e-13 3.5268247777350063e-13 -0.022271343225903868" free_energy=-45152.0008781298 pbc="T T T"
In       2.59933438       4.00527847       8.49702727        0      -0.12328411       0.11239528       0.06490697
In      -0.09224018       3.70449171       6.44729289        1      -0.12328411      -0.11239528      -0.06490697
In       2.78381474       1.43535508      13.91945296        2       0.12328411       0.11239528      -0.06490697
In       5.47538930       1.13456832       1.02486719        3       0.12328411      -0.11239528       0.06490697
In       2.78381474       1.13456832       6.44729289        4       0.12328411      -0.11239528      -0.06490697
In       5.47538930       1.43535508       8.49702727        5       0.12328411       0.11239528       0.06490697
In       2.59933438       3.70449171       1.02486719        6      -0.12328411      -0.11239528       0.06490697
In      -0.09224018       4.00527847      13.91945296        7      -0.12328411       0.11239528      -0.06490697
In       2.63133464       3.82753073      12.13463535        8       0.07613524      -0.07842589       0.10082167
In       5.32290921       3.88223945       2.80968480        9       0.07613524       0.07842589      -0.10082167
In       2.75181448       1.25760734      10.28184488       10      -0.07613524      -0.07842589      -0.10082167
In       0.06023992       1.31231605       4.66247528       11      -0.07613524       0.07842589       0.10082167
In       2.75181448       1.31231605       2.80968480       12      -0.07613524       0.07842589      -0.10082167
In       0.06023992       1.25760734      12.13463535       13      -0.07613524      -0.07842589       0.10082167
In       2.63133464       3.88223945       4.66247528       14       0.07613524       0.07842589       0.10082167
In       5.32290921       3.82753073      10.28184488       15       0.07613524      -0.07842589      -0.10082167
O        4.56562777       4.51950043      11.98176036       16      -0.08110791       0.04381967      -0.02086210
O        1.87405321       3.19026975       2.96255980       17      -0.08110791      -0.04381967       0.02086210
O        0.81752135       1.94957703      10.43471987       18       0.08110791       0.04381967       0.02086210
O        3.50909592       0.62034636       4.50960028       19       0.08110791      -0.04381967      -0.02086210
O        0.81752135       0.62034636       2.96255980       20       0.08110791      -0.04381967       0.02086210
O        3.50909592       1.94957703      11.98176036       21       0.08110791       0.04381967      -0.02086210
O        4.56562777       3.19026975       4.50960028       22      -0.08110791      -0.04381967      -0.02086210
O        1.87405321       4.51950043      10.43471987       23      -0.08110791       0.04381967       0.02086210
O        3.83793758       2.69750453       9.37206118       24      -0.09275741       0.00261391      -0.10294451
O        1.14636301       5.01226565       5.57225898       25      -0.09275741      -0.00261391       0.10294451
O        1.54521155       0.12758114      13.04441905       26       0.09275741       0.00261391       0.10294451
O        4.23678611       2.44234226       1.89990110       27       0.09275741      -0.00261391      -0.10294451
O        1.54521155       2.44234226       5.57225898       28       0.09275741      -0.00261391       0.10294451
O        4.23678611       0.12758114       9.37206118       29       0.09275741       0.00261391      -0.10294451
O        3.83793758       5.01226565       1.89990110       30      -0.09275741      -0.00261391      -0.10294451
O        1.14636301       2.69750453      13.04441905       31      -0.09275741       0.00261391       0.10294451
O        3.33698569       3.64395335      14.13058629       32       0.18472570      -0.17103393       0.06996865
O        0.64541113       4.06581683       0.81373386       33       0.18472570       0.17103393      -0.06996865
O        2.04616343       1.07402995       8.28589394       34      -0.18472570      -0.17103393      -0.06996865
O        4.73773800       1.49589344       6.65842622       35      -0.18472570       0.17103393       0.06996865
O        2.04616343       1.49589344       0.81373386       36      -0.18472570       0.17103393      -0.06996865
O        4.73773800       1.07402995      14.13058629       37      -0.18472570      -0.17103393       0.06996865
O        3.33698569       4.06581683       6.65842622       38       0.18472570       0.17103393       0.06996865
O        0.64541113       3.64395335       8.28589394       39       0.18472570      -0.17103393      -0.06996865
40
Lattice="5.362866931104327 -1.0062569337288192e-42 3.0174560194028433e-82 9.510225773997153e-43 5.149425363057278 -1.252384923478789e-39 -1.0475306667484024e-82 -4.4685622190729545e-39 14.972935659782156" Properties=species:S:1:pos:R:3:spacegroup_kinds:I:1:forces:R:3 spacegroup="P 1" unit_cell=conventional occupancy="_JSON {\"0\": {\"In\": 1}, \"1\": {\"In\": 1}, \"2\": {\"In\": 1}, \"3\": {\"In\": 1}, \"4\": {\"In\": 1}, \"5\": {\"In\": 1}, \"6\": {\"In\": 1}, \"7\": {\"In\": 1}, \"8\": {\"In\": 1}, \"9\": {\"In\": 1}, \"10\": {\"In\": 1}, \"11\": {\"In\": 1}, \"12\": {\"In\": 1}, \"13\": {\"In\": 1}, \"14\": {\"In\": 1}, \"15\": {\"In\": 1}, \"16\": {\"O\": 1}, \"17\": {\"O\": 1}, \"18\": {\"O\": 1}, \"19\": {\"O\": 1}, \"20\": {\"O\": 1}, \"21\": {\"O\": 1}, \"22\": {\"O\": 1}, \"23\": {\"O\": 1}, \"24\": {\"O\": 1}, \"25\": {\"O\": 1}, \"26\": {\"O\": 1}, \"27\": {\"O\": 1}, \"28\": {\"O\": 1}, \"29\": {\"O\": 1}, \"30\": {\"O\": 1}, \"31\": {\"O\": 1}, \"32\": {\"O\": 1}, \"33\": {\"O\": 1}, \"34\": {\"O\": 1}, \"35\": {\"O\": 1}, \"36\": {\"O\": 1}, \"37\": {\"O\": 1}, \"38\": {\"O\": 1}, \"39\": {\"O\": 1}}" n_minim_iter=4 energy=-45152.025537651134 stress="-0.01604476710711668 -6.632114210343841e-13 -4.252593332527087e-13 -6.632114210343841e-13 -0.011626293364213959 1.0227142516970469e-12 -4.252593332527087e-13 1.0227142516970469e-12 -0.01121370822733993" free_energy=-45152.025537651134 pbc="T T T"
In       2.58638077       4.01652524       8.51377427        0       0.12549332       0.10403895       0.02532901
In      -0.09505270       3.70761280       6.45916139        1       0.12549332      -0.10403895      -0.02532901
In       2.77648616       1.44181256      13.94562922        2      -0.12549332       0.10403895      -0.02532901
In       5.45791963       1.13290012       1.02730644        3      -0.12549332      -0.10403895       0.02532901
In       2.77648616       1.13290012       6.45916139        4      -0.12549332      -0.10403895      -0.02532901
In       5.45791963       1.44181256       8.51377427        5      -0.12549332       0.10403895       0.02532901
In       2.58638077       3.70761280       1.02730644        6       0.12549332      -0.10403895       0.02532901
In      -0.09505270       4.01652524      13.94562922        7       0.12549332       0.10403895      -0.02532901
In       2.62356974       3.83233995      12.16137221        8      -0.06639911      -0.04018325      -0.01524671
In       5.30500320       3.89179810       2.81156345        9      -0.06639911       0.04018325       0.01524671
In       2.73929719       1.25762727      10.29803128       10       0.06639911      -0.04018325       0.01524671
In       0.05786373       1.31708541       4.67490438       11       0.06639911       0.04018325      -0.01524671
In       2.73929719       1.31708541       2.81156345       12       0.06639911       0.04018325       0.01524671
In       0.05786373       1.25762727      12.16137221       13       0.06639911      -0.04018325      -0.01524671
In       2.62356974       3.89179810       4.67490438       14      -0.06639911       0.04018325      -0.01524671
In       5.30500320       3.83233995      10.29803128       15      -0.06639911      -0.04018325       0.01524671
O        4.54624967       4.52919152      12.00447104       16       0.03451888       0.03256864      -0.11631209
O        1.86481620       3.19494652       2.96846462       17       0.03451888      -0.03256864       0.11631209
O        0.81661727       1.95447884      10.45493245       18      -0.03451888       0.03256864       0.11631209
O        3.49805073       0.62023384       4.51800321       19      -0.03451888      -0.03256864      -0.11631209
O        0.81661727       0.62023384       2.96846462       20      -0.03451888      -0.03256864       0.11631209
O        3.49805073       1.95447884      12.00447104       21      -0.03451888       0.03256864      -0.11631209
O        4.54624967       3.19494652       4.51800321       22       0.03451888      -0.03256864      -0.11631209
O        1.86481620       4.52919152      10.45493245       23       0.03451888       0.03256864       0.11631209
O        3.82039936       2.70204264       9.38788574       24      -0.08681106       0.01671396      -0.11326774
O        1.13896589       5.02209540       5.58504992       25      -0.08681106      -0.01671396       0.11326774
O        1.54246757       0.12732996      13.07151775       26       0.08681106       0.01671396       0.11326774
O        4.22390104       2.44738272       1.90141791       27       0.08681106      -0.01671396      -0.11326774
O        1.54246757       2.44738272       5.58504992       28       0.08681106      -0.01671396       0.11326774
O        4.22390104       0.12732996       9.38788574       29       0.08681106       0.01671396      -0.11326774
O        3.82039936       5.02209540       1.90141791       30      -0.08681106      -0.01671396      -0.11326774
O        1.13896589       2.70204264      13.07151775       31      -0.08681106       0.01671396       0.11326774
O        3.33026745       3.64685234      14.16099254       32      -0.08919870      -0.19340181       0.09399738
O        0.64883398       4.07728571       0.81194312       33      -0.08919870       0.19340181      -0.09399738
O        2.03259948       1.07213966       8.29841095       34       0.08919870      -0.19340181      -0.09399738
O        4.71403295       1.50257302       6.67452471       35       0.08919870       0.19340181       0.09399738
O        2.03259948       1.50257302       0.81194312       36       0.08919870       0.19340181      -0.09399738
O        4.71403295       1.07213966      14.16099254       37       0.08919870      -0.19340181       0.09399738
O        3.33026745       4.07728571       6.67452471       38      -0.08919870       0.19340181       0.09399738
O        0.64883398       3.64685234       8.29841095       39      -0.08919870      -0.19340181      -0.09399738
40
Lattice="5.371759032178957 -1.0080368800133236e-42 3.6241639547866057e-82 9.50357525214268e-43 5.146577230737008 -1.5602326162714202e-39 -1.0268400505588037e-82 -5.3740189352275223e-39 14.956422677155286" Properties=species:S:1:pos:R:3:spacegroup_kinds:I:1:forces:R:3 spacegroup="P 1" unit_cell=conventional occupancy="_JSON {\"0\": {\"In\": 1}, \"1\": {\"In\": 1}, \"2\": {\"In\": 1}, \"3\": {\"In\": 1}, \"4\": {\"In\": 1}, \"5\": {\"In\": 1}, \"6\": {\"In\": 1}, \"7\": {\"In\": 1}, \"8\": {\"In\": 1}, \"9\": {\"In\": 1}, \"10\": {\"In\": 1}, \"11\": {\"In\": 1}, \"12\": {\"In\": 1}, \"13\": {\"In\": 1}, \"14\": {\"In\": 1}, \"15\": {\"In\": 1}, \"16\": {\"O\": 1}, \"17\": {\"O\": 1}, \"18\": {\"O\": 1}, \"19\": {\"O\": 1}, \"20\": {\"O\": 1}, \"21\": {\"O\": 1}, \"22\": {\"O\": 1}, \"23\": {\"O\": 1}, \"24\": {\"O\": 1}, \"25\": {\"O\": 1}, \"26\": {\"O\": 1}, \"27\": {\"O\": 1}, \"28\": {\"O\": 1}, \"29\": {\"O\": 1}, \"30\": {\"O\": 1}, \"31\": {\"O\": 1}, \"32\": {\"O\": 1}, \"33\": {\"O\": 1}, \"34\": {\"O\": 1}, \"35\": {\"O\": 1}, \"36\": {\"O\": 1}, \"37\": {\"O\": 1}, \"38\": {\"O\": 1}, \"39\": {\"O\": 1}}" n_minim_iter=5 energy=-45152.047134250286 stress="-0.0017601757203735348 -1.2066433060211358e-12 1.1502049966203827e-12 -1.2066433060211358e-12 -0.007580178126365313 9.135165630345885e-13 1.1502049966203827e-12 9.135165630345885e-13 -0.006393109222660015" free_energy=-45152.047134250286 pbc="T T T"
In       2.59056180       4.02187302       8.50636839        0       0.03464666       0.01814007       0.03921984
In      -0.09531772       3.69799283       6.45005428        1       0.03464666      -0.01814007      -0.03921984
In       2.78119723       1.44858440      13.92826562        2      -0.03464666       0.01814007      -0.03921984
In       5.46707675       1.12470422       1.02815706        3      -0.03464666      -0.01814007       0.03921984
In       2.78119723       1.12470422       6.45005428        4      -0.03464666      -0.01814007      -0.03921984
In       5.46707675       1.44858440       8.50636839        5      -0.03464666       0.01814007       0.03921984
In       2.59056180       3.69799283       1.02815706        6       0.03464666      -0.01814007       0.03921984
In      -0.09531772       4.02187302      13.92826562        7       0.03464666       0.01814007      -0.03921984
In       2.62846878       3.82619850      12.15139745        8      -0.09467263       0.03735430      -0.01996907
In       5.31434829       3.89366734       2.80502523        9      -0.09467263      -0.03735430       0.01996907
In       2.74329026       1.25290989      10.28323657       10       0.09467263       0.03735430       0.01996907
In       0.05741074       1.32037873       4.67318611       11       0.09467263      -0.03735430      -0.01996907
In       2.74329026       1.32037873       2.80502523       12       0.09467263      -0.03735430       0.01996907
In       0.05741074       1.25290989      12.15139745       13       0.09467263       0.03735430      -0.01996907
In       2.62846878       3.89366734       4.67318611       14      -0.09467263      -0.03735430      -0.01996907
In       5.31434829       3.82619850      10.28323657       15      -0.09467263       0.03735430       0.01996907
O        4.55215207       4.52922243      11.98721077       16       0.02934266       0.00840269      -0.03454620
O        1.86627255       3.19064341       2.96921191       17       0.02934266      -0.00840269       0.03454620
O        0.81960696       1.95593382      10.44742325       18      -0.02934266       0.00840269       0.03454620
O        3.50548648       0.61735480       4.50899943       19      -0.02934266      -0.00840269      -0.03454620
O        0.81960696       0.61735480       2.96921191       20      -0.02934266      -0.00840269       0.03454620
O        3.50548648       1.95593382      11.98721077       21      -0.02934266       0.00840269      -0.03454620
O        4.55215207       3.19064341       4.50899943       22       0.02934266      -0.00840269      -0.03454620
O        1.86627255       4.52922243      10.44742325       23       0.02934266       0.00840269       0.03454620
O        3.82051807       2.70074365       9.37113127       24      -0.01400378      -0.00948310      -0.04537210
O        1.13463855       5.01912219       5.58529141       25      -0.01400378       0.00948310       0.04537210
O        1.55124096       0.12745504      13.06350275       26       0.01400378      -0.00948310       0.04537210
O        4.23712048       2.44583358       1.89291993       27       0.01400378       0.00948310      -0.04537210
O        1.55124096       2.44583358       5.58529141       28       0.01400378       0.00948310       0.04537210
O        4.23712048       0.12745504       9.37113127       29       0.01400378      -0.00948310      -0.04537210
O        3.82051807       5.01912219       1.89291993       30      -0.01400378       0.00948310      -0.04537210
O        1.13463855       2.70074365      13.06350275       31      -0.01400378      -0.00948310       0.04537210
O        3.33982757       3.63359306      14.15164369       32      -0.12112030      -0.12764891      -0.14510805
O        0.65394805       4.08627279       0.80477898       33      -0.12112030       0.12764891       0.14510805
O        2.03193146       1.06030444       8.28299032       34       0.12112030      -0.12764891       0.14510805
O        4.71781098       1.51298417       6.67343235       35       0.12112030       0.12764891      -0.14510805
O        2.03193146       1.51298417       0.80477898       36       0.12112030       0.12764891       0.14510805
O        4.71781098       1.06030444      14.15164369       37       0.12112030      -0.12764891      -0.14510805
O        3.33982757       4.08627279       6.67343235       38      -0.12112030       0.12764891      -0.14510805
O        0.65394805       3.63359306       8.28299032       39      -0.12112030      -0.12764891       0.14510805
40