40
Lattice="5.121103261523097 -8.765422384126828e-43 -2.587709355869257e-79 8.607898849777467e-43 5.104144350851738 1.4858931889842471e-36 2.9991922654515717e-81 4.336663486790065e-36 14.830218245481596" Properties=species:S:1:pos:R:3:spacegroup_kinds:I:1:forces:R:3 spacegroup="P 1" unit_cell=conventional occupancy="_JSON {\"0\": {\"In\": 1}, \"1\": {\"In\": 1}, \"2\": {\"In\": 1}, \"3\": {\"In\": 1}, \"4\": {\"In\": 1}, \"5\": {\"In\": 1}, \"6\": {\"In\": 1}, \"7\": {\"In\": 1}, \"8\": {\"In\": 1}, \"9\": {\"In\": 1}, \"10\": {\"In\": 1}, \"11\": {\"In\": 1}, \"12\": {\"In\": 1}, \"13\": {\"In\": 1}, \"14\": {\"In\": 1}, \"15\": {\"In\": 1}, \"16\": {\"O\": 1}, \"17\": {\"O\": 1}, \"18\": {\"O\": 1}, \"19\": {\"O\": 1}, \"20\": {\"O\": 1}, \"21\": {\"O\": 1}, \"22\": {\"O\": 1}, \"23\": {\"O\": 1}, \"24\": {\"O\": 1}, \"25\": {\"O\": 1}, \"26\": {\"O\": 1}, \"27\": {\"O\": 1}, \"28\": {\"O\": 1}, \"29\": {\"O\": 1}, \"30\": {\"O\": 1}, \"31\": {\"O\": 1}, \"32\": {\"O\": 1}, \"33\": {\"O\": 1}, \"34\": {\"O\": 1}, \"35\": {\"O\": 1}, \"36\": {\"O\": 1}, \"37\": {\"O\": 1}, \"38\": {\"O\": 1}, \"39\": {\"O\": 1}}" n_minim_iter=24 energy=-45152.25263228722 stress="-0.007733067294830367 1.553405662807696e-12 -8.84339486942336e-13 1.553405662807696e-12 -0.007669299408139667 -1.2351198891542793e-12 -8.84339486942336e-13 -1.2351198891542793e-12 -0.007722881650935685" free_energy=-45152.25263228722 pbc="T T T"
In       2.43540445       4.00845251       8.40165429        0      -0.00143495       0.00095175       0.00096898
In      -0.12514718       3.64776401       6.42856396        1      -0.00143495      -0.00095175      -0.00096898
In       2.68569881       1.45638034      13.84367308        2       0.00143495       0.00095175      -0.00096898
In       5.24625044       1.09569184       0.98654516        3       0.00143495      -0.00095175       0.00096898
In       2.68569881       1.09569184       6.42856396        4       0.00143495      -0.00095175      -0.00096898
In       5.24625044       1.45638034       8.40165429        5       0.00143495       0.00095175       0.00096898
In       2.43540445       3.64776401       0.98654516        6      -0.00143495      -0.00095175       0.00096898
In      -0.12514718       4.00845251      13.84367308        7      -0.00143495       0.00095175      -0.00096898
In       2.39614174       3.71089189      12.05507665        8       0.00059219      -0.00102936      -0.00033857
In       4.95669337       3.94532464       2.77514160        9       0.00059219       0.00102936       0.00033857
In       2.72496152       1.15881971      10.19025072       10      -0.00059219      -0.00102936       0.00033857
In       0.16440989       1.39325246       4.63996752       11      -0.00059219       0.00102936      -0.00033857
In       2.72496152       1.39325246       2.77514160       12      -0.00059219       0.00102936       0.00033857
In       0.16440989       1.15881971      12.05507665       13      -0.00059219      -0.00102936      -0.00033857
In       2.39614174       3.94532464       4.63996752       14       0.00059219       0.00102936      -0.00033857
In       4.95669337       3.71089189      10.19025072       15       0.00059219      -0.00102936       0.00033857
O        4.31393044       4.47679646      11.87469566       16       0.00176106       0.00173239      -0.00052075
O        1.75337881       3.17942006       2.95552258       17       0.00176106      -0.00173239       0.00052075
O        0.80717282       1.92472429      10.37063171       18      -0.00176106       0.00173239       0.00052075
O        3.36772445       0.62734789       4.45958654       19      -0.00176106      -0.00173239      -0.00052075
O        0.80717282       0.62734789       2.95552258       20      -0.00176106      -0.00173239       0.00052075
O        3.36772445       1.92472429      11.87469566       21      -0.00176106       0.00173239      -0.00052075
O        4.31393044       3.17942006       4.45958654       22       0.00176106      -0.00173239      -0.00052075
O        1.75337881       4.47679646      10.37063171       23       0.00176106       0.00173239       0.00052075
O        3.56955694       2.63339955       9.19203717       24       0.00230368      -0.00145896       0.00075719
O        1.00900531       5.02281698       5.63818107       25       0.00230368       0.00145896      -0.00075719
O        1.55154633       0.08132737      13.05329019       26      -0.00230368      -0.00145896      -0.00075719
O        4.11209796       2.47074481       1.77692805       27      -0.00230368       0.00145896       0.00075719
O        1.55154633       2.47074481       5.63818107       28      -0.00230368       0.00145896      -0.00075719
O        4.11209796       0.08132737       9.19203717       29      -0.00230368      -0.00145896       0.00075719
O        3.56955694       5.02281698       1.77692805       30       0.00230368       0.00145896       0.00075719
O        1.00900531       2.63339955      13.05329019       31       0.00230368      -0.00145896      -0.00075719
O        3.18525876       3.44327530      14.01768623       32      -0.00219726      -0.00200765       0.00267792
O        0.62470713       4.21294123       0.81253202       33      -0.00219726       0.00200765      -0.00267792
O        1.93584450       0.89120312       8.22764114       34       0.00219726      -0.00200765      -0.00267792
O        4.49639613       1.66086905       6.60257711       35       0.00219726       0.00200765       0.00267792
O        1.93584450       1.66086905       0.81253202       36       0.00219726       0.00200765      -0.00267792
O        4.49639613       0.89120312      14.01768623       37       0.00219726      -0.00200765       0.00267792
O        3.18525876       4.21294123       6.60257711       38      -0.00219726       0.00200765       0.00267792
O        0.62470713       3.44327530       8.22764114       39      -0.00219726      -0.00200765      -0.00267792
