40
Lattice="5.427321854031005 -1.0922908355025288e-42 8.285495801706929e-85 9.705077321560287e-43 5.125542636496178 -4.008197902404904e-42 -5.643459397885175e-86 -1.2348639509436258e-41 15.328557277274365" Properties=species:S:1:pos:R:3:spacegroup_kinds:I:1:forces:R:3 spacegroup="P 1" unit_cell=conventional occupancy="_JSON {\"0\": {\"In\": 1}, \"1\": {\"In\": 1}, \"2\": {\"In\": 1}, \"3\": {\"In\": 1}, \"4\": {\"In\": 1}, \"5\": {\"In\": 1}, \"6\": {\"In\": 1}, \"7\": {\"In\": 1}, \"8\": {\"In\": 1}, \"9\": {\"In\": 1}, \"10\": {\"In\": 1}, \"11\": {\"In\": 1}, \"12\": {\"In\": 1}, \"13\": {\"In\": 1}, \"14\": {\"In\": 1}, \"15\": {\"In\": 1}, \"16\": {\"O\": 1}, \"17\": {\"O\": 1}, \"18\": {\"O\": 1}, \"19\": {\"O\": 1}, \"20\": {\"O\": 1}, \"21\": {\"O\": 1}, \"22\": {\"O\": 1}, \"23\": {\"O\": 1}, \"24\": {\"O\": 1}, \"25\": {\"O\": 1}, \"26\": {\"O\": 1}, \"27\": {\"O\": 1}, \"28\": {\"O\": 1}, \"29\": {\"O\": 1}, \"30\": {\"O\": 1}, \"31\": {\"O\": 1}, \"32\": {\"O\": 1}, \"33\": {\"O\": 1}, \"34\": {\"O\": 1}, \"35\": {\"O\": 1}, \"36\": {\"O\": 1}, \"37\": {\"O\": 1}, \"38\": {\"O\": 1}, \"39\": {\"O\": 1}}" n_minim_iter=27 energy=-45151.59998127416 stress="0.03348311039159419 -4.520049412233944e-13 -8.2293062569462e-13 -4.520049412233944e-13 0.0334751018124074 -4.4183127507973405e-13 -8.2293062569462e-13 -4.4183127507973405e-13 0.0335664781989389" free_energy=-45151.59998127416 pbc="T T T"
In       2.65546586       3.98497428       8.72736214        0      -0.00195309       0.00321974      -0.00535169
In      -0.05819506       3.70333968       6.60119513        1      -0.00195309      -0.00321974       0.00535169
In       2.77185599       1.42220296      14.26547377        2       0.00195309       0.00321974       0.00535169
In       5.48551692       1.14056836       1.06308351        3       0.00195309      -0.00321973      -0.00535169
In       2.77185599       1.14056836       6.60119513        4       0.00195309      -0.00321974       0.00535169
In       5.48551692       1.42220296       8.72736214        5       0.00195309       0.00321974      -0.00535169
In       2.65546586       3.70333968       1.06308351        6      -0.00195309      -0.00321974      -0.00535169
In      -0.05819506       3.98497428      14.26547377        7      -0.00195309       0.00321974       0.00535169
In       2.69439502       3.84671784      12.44827946        8      -0.00273204       0.00381778      -0.00662142
In       5.40805594       3.84159611       2.88027781        9      -0.00273204      -0.00381778       0.00662142
In       2.73292684       1.28394653      10.54455645       10       0.00273204       0.00381778       0.00662142
In       0.01926591       1.27882479       4.78400082       11       0.00273204      -0.00381778      -0.00662142
In       2.73292684       1.27882479       2.88027781       12       0.00273204      -0.00381778       0.00662142
In       0.01926591       1.28394653      12.44827946       13       0.00273204       0.00381778      -0.00662142
In       2.69439502       3.84159611       4.78400082       14      -0.00273204      -0.00381778      -0.00662142
In       5.40805594       3.84671784      10.54455645       15      -0.00273204       0.00381778       0.00662142
O        4.64504277       4.46892569      12.29223218       16       0.00182417      -0.00353675       0.00791278
O        1.93138184       3.21938826       3.03632509       17       0.00182417       0.00353675      -0.00791278
O        0.78227909       1.90615437      10.70060373       18      -0.00182417      -0.00353675      -0.00791278
O        3.49594001       0.65661694       4.62795355       19      -0.00182417       0.00353675       0.00791278
O        0.78227909       0.65661694       3.03632509       20      -0.00182417       0.00353675      -0.00791278
O        3.49594001       1.90615437      12.29223218       21      -0.00182417      -0.00353675       0.00791278
O        4.64504277       3.21938826       4.62795355       22       0.00182417       0.00353675       0.00791278
O        1.93138184       4.46892569      10.70060373       23       0.00182417      -0.00353675      -0.00791278
O        3.89632093       2.70147980       9.65782134       24       0.00379426       0.00483226      -0.00446730
O        1.18266001       4.98683416       5.67073594       25       0.00379426      -0.00483226       0.00446730
O        1.53100092       0.13870848      13.33501458       26      -0.00379426       0.00483226       0.00446730
O        4.24466185       2.42406284       1.99354270       27      -0.00379426      -0.00483226      -0.00446730
O        1.53100092       2.42406284       5.67073594       28      -0.00379426      -0.00483226       0.00446730
O        4.24466185       0.13870848       9.65782134       29      -0.00379426       0.00483226      -0.00446730
O        3.89632093       4.98683416       1.99354270       30       0.00379426      -0.00483226      -0.00446730
O        1.18266001       2.70147980      13.33501458       31       0.00379426       0.00483226       0.00446730
O        3.36497721       3.66627715      14.49896602       32       0.00217090      -0.00084976      -0.00223075
O        0.65131628       4.02203680       0.82959126       33       0.00217090       0.00084976       0.00223075
O        2.06234465       1.10350583       8.49386989       34      -0.00217090      -0.00084976       0.00223075
O        4.77600558       1.45926548       6.83468738       35      -0.00217090       0.00084976      -0.00223075
O        2.06234465       1.45926548       0.82959126       36      -0.00217090       0.00084976       0.00223075
O        4.77600558       1.10350583      14.49896602       37      -0.00217090      -0.00084976      -0.00223075
O        3.36497721       4.02203680       6.83468738       38       0.00217090       0.00084976      -0.00223075
O        0.65131628       3.66627715       8.49386989       39       0.00217090      -0.00084976       0.00223075
