40
Lattice="5.218269371015241 -8.866189032878056e-43 -7.211214181768322e-82 8.750764600573068e-43 5.15033536041267 -4.03679872389057e-39 4.0444900266488997e-81 1.1681915138794997e-38 14.904330072392016" Properties=species:S:1:pos:R:3:spacegroup_kinds:I:1:forces:R:3 spacegroup="P 1" unit_cell=conventional occupancy="_JSON {\"0\": {\"In\": 1}, \"1\": {\"In\": 1}, \"2\": {\"In\": 1}, \"3\": {\"In\": 1}, \"4\": {\"In\": 1}, \"5\": {\"In\": 1}, \"6\": {\"In\": 1}, \"7\": {\"In\": 1}, \"8\": {\"In\": 1}, \"9\": {\"In\": 1}, \"10\": {\"In\": 1}, \"11\": {\"In\": 1}, \"12\": {\"In\": 1}, \"13\": {\"In\": 1}, \"14\": {\"In\": 1}, \"15\": {\"In\": 1}, \"16\": {\"O\": 1}, \"17\": {\"O\": 1}, \"18\": {\"O\": 1}, \"19\": {\"O\": 1}, \"20\": {\"O\": 1}, \"21\": {\"O\": 1}, \"22\": {\"O\": 1}, \"23\": {\"O\": 1}, \"24\": {\"O\": 1}, \"25\": {\"O\": 1}, \"26\": {\"O\": 1}, \"27\": {\"O\": 1}, \"28\": {\"O\": 1}, \"29\": {\"O\": 1}, \"30\": {\"O\": 1}, \"31\": {\"O\": 1}, \"32\": {\"O\": 1}, \"33\": {\"O\": 1}, \"34\": {\"O\": 1}, \"35\": {\"O\": 1}, \"36\": {\"O\": 1}, \"37\": {\"O\": 1}, \"38\": {\"O\": 1}, \"39\": {\"O\": 1}}" n_minim_iter=1 energy=-45152.052722407694 stress="-0.03876114871813541 -2.5186829390789445e-13 5.425006508505516e-13 -2.5186829390789445e-13 -0.03797630643661456 5.651058147076387e-13 5.425006508505516e-13 5.651058147076387e-13 -0.04300324529885249" free_energy=-45152.052722407694 pbc="T T T"
In       2.51525211       3.98690110       8.42757827        0      -0.03187145       0.40827506       0.19530286
In      -0.09388258       3.73860194       6.47675180        1      -0.03187145      -0.40827506      -0.19530286
In       2.70301726       1.41173342      13.92891683        2       0.03187145       0.40827506      -0.19530286
In       5.31215195       1.16343426       0.97541324        3       0.03187145      -0.40827506       0.19530286
In       2.70301726       1.16343426       6.47675180        4       0.03187145      -0.40827506      -0.19530286
In       5.31215195       1.41173342       8.42757827        5       0.03187145       0.40827506       0.19530286
In       2.51525211       3.73860194       0.97541324        6      -0.03187145      -0.40827506       0.19530286
In      -0.09388258       3.98690110      13.92891683        7      -0.03187145       0.40827506      -0.19530286
In       2.49789748       3.73936571      12.10832982        8      -0.02580764      -0.15292683       0.14025546
In       5.10703216       3.98613733       2.79600026        9      -0.02580764       0.15292683      -0.14025546
In       2.72037190       1.16419803      10.24816529       10       0.02580764      -0.15292683      -0.14025546
In       0.11123721       1.41096965       4.65616478       11       0.02580764       0.15292683       0.14025546
In       2.72037190       1.41096965       2.79600026       12       0.02580764       0.15292683      -0.14025546
In       0.11123721       1.16419803      12.10832982       13       0.02580764      -0.15292683       0.14025546
In       2.49789748       3.98613733       4.65616478       14      -0.02580764       0.15292683       0.14025546
In       5.10703216       3.73936571      10.24816529       15      -0.02580764      -0.15292683      -0.14025546
O        4.42637483       4.46167520      11.95235367       16      -0.06063297       0.01717266      -0.20595419
O        1.81724014       3.26382784       2.95197640       17      -0.06063297      -0.01717266       0.20595419
O        0.79189454       1.88650752      10.40414144       18       0.06063297       0.01717266       0.20595419
O        3.40102923       0.68866016       4.50018863       19       0.06063297      -0.01717266      -0.20595419
O        0.79189454       0.68866016       2.95197640       20       0.06063297      -0.01717266       0.20595419
O        3.40102923       1.88650752      11.95235367       21       0.06063297       0.01717266      -0.20595419
O        4.42637483       3.26382784       4.50018863       22      -0.06063297      -0.01717266      -0.20595419
O        1.81724014       4.46167520      10.40414144       23      -0.06063297       0.01717266       0.20595419
O        3.66734676       2.62740464       9.27445679       24      -0.33424301       0.05965073       0.00165907
O        1.05821207       5.09809840       5.62987328       25      -0.33424301      -0.05965073      -0.00165907
O        1.55092261       0.05223696      13.08203832       26       0.33424301       0.05965073      -0.00165907
O        4.16005730       2.52293072       1.82229175       27       0.33424301      -0.05965073       0.00165907
O        1.55092261       2.52293072       5.62987328       28       0.33424301      -0.05965073      -0.00165907
O        4.16005730       0.05223696       9.27445679       29       0.33424301       0.05965073       0.00165907
O        3.66734676       5.09809840       1.82229175       30      -0.33424301      -0.05965073       0.00165907
O        1.05821207       2.62740464      13.08203832       31      -0.33424301       0.05965073      -0.00165907
O        3.25536653       3.46463378      14.07199971       32       0.46880317      -0.16739179       0.39379548
O        0.64623185       4.26086926       0.83233037       33       0.46880317       0.16739179      -0.39379548
O        1.96290284       0.88946610       8.28449540       34      -0.46880317      -0.16739179      -0.39379548
O        4.57203752       1.68570158       6.61983467       35      -0.46880317       0.16739179       0.39379548
O        1.96290284       1.68570158       0.83233037       36      -0.46880317       0.16739179      -0.39379548
O        4.57203752       0.88946610      14.07199971       37      -0.46880317      -0.16739179       0.39379548
O        3.25536653       4.26086926       6.61983467       38       0.46880317       0.16739179       0.39379548
O        0.64623185       3.46463378       8.28449540       39       0.46880317      -0.16739179      -0.39379548
40
Lattice="5.207445765035157 -8.848811703244705e-43 -1.7290089865902164e-80 8.719279730704827e-43 5.132390007747021 9.160677444885273e-38 3.988017502614162e-81 2.972774868588855e-37 14.987529685644333" Properties=species:S:1:pos:R:3:spacegroup_kinds:I:1:forces:R:3 spacegroup="P 1" unit_cell=conventional occupancy="_JSON {\"0\": {\"In\": 1}, \"1\": {\"In\": 1}, \"2\": {\"In\": 1}, \"3\": {\"In\": 1}, \"4\": {\"In\": 1}, \"5\": {\"In\": 1}, \"6\": {\"In\": 1}, \"7\": {\"In\": 1}, \"8\": {\"In\": 1}, \"9\": {\"In\": 1}, \"10\": {\"In\": 1}, \"11\": {\"In\": 1}, \"12\": {\"In\": 1}, \"13\": {\"In\": 1}, \"14\": {\"In\": 1}, \"15\": {\"In\": 1}, \"16\": {\"O\": 1}, \"17\": {\"O\": 1}, \"18\": {\"O\": 1}, \"19\": {\"O\": 1}, \"20\": {\"O\": 1}, \"21\": {\"O\": 1}, \"22\": {\"O\": 1}, \"23\": {\"O\": 1}, \"24\": {\"O\": 1}, \"25\": {\"O\": 1}, \"26\": {\"O\": 1}, \"27\": {\"O\": 1}, \"28\": {\"O\": 1}, \"29\": {\"O\": 1}, \"30\": {\"O\": 1}, \"31\": {\"O\": 1}, \"32\": {\"O\": 1}, \"33\": {\"O\": 1}, \"34\": {\"O\": 1}, \"35\": {\"O\": 1}, \"36\": {\"O\": 1}, \"37\": {\"O\": 1}, \"38\": {\"O\": 1}, \"39\": {\"O\": 1}}" n_minim_iter=2 energy=-45152.07250969674 stress="-0.03912112629949302 1.4560387400564908e-13 5.797533422584829e-13 1.4560387400564908e-13 -0.04055835157390428 6.480113250826759e-13 5.797533422584829e-13 6.480113250826759e-13 -0.028501982193051646" free_energy=-45152.07250969674 pbc="T T T"
In       2.50989198       3.97483950       8.47550644        0       0.05808262       0.43154186       0.04739871
In      -0.09383091       3.72374551       6.51202325        1       0.05808262      -0.43154186      -0.04739871
In       2.69755379       1.40864450      14.00578809        2      -0.05808262       0.43154186      -0.04739871
In       5.30127667       1.15755050       0.98174159        3      -0.05808262      -0.43154186       0.04739871
In       2.69755379       1.15755050       6.51202325        4      -0.05808262      -0.43154186      -0.04739871
In       5.30127667       1.40864450       8.47550644        5      -0.05808262       0.43154186       0.04739871
In       2.50989198       3.72374551       0.98174159        6       0.05808262      -0.43154186       0.04739871
In      -0.09383091       3.97483950      14.00578809        7       0.05808262       0.43154186      -0.04739871
In       2.49260056       3.72565115      12.17655585        8      -0.10977395      -0.10061053       0.09608229
In       5.09632344       3.97293386       2.81097383        9      -0.10977395       0.10061053      -0.09608229
In       2.71484521       1.15945615      10.30473868       10       0.10977395      -0.10061053      -0.09608229
In       0.11112232       1.40673885       4.68279101       11       0.10977395       0.10061053       0.09608229
In       2.71484521       1.40673885       2.81097383       12       0.10977395       0.10061053      -0.09608229
In       0.11112232       1.15945615      12.17655585       13       0.10977395      -0.10061053       0.09608229
In       2.49260056       3.97293386       4.68279101       14      -0.10977395       0.10061053       0.09608229
In       5.09632344       3.72565115      10.30473868       15      -0.10977395      -0.10061053      -0.09608229
O        4.41692159       4.44620633      12.01814309       16      -0.05275951      -0.01743203      -0.23239109
O        1.81319871       3.25237869       2.96938659       17      -0.05275951       0.01743203       0.23239109
O        0.79052417       1.88001132      10.46315144       18       0.05275951      -0.01743203       0.23239109
O        3.39424706       0.68618368       4.52437825       19       0.05275951       0.01743203      -0.23239109
O        0.79052417       0.68618368       2.96938659       20       0.05275951       0.01743203       0.23239109
O        3.39424706       1.88001132      12.01814309       21       0.05275951      -0.01743203      -0.23239109
O        4.41692159       3.25237869       4.52437825       22      -0.05275951       0.01743203      -0.23239109
O        1.81319871       4.44620633      10.46315144       23      -0.05275951      -0.01743203       0.23239109
O        3.65823976       2.61851733       9.32623658       24      -0.29983718       0.02444956      -0.01204251
O        1.05451687       5.08006769       5.66129311       25      -0.29983718      -0.02444956       0.01204251
O        1.54920601       0.05232232      13.15505795       26       0.29983718       0.02444956       0.01204251
O        4.15292889       2.51387268       1.83247174       27       0.29983718      -0.02444956      -0.01204251
O        1.54920601       2.51387268       5.66129311       28       0.29983718      -0.02444956       0.01204251
O        4.15292889       0.05232232       9.32623658       29       0.29983718       0.02444956      -0.01204251
O        3.65823976       5.08006769       1.83247174       30      -0.29983718      -0.02444956      -0.01204251
O        1.05451687       2.61851733      13.15505795       31      -0.29983718       0.02444956       0.01204251
O        3.25071860       3.45181164      14.15233420       32       0.30822324      -0.18033172       0.41127606
O        0.64699571       4.24677337       0.83519549       33       0.30822324       0.18033172      -0.41127606
O        1.95672717       0.88561664       8.32896033       34      -0.30822324      -0.18033172      -0.41127606
O        4.56045005       1.68057836       6.65856935       35      -0.30822324       0.18033172       0.41127606
O        1.95672717       1.68057836       0.83519549       36      -0.30822324       0.18033172      -0.41127606
O        4.56045005       0.88561664      14.15233420       37      -0.30822324      -0.18033172       0.41127606
O        3.25071860       4.24677337       6.65856935       38       0.30822324       0.18033172       0.41127606
O        0.64699571       3.45181164       8.32896033       39       0.30822324      -0.18033172      -0.41127606
40
Lattice="5.224322133678261 -8.878141808174535e-43 -2.8546638070864868e-80 8.734054492289353e-43 5.141468510814773 1.5694211100593009e-37 3.822039694422757e-81 4.896702207607268e-37 14.912736166241155" Properties=species:S:1:pos:R:3:spacegroup_kinds:I:1:forces:R:3 spacegroup="P 1" unit_cell=conventional occupancy="_JSON {\"0\": {\"In\": 1}, \"1\": {\"In\": 1}, \"2\": {\"In\": 1}, \"3\": {\"In\": 1}, \"4\": {\"In\": 1}, \"5\": {\"In\": 1}, \"6\": {\"In\": 1}, \"7\": {\"In\": 1}, \"8\": {\"In\": 1}, \"9\": {\"In\": 1}, \"10\": {\"In\": 1}, \"11\": {\"In\": 1}, \"12\": {\"In\": 1}, \"13\": {\"In\": 1}, \"14\": {\"In\": 1}, \"15\": {\"In\": 1}, \"16\": {\"O\": 1}, \"17\": {\"O\": 1}, \"18\": {\"O\": 1}, \"19\": {\"O\": 1}, \"20\": {\"O\": 1}, \"21\": {\"O\": 1}, \"22\": {\"O\": 1}, \"23\": {\"O\": 1}, \"24\": {\"O\": 1}, \"25\": {\"O\": 1}, \"26\": {\"O\": 1}, \"27\": {\"O\": 1}, \"28\": {\"O\": 1}, \"29\": {\"O\": 1}, \"30\": {\"O\": 1}, \"31\": {\"O\": 1}, \"32\": {\"O\": 1}, \"33\": {\"O\": 1}, \"34\": {\"O\": 1}, \"35\": {\"O\": 1}, \"36\": {\"O\": 1}, \"37\": {\"O\": 1}, \"38\": {\"O\": 1}, \"39\": {\"O\": 1}}" n_minim_iter=3 energy=-45152.16679925736 stress="-0.005721455206438787 1.5385657839073316e-12 -2.260356739631864e-12 1.5385657839073316e-12 -0.015469108503491336 2.2212157344712096e-12 -2.260356739631864e-12 2.2212157344712096e-12 -0.014912434122949327" free_energy=-45152.16679925736 pbc="T T T"
In       2.51787135       4.00042553       8.43986693        0       0.02248663      -0.00320843       0.14119794
In      -0.09428972       3.71177723       6.47286924        1       0.02248663       0.00320843      -0.14119794
In       2.70645078       1.42969128      13.92923732        2      -0.02248663      -0.00320843      -0.14119794
In       5.31861185       1.14104298       0.98349884        3      -0.02248663       0.00320843       0.14119794
In       2.70645078       1.14104298       6.47286924        4      -0.02248663       0.00320843      -0.14119794
In       5.31861185       1.42969128       8.43986693        5      -0.02248663      -0.00320843       0.14119794
In       2.51787135       3.71177723       0.98349884        6       0.02248663       0.00320843       0.14119794
In      -0.09428972       4.00042553      13.92923732        7       0.02248663      -0.00320843      -0.14119794
In       2.49833442       3.72615112      12.12145467        8       0.06435711      -0.11294707       0.18020775
In       5.11049549       3.98605165       2.79128150        9       0.06435711       0.11294707      -0.18020775
In       2.72598771       1.15541686      10.24764958       10      -0.06435711      -0.11294707      -0.18020775
In       0.11382664       1.41531739       4.66508658       11      -0.06435711       0.11294707       0.18020775
In       2.72598771       1.41531739       2.79128150       12      -0.06435711       0.11294707      -0.18020775
In       0.11382664       1.15541686      12.12145467       13      -0.06435711      -0.11294707       0.18020775
In       2.49833442       3.98605165       4.66508658       14       0.06435711       0.11294707       0.18020775
In       5.11049549       3.72615112      10.24764958       15       0.06435711      -0.11294707      -0.18020775
O        4.42863148       4.45435015      11.94854896       16      -0.09417051       0.10106772       0.11319750
O        1.81647041       3.25785262       2.96418720       17      -0.09417051      -0.10106772      -0.11319750
O        0.79569066       1.88361589      10.42055529       18       0.09417051       0.10106772      -0.11319750
O        3.40785172       0.68711836       4.49218088       19       0.09417051      -0.10106772       0.11319750
O        0.79569066       0.68711836       2.96418720       20       0.09417051      -0.10106772      -0.11319750
O        3.40785172       1.88361589      11.94854896       21       0.09417051       0.10106772       0.11319750
O        4.42863148       3.25785262       4.49218088       22      -0.09417051      -0.10106772       0.11319750
O        1.81647041       4.45435015      10.42055529       23      -0.09417051       0.10106772      -0.11319750
O        3.65561042       2.62531622       9.27957428       24       0.10819626       0.05533069      -0.17002835
O        1.04344935       5.08688654       5.63316189       25       0.10819626      -0.05533069       0.17002835
O        1.56871171       0.05458197      13.08952997       26      -0.10819626       0.05533069       0.17002835
O        4.18087278       2.51615229       1.82320619       27      -0.10819626      -0.05533069      -0.17002835
O        1.56871171       2.51615229       5.63316189       28      -0.10819626      -0.05533069       0.17002835
O        4.18087278       0.05458197       9.27957428       29      -0.10819626       0.05533069      -0.17002835
O        3.65561042       5.08688654       1.82320619       30       0.10819626      -0.05533069      -0.17002835
O        1.04344935       2.62531622      13.08952997       31       0.10819626       0.05533069       0.17002835
O        3.27998055       3.45026198      14.09962940       32      -0.22485406      -0.14769934      -0.31006952
O        0.66781948       4.26194079       0.81310677       33      -0.22485406       0.14769934       0.31006952
O        1.94434159       0.87952772       8.26947485       34       0.22485406      -0.14769934       0.31006951
O        4.55650265       1.69120653       6.64326131       35       0.22485406       0.14769934      -0.31006952
O        1.94434159       1.69120653       0.81310677       36       0.22485406       0.14769934       0.31006952
O        4.55650265       0.87952772      14.09962940       37       0.22485406      -0.14769934      -0.31006952
O        3.27998055       4.26194079       6.64326131       38      -0.22485406       0.14769934      -0.31006952
O        0.66781948       3.45026198       8.26947485       39      -0.22485406      -0.14769934       0.31006952
40
Lattice="5.210668776144432 -8.88415370011519e-43 -9.663723586681446e-81 8.724706017888044e-43 5.153601297520076 4.247832500807308e-38 3.816079566309105e-81 1.6502892091833859e-37 14.91661148430025" Properties=species:S:1:pos:R:3:spacegroup_kinds:I:1:forces:R:3 spacegroup="P 1" unit_cell=conventional occupancy="_JSON {\"0\": {\"In\": 1}, \"1\": {\"In\": 1}, \"2\": {\"In\": 1}, \"3\": {\"In\": 1}, \"4\": {\"In\": 1}, \"5\": {\"In\": 1}, \"6\": {\"In\": 1}, \"7\": {\"In\": 1}, \"8\": {\"In\": 1}, \"9\": {\"In\": 1}, \"10\": {\"In\": 1}, \"11\": {\"In\": 1}, \"12\": {\"In\": 1}, \"13\": {\"In\": 1}, \"14\": {\"In\": 1}, \"15\": {\"In\": 1}, \"16\": {\"O\": 1}, \"17\": {\"O\": 1}, \"18\": {\"O\": 1}, \"19\": {\"O\": 1}, \"20\": {\"O\": 1}, \"21\": {\"O\": 1}, \"22\": {\"O\": 1}, \"23\": {\"O\": 1}, \"24\": {\"O\": 1}, \"25\": {\"O\": 1}, \"26\": {\"O\": 1}, \"27\": {\"O\": 1}, \"28\": {\"O\": 1}, \"29\": {\"O\": 1}, \"30\": {\"O\": 1}, \"31\": {\"O\": 1}, \"32\": {\"O\": 1}, \"33\": {\"O\": 1}, \"34\": {\"O\": 1}, \"35\": {\"O\": 1}, \"36\": {\"O\": 1}, \"37\": {\"O\": 1}, \"38\": {\"O\": 1}, \"39\": {\"O\": 1}}" n_minim_iter=4 energy=-45152.17281944402 stress="-0.012345211029849291 -5.781798860462106e-13 -4.3689089072871537e-13 -5.781798860462106e-13 -0.0101516244313268 -1.893404965892488e-12 -4.3689089072871537e-13 -1.893404965892488e-12 -0.014168434615589033" free_energy=-45152.17281944402 pbc="T T T"
In       2.51133777       4.01023176       8.44232736        0       0.10481360       0.05199636       0.12616076
In      -0.09399662       3.72017019       6.47428413        1       0.10481360      -0.05199636      -0.12616076
In       2.69933100       1.43343111      13.93258987        2      -0.10481360       0.05199636      -0.12616076
In       5.30466539       1.14336954       0.98402162        3      -0.10481359      -0.05199636       0.12616076
In       2.69933100       1.14336954       6.47428413        4      -0.10481360      -0.05199636      -0.12616076
In       5.30466539       1.43343111       8.44232736        5      -0.10481360       0.05199636       0.12616076
In       2.51133777       3.72017019       0.98402162        6       0.10481360      -0.05199636       0.12616076
In      -0.09399662       4.01023176      13.93258987        7       0.10481359       0.05199636      -0.12616076
In       2.49181753       3.73469921      12.12492594        8       0.02234069      -0.12843595       0.18695938
In       5.09715192       3.99570274       2.79168554        9       0.02234069       0.12843595      -0.18695938
In       2.71885125       1.15789856      10.24999128       10      -0.02234069      -0.12843595      -0.18695938
In       0.11351686       1.41890209       4.66662020       11      -0.02234069       0.12843595       0.18695938
In       2.71885125       1.41890209       2.79168554       12      -0.02234069       0.12843595      -0.18695938
In       0.11351686       1.15789856      12.12492594       13      -0.02234069      -0.12843595       0.18695938
In       2.49181753       3.99570274       4.66662020       14       0.02234069       0.12843595       0.18695938
In       5.09715192       3.73469921      10.24999128       15       0.02234069      -0.12843595      -0.18695938
O        4.41689333       4.46498208      11.95159736       16      -0.06408305       0.12356371       0.10650473
O        1.81155894       3.26541987       2.96501413       17      -0.06408305      -0.12356371      -0.10650473
O        0.79377545       1.88818143      10.42331987       18       0.06408305       0.12356371      -0.10650473
O        3.39910984       0.68861922       4.49329162       19       0.06408305      -0.12356371       0.10650473
O        0.79377545       0.68861922       2.96501413       20       0.06408305      -0.12356371      -0.10650473
O        3.39910984       1.88818143      11.95159736       21       0.06408305       0.12356371       0.10650473
O        4.41689333       3.26541987       4.49329162       22      -0.06408305      -0.12356371       0.10650473
O        1.81155894       4.46498208      10.42331987       23      -0.06408305       0.12356371      -0.10650473
O        3.64591469       2.63161297       9.28177140       24       0.10300184       0.04327957      -0.16619522
O        1.04058030       5.09878897       5.63484009       25       0.10300184      -0.04327957       0.16619522
O        1.56475409       0.05481232      13.09314583       26      -0.10300184       0.04327957       0.16619522
O        4.17008848       2.52198832       1.82346565       27      -0.10300184      -0.04327957      -0.16619522
O        1.56475409       2.52198832       5.63484009       28      -0.10300184      -0.04327957       0.16619522
O        4.17008848       0.05481232       9.28177140       29      -0.10300184       0.04327957      -0.16619522
O        3.64591469       5.09878897       1.82346565       30       0.10300184      -0.04327957      -0.16619522
O        1.04058030       2.63161297      13.09314583       31       0.10300184       0.04327957       0.16619522
O        3.27145960       3.45806969      14.10326938       32      -0.29772831      -0.19718145      -0.30229106
O        0.66612521       4.27233226       0.81334210       33      -0.29772831       0.19718145       0.30229106
O        1.93920918       0.88126904       8.27164784       34       0.29772831      -0.19718145       0.30229106
O        4.54454357       1.69553161       6.64496364       35       0.29772831       0.19718145      -0.30229106
O        1.93920918       1.69553161       0.81334210       36       0.29772831       0.19718145       0.30229106
O        4.54454357       0.88126904      14.10326938       37       0.29772831      -0.19718145      -0.30229106
O        3.27145960       4.27233226       6.64496364       38      -0.29772831       0.19718145      -0.30229106
O        0.66612521       3.45806969       8.27164784       39      -0.29772831      -0.19718145       0.30229106
40
Lattice="5.202217874318296 -8.870125647383611e-43 -1.0899969277538318e-80 8.727811775244508e-43 5.155584405084477 4.957017118564773e-38 3.85092983450599e-81 1.8543804614419278e-37 14.935096199545297" Properties=species:S:1:pos:R:3:spacegroup_kinds:I:1:forces:R:3 spacegroup="P 1" unit_cell=conventional occupancy="_JSON {\"0\": {\"In\": 1}, \"1\": {\"In\": 1}, \"2\": {\"In\": 1}, \"3\": {\"In\": 1}, \"4\": {\"In\": 1}, \"5\": {\"In\": 1}, \"6\": {\"In\": 1}, \"7\": {\"In\": 1}, \"8\": {\"In\": 1}, \"9\": {\"In\": 1}, \"10\": {\"In\": 1}, \"11\": {\"In\": 1}, \"12\": {\"In\": 1}, \"13\": {\"In\": 1}, \"14\": {\"In\": 1}, \"15\": {\"In\": 1}, \"16\": {\"O\": 1}, \"17\": {\"O\": 1}, \"18\": {\"O\": 1}, \"19\": {\"O\": 1}, \"20\": {\"O\": 1}, \"21\": {\"O\": 1}, \"22\": {\"O\": 1}, \"23\": {\"O\": 1}, \"24\": {\"O\": 1}, \"25\": {\"O\": 1}, \"26\": {\"O\": 1}, \"27\": {\"O\": 1}, \"28\": {\"O\": 1}, \"29\": {\"O\": 1}, \"30\": {\"O\": 1}, \"31\": {\"O\": 1}, \"32\": {\"O\": 1}, \"33\": {\"O\": 1}, \"34\": {\"O\": 1}, \"35\": {\"O\": 1}, \"36\": {\"O\": 1}, \"37\": {\"O\": 1}, \"38\": {\"O\": 1}, \"39\": {\"O\": 1}}" n_minim_iter=5 energy=-45152.200631816784 stress="-0.017378004012776213 1.7858653175187504e-12 -1.754164207567892e-12 1.7858653175187504e-12 -0.016605417627749024 -3.4237182117127324e-13 -1.754164207567892e-12 -3.4237182117127324e-13 -0.014858868270582784" free_energy=-45152.200631816784 pbc="T T T"
In       2.50914760       4.01077810       8.45390691        0       0.01167750       0.06841893      -0.01030663
In      -0.09196134       3.72259850       6.48118929        1       0.01167750      -0.06841893       0.01030663
In       2.69307028       1.43298590      13.94873739        2      -0.01167750       0.06841893       0.01030663
In       5.29417921       1.14480630       0.98635881        3      -0.01167750      -0.06841893      -0.01030663
In       2.69307028       1.14480630       6.48118929        4      -0.01167750      -0.06841893       0.01030663
In       5.29417921       1.43298590       8.45390691        5      -0.01167750       0.06841893      -0.01030663
In       2.50914760       3.72259850       0.98635881        6       0.01167750      -0.06841893      -0.01030663
In      -0.09196134       4.01077810      13.94873739        7       0.01167750       0.06841893       0.01030663
In       2.48824328       3.73470742      12.14250457        8      -0.09108333       0.00747924      -0.01671484
In       5.08935222       3.99866918       2.79259163        9      -0.09108333      -0.00747924       0.01671484
In       2.71397459       1.15691522      10.26013973       10       0.09108333       0.00747924       0.01671484
In       0.11286566       1.42087698       4.67495647       11       0.09108333      -0.00747924      -0.01671484
In       2.71397459       1.42087698       2.79259163       12       0.09108333      -0.00747924       0.01671484
In       0.11286566       1.15691522      12.14250457       13       0.09108333       0.00747924      -0.01671484
In       2.48824328       3.99866918       4.67495647       14      -0.09108333      -0.00747924      -0.01671484
In       5.08935222       3.73470742      10.26013973       15      -0.09108333       0.00747924       0.01671484
O        4.40880599       4.46864975      11.96913682       16      -0.00493756       0.03669660      -0.10944186
O        1.80769705       3.26472686       2.96595938       17      -0.00493756      -0.03669660       0.10944186
O        0.79341188       1.89085755      10.43350748       18       0.00493756       0.03669660       0.10944186
O        3.39452082       0.68693466       4.50158872       19       0.00493756      -0.03669660      -0.10944186
O        0.79341188       0.68693466       2.96595938       20       0.00493756      -0.03669660       0.10944186
O        3.39452082       1.89085755      11.96913682       21       0.00493756       0.03669660      -0.10944186
O        4.40880599       3.26472686       4.50158872       22      -0.00493756      -0.03669660      -0.10944186
O        1.80769705       4.46864975      10.43350748       23      -0.00493756       0.03669660       0.10944186
O        3.64332385       2.63308995       9.29032273       24      -0.07935103      -0.01586220      -0.08461545
O        1.04221491       5.10028665       5.64477347       25      -0.07935103       0.01586220       0.08461545
O        1.55889403       0.05529775      13.11232157       26       0.07935103      -0.01586220       0.08461545
O        4.16000297       2.52249445       1.82277463       27       0.07935103       0.01586220      -0.08461545
O        1.55889403       2.52249445       5.64477347       28       0.07935103       0.01586220       0.08461545
O        4.16000297       0.05529775       9.29032273       29       0.07935103      -0.01586220      -0.08461545
O        3.64332385       5.10028665       1.82277463       30      -0.07935103       0.01586220      -0.08461545
O        1.04221491       2.63308995      13.11232157       31      -0.07935103      -0.01586220       0.08461545
O        3.25886002       3.45681268      14.11375532       32       0.00557643      -0.10412973       0.00166881
O        0.65775108       4.27656392       0.82134088       33       0.00557643       0.10412973      -0.00166881
O        1.94335786       0.87902048       8.28888898       34      -0.00557643      -0.10412973      -0.00166881
O        4.54446679       1.69877172       6.64620722       35      -0.00557643       0.10412973       0.00166881
O        1.94335786       1.69877172       0.82134088       36      -0.00557643       0.10412973      -0.00166881
O        4.54446679       0.87902048      14.11375532       37      -0.00557643      -0.10412973       0.00166881
O        3.25886002       4.27656392       6.64620722       38       0.00557643       0.10412973       0.00166881
O        0.65775108       3.45681268       8.28888898       39       0.00557643      -0.10412973      -0.00166881
40