40
Lattice="5.663919742880027 -1.8343135439560698e-42 0.0 1.7497839580322697e-43 5.833917405236015 0.0 0.0 0.0 16.42421767073976" Properties=species:S:1:pos:R:3:spacegroup_kinds:I:1:forces:R:3 spacegroup="P 1" unit_cell=conventional occupancy="_JSON {\"0\": {\"In\": 1}, \"1\": {\"In\": 1}, \"2\": {\"In\": 1}, \"3\": {\"In\": 1}, \"4\": {\"In\": 1}, \"5\": {\"In\": 1}, \"6\": {\"In\": 1}, \"7\": {\"In\": 1}, \"8\": {\"In\": 1}, \"9\": {\"In\": 1}, \"10\": {\"In\": 1}, \"11\": {\"In\": 1}, \"12\": {\"In\": 1}, \"13\": {\"In\": 1}, \"14\": {\"In\": 1}, \"15\": {\"In\": 1}, \"16\": {\"O\": 1}, \"17\": {\"O\": 1}, \"18\": {\"O\": 1}, \"19\": {\"O\": 1}, \"20\": {\"O\": 1}, \"21\": {\"O\": 1}, \"22\": {\"O\": 1}, \"23\": {\"O\": 1}, \"24\": {\"O\": 1}, \"25\": {\"O\": 1}, \"26\": {\"O\": 1}, \"27\": {\"O\": 1}, \"28\": {\"O\": 1}, \"29\": {\"O\": 1}, \"30\": {\"O\": 1}, \"31\": {\"O\": 1}, \"32\": {\"O\": 1}, \"33\": {\"O\": 1}, \"34\": {\"O\": 1}, \"35\": {\"O\": 1}, \"36\": {\"O\": 1}, \"37\": {\"O\": 1}, \"38\": {\"O\": 1}, \"39\": {\"O\": 1}}" n_minim_iter=10 energy=-45150.26708783736 stress="0.0038114275892018106 -7.012485697949357e-14 9.65983866995165e-13 -7.012485697949357e-14 0.0038774293242181167 -4.587740508768034e-13 9.65983866995165e-13 -4.587740508768034e-13 0.003830867619754216" free_energy=-45150.26708783736 pbc="T T T"
In       2.82572477       4.67075657       9.37468288        0      -0.00581335      -0.00105714      -0.00433963
In      -0.00623510       4.08011954       7.04953479        1      -0.00581335       0.00105714       0.00433963
In       2.83819497       1.75379786      15.26164363        2       0.00581335      -0.00105714       0.00433963
In       5.67015484       1.16316084       1.16257405        3       0.00581335       0.00105714      -0.00433963
In       2.83819497       1.16316084       7.04953479        4       0.00581335       0.00105714       0.00433963
In       5.67015484       1.75379786       9.37468288        5       0.00581335      -0.00105714      -0.00433963
In       2.82572477       4.08011954       1.16257405        6      -0.00581335       0.00105714      -0.00433963
In      -0.00623510       4.67075657      15.26164363        7      -0.00581335      -0.00105714       0.00433963
In       2.81254002       4.37190428      13.44472804        8       0.00140994      -0.00094309       0.00301478
In       5.64449989       4.37897183       2.97948963        9       0.00140994       0.00094309      -0.00301478
In       2.85137972       1.45494558      11.19159847       10      -0.00140994      -0.00094309      -0.00301478
In       0.01941985       1.46201312       5.23261920       11      -0.00140994       0.00094309       0.00301478
In       2.85137972       1.46201312       2.97948963       12      -0.00140994       0.00094309      -0.00301478
In       0.01941985       1.45494558      13.44472804       13      -0.00140994      -0.00094309       0.00301478
In       2.81254002       4.37897183       5.23261920       14       0.00140994       0.00094309       0.00301478
In       5.64449989       4.37190428      11.19159847       15       0.00140994      -0.00094309      -0.00301478
O        4.86838405       5.14439585      13.10474883       16      -0.00300745       0.00075967       0.00032241
O        2.03642418       3.60648026       3.31946885       17      -0.00300745      -0.00075967      -0.00032241
O        0.79553569       2.22743715      11.53157768       18       0.00300745       0.00075967      -0.00032241
O        3.62749557       0.68952156       4.89263999       19       0.00300745      -0.00075967       0.00032241
O        0.79553569       0.68952156       3.31946885       20       0.00300745      -0.00075967      -0.00032241
O        3.62749557       2.22743715      13.10474883       21       0.00300745       0.00075967       0.00032241
O        4.86838405       3.60648026       4.89263999       22      -0.00300745      -0.00075967       0.00032241
O        2.03642418       5.14439585      11.53157768       23      -0.00300745       0.00075967      -0.00032241
O        4.00165494       3.08261310      10.24243042       24      -0.00190208      -0.00671101       0.00599179
O        1.16969507       5.66826301       6.18178725       25      -0.00190208       0.00671101      -0.00599179
O        1.66226480       0.16565439      14.39389608       26       0.00190208      -0.00671101      -0.00599179
O        4.49422467       2.75130431       2.03032159       27       0.00190208       0.00671101       0.00599179
O        1.66226480       2.75130431       6.18178725       28       0.00190208       0.00671101      -0.00599179
O        4.49422467       0.16565439      10.24243042       29       0.00190208      -0.00671101       0.00599179
O        4.00165494       5.66826301       2.03032159       30      -0.00190208       0.00671101       0.00599179
O        1.16969507       3.08261310      14.39389608       31      -0.00190208      -0.00671101      -0.00599179
O        3.66329975       3.86036544      15.57175822       32       0.00304271      -0.00217506      -0.00021469
O        0.83133988       4.89051067       0.85245946       33       0.00304271       0.00217506       0.00021469
O        2.00061999       0.94340674       9.06456829       34      -0.00304271      -0.00217506       0.00021469
O        4.83257986       1.97355196       7.35964938       35      -0.00304271       0.00217506      -0.00021469
O        2.00061999       1.97355196       0.85245946       36      -0.00304271       0.00217506       0.00021469
O        4.83257986       0.94340674      15.57175822       37      -0.00304271      -0.00217506      -0.00021469
O        3.66329975       4.89051067       7.35964938       38       0.00304271       0.00217506      -0.00021469
O        0.83133988       3.86036544       9.06456829       39       0.00304271      -0.00217506       0.00021469
