40
Lattice="5.665516130254227 -3.205795479145109e-42 0.0 3.112639593389301e-42 6.163913659546187 0.0 0.0 0.0 17.390601344061444" Properties=species:S:1:pos:R:3:spacegroup_kinds:I:1:forces:R:3 spacegroup="P 1" unit_cell=conventional occupancy="_JSON {\"0\": {\"In\": 1}, \"1\": {\"In\": 1}, \"2\": {\"In\": 1}, \"3\": {\"In\": 1}, \"4\": {\"In\": 1}, \"5\": {\"In\": 1}, \"6\": {\"In\": 1}, \"7\": {\"In\": 1}, \"8\": {\"In\": 1}, \"9\": {\"In\": 1}, \"10\": {\"In\": 1}, \"11\": {\"In\": 1}, \"12\": {\"In\": 1}, \"13\": {\"In\": 1}, \"14\": {\"In\": 1}, \"15\": {\"In\": 1}, \"16\": {\"O\": 1}, \"17\": {\"O\": 1}, \"18\": {\"O\": 1}, \"19\": {\"O\": 1}, \"20\": {\"O\": 1}, \"21\": {\"O\": 1}, \"22\": {\"O\": 1}, \"23\": {\"O\": 1}, \"24\": {\"O\": 1}, \"25\": {\"O\": 1}, \"26\": {\"O\": 1}, \"27\": {\"O\": 1}, \"28\": {\"O\": 1}, \"29\": {\"O\": 1}, \"30\": {\"O\": 1}, \"31\": {\"O\": 1}, \"32\": {\"O\": 1}, \"33\": {\"O\": 1}, \"34\": {\"O\": 1}, \"35\": {\"O\": 1}, \"36\": {\"O\": 1}, \"37\": {\"O\": 1}, \"38\": {\"O\": 1}, \"39\": {\"O\": 1}}" n_minim_iter=42 energy=-45148.860416497235 stress="0.0002677830847877532 -6.725045195037932e-13 5.962667694841656e-14 -6.725045195037932e-13 0.00032936796375661033 -5.926252289746039e-13 5.962667694841656e-14 -5.926252289746039e-13 0.0002658356519219271" free_energy=-45148.860416497235 pbc="T T T"
In       2.70476939       5.12543959      10.02669847        0      -0.00258752      -0.00623560       0.00237771
In      -0.12798867       4.12043090       7.36390288        1      -0.00258752       0.00623560      -0.00237771
In       2.96074674       2.04348276      16.05920355        2       0.00258752      -0.00623560      -0.00237771
In       5.79350480       1.03847407       1.33139779        3       0.00258752       0.00623560       0.00237771
In       2.96074674       1.03847407       7.36390288        4       0.00258752       0.00623560      -0.00237771
In       5.79350480       2.04348276      10.02669847        5       0.00258752      -0.00623560       0.00237771
In       2.70476939       4.12043090       1.33139779        6      -0.00258752       0.00623560       0.00237771
In      -0.12798867       5.12543959      16.05920355        7      -0.00258752      -0.00623560      -0.00237771
In       2.65811511       4.81719367      14.08444018        8      -0.00125937      -0.00787048       0.00112191
In       5.49087318       4.42867682       3.30616116        9      -0.00125937       0.00787048      -0.00112191
In       3.00740102       1.73523684      12.00146183       10       0.00125937      -0.00787048      -0.00112191
In       0.17464295       1.34671999       5.38913951       11       0.00125937       0.00787048       0.00112191
In       3.00740102       1.34671999       3.30616116       12       0.00125937       0.00787048      -0.00112191
In       0.17464295       1.73523684      14.08444018       13       0.00125937      -0.00787048       0.00112191
In       2.65811511       4.42867682       5.38913951       14      -0.00125937       0.00787048       0.00112191
In       5.49087318       4.81719367      12.00146183       15      -0.00125937      -0.00787048      -0.00112191
O        4.71909069       5.60475274      13.93434731       16      -0.00310624       0.00279769      -0.00265751
O        1.88633262       3.64111775       3.45625404       17      -0.00310624      -0.00279769       0.00265751
O        0.94642544       2.52279591      12.15155471       18       0.00310624       0.00279770       0.00265751
O        3.77918351       0.55916092       5.23904664       19       0.00310624      -0.00279769      -0.00265751
O        0.94642544       0.55916092       3.45625404       20       0.00310624      -0.00279769       0.00265751
O        3.77918351       2.52279591      13.93434731       21       0.00310624       0.00279769      -0.00265751
O        4.71909069       3.64111775       5.23904664       22      -0.00310624      -0.00279770      -0.00265751
O        1.88633262       5.60475274      12.15155471       23      -0.00310624       0.00279769       0.00265751
O        3.95973426       3.53325604      11.07050046       24       0.00239048       0.00506681       0.00217960
O        1.12697619       5.71261445       6.32010088       25       0.00239048      -0.00506681      -0.00217960
O        1.70578187       0.45129921      15.01540155       26      -0.00239048       0.00506681      -0.00217960
O        4.53853994       2.63065762       2.37519979       27      -0.00239048      -0.00506681       0.00217960
O        1.70578187       2.63065762       6.32010088       28      -0.00239048      -0.00506681      -0.00217960
O        4.53853994       0.45129921      11.07050046       29      -0.00239048       0.00506681       0.00217960
O        3.95973426       5.71261445       2.37519979       30       0.00239048      -0.00506681       0.00217960
O        1.12697619       3.53325604      15.01540155       31       0.00239048       0.00506681      -0.00217960
O        3.59054813       4.13748764      16.61897721       32      -0.00141745       0.00287614       0.00029702
O        0.75779007       5.10838285       0.77162413       33      -0.00141745      -0.00287614      -0.00029702
O        2.07496800       1.05553081       9.46692481       34       0.00141745       0.00287614      -0.00029702
O        4.90772606       2.02642602       7.92367654       35       0.00141745      -0.00287614       0.00029702
O        2.07496800       2.02642602       0.77162413       36       0.00141745      -0.00287614      -0.00029702
O        4.90772606       1.05553081      16.61897721       37       0.00141745       0.00287614       0.00029702
O        3.59054813       5.10838285       7.92367654       38      -0.00141745      -0.00287614       0.00029702
O        0.75779007       4.13748764       9.46692481       39      -0.00141745       0.00287614      -0.00029702
