40
Lattice="5.50493675416076 2.3452706325255423e-42 0.0 1.0069656623680646e-42 5.1556545231042925 0.0 0.0 0.0 15.934728618526638" Properties=species:S:1:pos:R:3:spacegroup_kinds:I:1:forces:R:3 spacegroup="P 1" unit_cell=conventional occupancy="_JSON {\"0\": {\"In\": 1}, \"1\": {\"In\": 1}, \"2\": {\"In\": 1}, \"3\": {\"In\": 1}, \"4\": {\"In\": 1}, \"5\": {\"In\": 1}, \"6\": {\"In\": 1}, \"7\": {\"In\": 1}, \"8\": {\"In\": 1}, \"9\": {\"In\": 1}, \"10\": {\"In\": 1}, \"11\": {\"In\": 1}, \"12\": {\"In\": 1}, \"13\": {\"In\": 1}, \"14\": {\"In\": 1}, \"15\": {\"In\": 1}, \"16\": {\"O\": 1}, \"17\": {\"O\": 1}, \"18\": {\"O\": 1}, \"19\": {\"O\": 1}, \"20\": {\"O\": 1}, \"21\": {\"O\": 1}, \"22\": {\"O\": 1}, \"23\": {\"O\": 1}, \"24\": {\"O\": 1}, \"25\": {\"O\": 1}, \"26\": {\"O\": 1}, \"27\": {\"O\": 1}, \"28\": {\"O\": 1}, \"29\": {\"O\": 1}, \"30\": {\"O\": 1}, \"31\": {\"O\": 1}, \"32\": {\"O\": 1}, \"33\": {\"O\": 1}, \"34\": {\"O\": 1}, \"35\": {\"O\": 1}, \"36\": {\"O\": 1}, \"37\": {\"O\": 1}, \"38\": {\"O\": 1}, \"39\": {\"O\": 1}}" n_minim_iter=36 energy=-45151.28370787411 stress="0.02474716084740661 -1.0397623865693636e-12 -9.507358468422587e-13 -1.0397623865693636e-12 0.024797074300925252 4.236020930410825e-13 -9.507358468422587e-13 4.236020930410825e-13 0.024801095367605757" free_energy=-45151.28370787411 pbc="T T T"
In       2.77083655       4.00858017       9.07181334        0       0.00814394       0.00118309      -0.00053535
In       0.01836818       3.72490162       6.86291528        1       0.00814394      -0.00118309       0.00053535
In       2.73410020       1.43075290      14.83027959        2      -0.00814394       0.00118309       0.00053535
In       5.48656858       1.14707436       1.10444903        3      -0.00814394      -0.00118309      -0.00053535
In       2.73410020       1.14707436       6.86291528        4      -0.00814394      -0.00118309       0.00053535
In       5.48656858       1.43075290       9.07181334        5      -0.00814394       0.00118309      -0.00053535
In       2.77083655       3.72490162       1.10444903        6       0.00814394      -0.00118309      -0.00053535
In       0.01836818       4.00858017      14.83027959        7       0.00814394       0.00118309       0.00053535
In       2.82225030       3.88613042      12.96596771        8      -0.00073291      -0.00543378      -0.00030678
In       5.57471868       3.84735136       2.96876090        9      -0.00073291       0.00543378       0.00030678
In       2.68268645       1.30830316      10.93612521       10       0.00073291      -0.00543378       0.00030678
In      -0.06978193       1.26952410       4.99860341       11       0.00073291       0.00543378      -0.00030678
In       2.68268645       1.26952410       2.96876090       12       0.00073291       0.00543378       0.00030678
In      -0.06978193       1.30830316      12.96596771       13       0.00073291      -0.00543378      -0.00030678
In       2.82225030       3.84735136       4.99860341       14      -0.00073291       0.00543378      -0.00030678
In       5.57471868       3.88613042      10.93612521       15      -0.00073291      -0.00543378       0.00030678
O        4.81934703       4.33898967      12.78723920       16      -0.00075226       0.00107556       0.00722528
O        2.06687865       3.39449212       3.14748941       17      -0.00075226      -0.00107556      -0.00722528
O        0.68558973       1.76116240      11.11485372       18       0.00075226       0.00107556      -0.00722528
O        3.43805810       0.81666486       4.81987489       19       0.00075226      -0.00107556       0.00722528
O        0.68558973       0.81666486       3.14748941       20       0.00075226      -0.00107556      -0.00722528
O        3.43805810       1.76116240      12.78723920       21       0.00075226       0.00107556       0.00722528
O        4.81934703       3.39449212       4.81987489       22      -0.00075226      -0.00107556       0.00722528
O        2.06687865       4.33898967      11.11485372       23      -0.00075226       0.00107556      -0.00722528
O        3.96256078       2.70550826      10.10326587       24       0.00370736       0.00687334      -0.00453594
O        1.21009241       5.02797353       5.83146275       25       0.00370736      -0.00687334       0.00453594
O        1.54237597       0.12768100      13.79882706       26      -0.00370736       0.00687334       0.00453594
O        4.29484435       2.45014627       2.13590156       27      -0.00370736      -0.00687334      -0.00453594
O        1.54237597       2.45014627       5.83146275       28      -0.00370736      -0.00687334       0.00453594
O        4.29484435       0.12768100      10.10326587       29      -0.00370736       0.00687334      -0.00453594
O        3.96256078       5.02797353       2.13590156       30       0.00370736      -0.00687334      -0.00453594
O        1.21009241       2.70550826      13.79882706       31       0.00370736       0.00687334       0.00453594
O        3.45117860       3.62923221      15.09208047       32       0.00644297       0.00002582       0.00536686
O        0.69871023       4.10424957       0.84264815       33       0.00644297      -0.00002582      -0.00536686
O        2.05375815       1.05140495       8.81001246       34      -0.00644297       0.00002582      -0.00536686
O        4.80622653       1.52642231       7.12471616       35      -0.00644297      -0.00002582       0.00536686
O        2.05375815       1.52642231       0.84264815       36      -0.00644297      -0.00002582      -0.00536686
O        4.80622653       1.05140495      15.09208047       37      -0.00644297       0.00002582       0.00536686
O        3.45117860       4.10424957       7.12471616       38       0.00644297      -0.00002582       0.00536686
O        0.69871023       3.62923221       8.81001246       39       0.00644297       0.00002582      -0.00536686
