40
Lattice="5.670598529528179 -2.0556454352809e-42 0.0 1.9320512295890025e-42 5.835592227233356 0.0 0.0 0.0 16.40016513706623" Properties=species:S:1:pos:R:3:spacegroup_kinds:I:1:forces:R:3 spacegroup="P 1" unit_cell=conventional occupancy="_JSON {\"0\": {\"In\": 1}, \"1\": {\"In\": 1}, \"2\": {\"In\": 1}, \"3\": {\"In\": 1}, \"4\": {\"In\": 1}, \"5\": {\"In\": 1}, \"6\": {\"In\": 1}, \"7\": {\"In\": 1}, \"8\": {\"In\": 1}, \"9\": {\"In\": 1}, \"10\": {\"In\": 1}, \"11\": {\"In\": 1}, \"12\": {\"In\": 1}, \"13\": {\"In\": 1}, \"14\": {\"In\": 1}, \"15\": {\"In\": 1}, \"16\": {\"O\": 1}, \"17\": {\"O\": 1}, \"18\": {\"O\": 1}, \"19\": {\"O\": 1}, \"20\": {\"O\": 1}, \"21\": {\"O\": 1}, \"22\": {\"O\": 1}, \"23\": {\"O\": 1}, \"24\": {\"O\": 1}, \"25\": {\"O\": 1}, \"26\": {\"O\": 1}, \"27\": {\"O\": 1}, \"28\": {\"O\": 1}, \"29\": {\"O\": 1}, \"30\": {\"O\": 1}, \"31\": {\"O\": 1}, \"32\": {\"O\": 1}, \"33\": {\"O\": 1}, \"34\": {\"O\": 1}, \"35\": {\"O\": 1}, \"36\": {\"O\": 1}, \"37\": {\"O\": 1}, \"38\": {\"O\": 1}, \"39\": {\"O\": 1}}" n_minim_iter=13 energy=-45150.17068220751 stress="0.011305787793517643 1.5807863969977622e-12 -6.552406586523884e-13 1.5807863969977622e-12 0.011321711790616685 3.095648757361368e-14 -6.552406586523884e-13 3.095648757361368e-14 0.011300172456748395" free_energy=-45150.17068220751 pbc="T T T"
In       2.83740663       4.66448928       9.35502746        0      -0.00731029      -0.00343129       0.00011838
In       0.00210736       4.08889906       7.04513767        1      -0.00731029       0.00343129      -0.00011838
In       2.83319190       1.74669317      15.24522024        2       0.00731029      -0.00343129      -0.00011838
In       5.66849117       1.17110295       1.15494490        3       0.00731029       0.00343129       0.00011838
In       2.83319190       1.17110295       7.04513767        4       0.00731029       0.00343129      -0.00011838
In       5.66849117       1.74669317       9.35502746        5       0.00731029      -0.00343129       0.00011838
In       2.83740663       4.08889906       1.15494490        6      -0.00731029       0.00343129       0.00011838
In       0.00210736       4.66448928      15.24522024        7      -0.00731029      -0.00343129      -0.00011838
In       2.82146553       4.35869470      13.42697678        8      -0.00773118      -0.00186777      -0.00269758
In       5.65676480       4.39469364       2.97318836        9      -0.00773118       0.00186777       0.00269758
In       2.84913300       1.44089858      11.17327093       10       0.00773118      -0.00186777       0.00269758
In       0.01383373       1.47689753       5.22689421       11       0.00773118       0.00186777      -0.00269758
In       2.84913300       1.47689753       2.97318836       12       0.00773118       0.00186777       0.00269758
In       0.01383373       1.44089858      13.42697678       13       0.00773118      -0.00186777      -0.00269758
In       2.82146553       4.39469364       5.22689421       14      -0.00773118       0.00186777      -0.00269758
In       5.65676480       4.35869470      11.17327093       15      -0.00773118      -0.00186777       0.00269758
O        4.87834737       5.12163834      13.08594127       16       0.00440767      -0.00303314      -0.00251545
O        2.04304810       3.63175000       3.31422387       17       0.00440767       0.00303314       0.00251545
O        0.79225116       2.20384223      11.51430644       18      -0.00440767      -0.00303314       0.00251545
O        3.62755043       0.71395389       4.88585870       19      -0.00440767       0.00303314      -0.00251545
O        0.79225116       0.71395389       3.31422387       20      -0.00440767       0.00303314       0.00251545
O        3.62755043       2.20384223      13.08594127       21      -0.00440767      -0.00303314      -0.00251545
O        4.87834737       3.63175000       4.88585870       22       0.00440767       0.00303314      -0.00251545
O        2.04304810       5.12163834      11.51430644       23       0.00440767      -0.00303314       0.00251545
O        3.99988140       3.07204713      10.22444381       24       0.00057651      -0.00196725       0.00106124
O        1.16458213       5.68134121       6.17572133       25       0.00057651       0.00196725      -0.00106124
O        1.67071713       0.15425101      14.37580390       26      -0.00057651      -0.00196725      -0.00106124
O        4.50601640       2.76354510       2.02436124       27      -0.00057651       0.00196725       0.00106124
O        1.67071713       2.76354510       6.17572133       28      -0.00057651       0.00196725      -0.00106124
O        4.50601640       0.15425101      10.22444381       29      -0.00057651      -0.00196725       0.00106124
O        3.99988140       5.68134121       2.02436124       30       0.00057651       0.00196725       0.00106124
O        1.16458213       3.07204713      14.37580390       31       0.00057651      -0.00196725      -0.00106124
O        3.67692780       3.85276099      15.54622200       32      -0.00127696       0.00259444       0.00256996
O        0.84162854       4.90062735       0.85394314       33      -0.00127696      -0.00259444      -0.00256996
O        1.99367073       0.93496488       9.05402571       34       0.00127696       0.00259444      -0.00256996
O        4.82896999       1.98283123       7.34613943       35       0.00127696      -0.00259444       0.00256996
O        1.99367073       1.98283123       0.85394314       36       0.00127696      -0.00259444      -0.00256996
O        4.82896999       0.93496488      15.54622200       37       0.00127696       0.00259444       0.00256996
O        3.67692780       4.90062735       7.34613943       38      -0.00127696      -0.00259444       0.00256996
O        0.84162854       3.85276099       9.05402571       39      -0.00127696       0.00259444      -0.00256996
